                         Program Version 5.0.3 -  RELEASE  -
|  1> ! B3LYP 6-31G
|  2> !TightSCF
|  3> %scf
|  4>  ConvForced true
|  5>  convergence tight
|  6>  MaxIter 500
|  7> end
|  8>
|  9> %tddft
| 10>  nroots 1
| 11> end
| 12>
| 13> # 	26073
| 14> * xyz 0 1
| 15> 		C   -0.562155  -0.383458  -0.078701
| 16> 		O   -0.633275  -1.720258   0.036948
| 17> 		C    0.670058   0.424178   0.052965
| 18> 		C    1.872119  -0.072917  -0.021671
| 19> 		H   -1.341491   0.101032  -0.121283
| 20> 		H    0.290507   1.374144   0.258046
| 21> 		H    1.839065  -1.084859   0.035781
| 22> 		H    2.621555   0.529758  -0.191113
| 23> *
| 24>
| 25>                          ****END OF INPUT****

CARTESIAN COORDINATES (ANGSTROEM)
---------------------------------
  C     -0.562155   -0.383458   -0.078701
  O     -0.633275   -1.720258    0.036948
  C      0.670058    0.424178    0.052965
  C      1.872119   -0.072917   -0.021671
  H     -1.341491    0.101032   -0.121283
  H      0.290507    1.374144    0.258046
  H      1.839065   -1.084859    0.035781
  H      2.621555    0.529758   -0.191113

 Total Charge           Charge          ....    0
 Multiplicity           Mult            ....    1
 Number of Electrons    NEL             ....   30
 Basis Dimension        Dim             ....   44

ORBITAL ENERGIES
----------------

  NO   OCC          E(Eh)            E(eV)
   0   2.0000     -19.145614      -520.9786
   1   2.0000     -10.262339      -279.2524
   2   2.0000     -10.199765      -277.5497
   3   2.0000     -10.192451      -277.3507
   4   2.0000      -0.991641       -26.9839
   5   2.0000      -0.819562       -22.3014
   6   2.0000      -0.703304       -19.1379
   7   2.0000      -0.573987       -15.6190
   8   2.0000      -0.531943       -14.4749
   9   2.0000      -0.452575       -12.3152
  10   2.0000      -0.433316       -11.7911
  11   2.0000      -0.388370       -10.5681
  12   2.0000      -0.362013        -9.8509
  13   2.0000      -0.283453        -7.7132
  14   2.0000      -0.252207        -6.8629
  15   0.0000      -0.085385        -2.3234
  16   0.0000       0.045095         1.2271
  17   0.0000       0.121460         3.3051
  18   0.0000       0.147598         4.0163
  19   0.0000       0.196650         5.3511

MULLIKEN ATOMIC CHARGES
-----------------------
   0 C :    0.204472
   1 O :   -0.429860
   2 C :   -0.108143
   3 C :   -0.230095
   4 H :    0.107809
   5 H :    0.134882
   6 H :    0.176937
   7 H :    0.143998
Sum of atomic charges:   -0.0000000

LOEWDIN ATOMIC CHARGES
----------------------
   0 C :    0.122733
   1 O :   -0.298048
   2 C :   -0.159237
   3 C :   -0.145043
   4 H :    0.086902
   5 H :    0.118510
   6 H :    0.145341
   7 H :    0.128842

  Mayer bond orders larger than 0.100000
B(  0-C ,  1-O ) :   1.8320 B(  0-C ,  2-C ) :   1.0566 B(  0-C ,  4-H ) :   0.9191
B(  1-O ,  3-C ) :   0.1099 B(  2-C ,  3-C ) :   1.8894 B(  2-C ,  5-H ) :   0.9285
B(  3-C ,  6-H ) :   0.9289 B(  3-C ,  7-H ) :   0.9456

-----------------------------------------------------------------------------
         ABSORPTION SPECTRUM VIA TRANSITION ELECTRIC DIPOLE MOMENTS
-----------------------------------------------------------------------------
State   Energy    Wavelength  fosc         T2        TX        TY        TZ
        (cm-1)      (nm)                 (au**2)    (au)      (au)      (au)
-----------------------------------------------------------------------------
   1   22808.5    438.4   0.000073487   0.00106   0.03026   0.00904   0.00795

FINAL SINGLE POINT ENERGY      -191.565465646533

DIPOLE MOMENT
-------------
                                X             Y             Z
Electronic contribution:     -1.59147      -1.42176      -0.04482
Nuclear contribution   :      2.04122       2.65092      -0.01708
                        -----------------------------------------
Total Dipole Moment    :      0.44974       1.22916      -0.06190
                        -----------------------------------------
Magnitude (a.u.)       :      1.31032
Magnitude (Debye)      :      3.33057

Rotational constants in cm-1:     0.778051     0.197611     0.158341
Rotational constants in MHz : 23325.388922  5924.215897  4746.956504

                             ****ORCA TERMINATED NORMALLY****
TOTAL RUN TIME: 0 days 0 hours 1 minutes 0 seconds 811 msec
