                         Program Version 5.0.3 -  RELEASE  -
|  1> ! B3LYP 6-31G
|  2> !TightSCF
|  3> %scf
|  4>  ConvForced true
|  5>  convergence tight
|  6>  MaxIter 500
|  7> end
|  8>
|  9> %tddft
| 10>  nroots 1
| 11> end
| 12>
| 13> # 	15731
| 14> * xyz 0 1
| 15> 		C   -1.261660  -0.303869  -0.035281
| 16> 		O   -1.704687  -1.101871   0.830066
| 17> 		C   -0.012663   0.520164   0.153616
| 18> 		C    1.154728   0.078634  -0.169918
| 19> 		H   -1.638807  -0.242975  -0.935287
| 20> 		H   -0.054538   1.462793   0.673551
| 21> 		H    1.373673  -0.945243  -0.550693
| 22> 		H    2.160438   0.512034   0.000146
| 23> *
| 24>
| 25>                          ****END OF INPUT****

CARTESIAN COORDINATES (ANGSTROEM)
---------------------------------
  C     -1.261660   -0.303869   -0.035281
  O     -1.704687   -1.101871    0.830066
  C     -0.012663    0.520164    0.153616
  C      1.154728    0.078634   -0.169918
  H     -1.638807   -0.242975   -0.935287
  H     -0.054538    1.462793    0.673551
  H      1.373673   -0.945243   -0.550693
  H      2.160438    0.512034    0.000146

 Total Charge           Charge          ....    0
 Multiplicity           Mult            ....    1
 Number of Electrons    NEL             ....   30
 Basis Dimension        Dim             ....   44

ORBITAL ENERGIES
----------------

  NO   OCC          E(Eh)            E(eV)
   0   2.0000     -19.159926      -521.3681
   1   2.0000     -10.280304      -279.7413
   2   2.0000     -10.200545      -277.5709
   3   2.0000     -10.197273      -277.4819
   4   2.0000      -1.048638       -28.5349
   5   2.0000      -0.805771       -21.9262
   6   2.0000      -0.666655       -18.1406
   7   2.0000      -0.580279       -15.7902
   8   2.0000      -0.499345       -13.5879
   9   2.0000      -0.474010       -12.8985
  10   2.0000      -0.435631       -11.8541
  11   2.0000      -0.374516       -10.1911
  12   2.0000      -0.365773        -9.9532
  13   2.0000      -0.293179        -7.9778
  14   2.0000      -0.259863        -7.0712
  15   0.0000      -0.051415        -1.3991
  16   0.0000       0.005085         0.1384
  17   0.0000       0.122440         3.3318
  18   0.0000       0.129543         3.5250
  19   0.0000       0.149066         4.0563

MULLIKEN ATOMIC CHARGES
-----------------------
   0 C :    0.185474
   1 O :   -0.367416
   2 C :   -0.130534
   3 C :   -0.276907
   4 H :    0.136840
   5 H :    0.163529
   6 H :    0.139885
   7 H :    0.149129
Sum of atomic charges:    0.0000000

LOEWDIN ATOMIC CHARGES
----------------------
   0 C :    0.143116
   1 O :   -0.231435
   2 C :   -0.163927
   3 C :   -0.206817
   4 H :    0.089768
   5 H :    0.137212
   6 H :    0.112222
   7 H :    0.119862

  Mayer bond orders larger than 0.100000
B(  0-C ,  1-O ) :   1.9297 B(  0-C ,  2-C ) :   0.9194 B(  0-C ,  4-H ) :   0.8970
B(  2-C ,  3-C ) :   1.9699 B(  2-C ,  5-H ) :   0.9259 B(  3-C ,  6-H ) :   0.9478
B(  3-C ,  7-H ) :   0.9390

-----------------------------------------------------------------------------
         ABSORPTION SPECTRUM VIA TRANSITION ELECTRIC DIPOLE MOMENTS
-----------------------------------------------------------------------------
State   Energy    Wavelength  fosc         T2        TX        TY        TZ
        (cm-1)      (nm)                 (au**2)    (au)      (au)      (au)
-----------------------------------------------------------------------------
   1   29774.4    335.9   0.000037654   0.00042  -0.00356   0.01618  -0.01192

FINAL SINGLE POINT ENERGY      -191.572817580582

DIPOLE MOMENT
-------------
                                X             Y             Z
Electronic contribution:     -2.94068      -0.93678       0.90661
Nuclear contribution   :      3.50635       1.61501      -1.54556
                        -----------------------------------------
Total Dipole Moment    :      0.56568       0.67822      -0.63895
                        -----------------------------------------
Magnitude (a.u.)       :      1.09006
Magnitude (Debye)      :      2.77071

Rotational constants in cm-1:     0.982891     0.165892     0.157262
Rotational constants in MHz : 29466.335494  4973.328346  4714.583111

                             ****ORCA TERMINATED NORMALLY****
TOTAL RUN TIME: 0 days 0 hours 0 minutes 58 seconds 882 msec
