                         Program Version 5.0.3 -  RELEASE  -
|  1> ! B3LYP 6-31G
|  2> !TightSCF
|  3> %scf
|  4>  ConvForced true
|  5>  convergence tight
|  6>  MaxIter 500
|  7> end
|  8>
|  9> %tddft
| 10>  nroots 1
| 11> end
| 12>
| 13> # 	29560
| 14> * xyz 0 1
| 15> 		C   -0.581868  -0.421189   0.100693
| 16> 		O   -0.578387  -1.626028  -0.058970
| 17> 		C    0.599683   0.384193  -0.048002
| 18> 		C    1.872312  -0.088167   0.008809
| 19> 		H   -1.647454   0.001871   0.110754
| 20> 		H    0.570062   1.438461  -0.235957
| 21> 		H    1.838739  -1.296901   0.361547
| 22> 		H    2.840215   0.374394  -0.054386
| 23> *
| 24>
| 25>                          ****END OF INPUT****

CARTESIAN COORDINATES (ANGSTROEM)
---------------------------------
  C     -0.581868   -0.421189    0.100693
  O     -0.578387   -1.626028   -0.058970
  C      0.599683    0.384193   -0.048002
  C      1.872312   -0.088167    0.008809
  H     -1.647454    0.001871    0.110754
  H      0.570062    1.438461   -0.235957
  H      1.838739   -1.296901    0.361547
  H      2.840215    0.374394   -0.054386

 Total Charge           Charge          ....    0
 Multiplicity           Mult            ....    1
 Number of Electrons    NEL             ....   30
 Basis Dimension        Dim             ....   44

ORBITAL ENERGIES
----------------

  NO   OCC          E(Eh)            E(eV)
   0   2.0000     -19.144708      -520.9540
   1   2.0000     -10.279567      -279.7212
   2   2.0000     -10.224928      -278.2344
   3   2.0000     -10.206188      -277.7245
   4   2.0000      -1.068308       -29.0701
   5   2.0000      -0.797564       -21.7028
   6   2.0000      -0.655836       -17.8462
   7   2.0000      -0.543732       -14.7957
   8   2.0000      -0.518903       -14.1201
   9   2.0000      -0.453920       -12.3518
  10   2.0000      -0.423227       -11.5166
  11   2.0000      -0.403610       -10.9828
  12   2.0000      -0.352737        -9.5985
  13   2.0000      -0.285301        -7.7634
  14   2.0000      -0.253840        -6.9073
  15   0.0000      -0.072883        -1.9832
  16   0.0000       0.056600         1.5402
  17   0.0000       0.098551         2.6817
  18   0.0000       0.103186         2.8078
  19   0.0000       0.152397         4.1469

MULLIKEN ATOMIC CHARGES
-----------------------
   0 C :    0.159282
   1 O :   -0.367311
   2 C :   -0.111057
   3 C :   -0.254107
   4 H :    0.115440
   5 H :    0.143973
   6 H :    0.149350
   7 H :    0.164429
Sum of atomic charges:    0.0000000

LOEWDIN ATOMIC CHARGES
----------------------
   0 C :    0.107021
   1 O :   -0.239578
   2 C :   -0.185757
   3 C :   -0.152541
   4 H :    0.085612
   5 H :    0.125033
   6 H :    0.126151
   7 H :    0.134058

  Mayer bond orders larger than 0.100000
B(  0-C ,  1-O ) :   1.8480 B(  0-C ,  2-C ) :   0.9969 B(  0-C ,  4-H ) :   0.8920
B(  1-O ,  3-C ) :   0.1117 B(  2-C ,  3-C ) :   1.8327 B(  2-C ,  5-H ) :   0.9328
B(  3-C ,  6-H ) :   0.9392 B(  3-C ,  7-H ) :   0.9327

-----------------------------------------------------------------------------
         ABSORPTION SPECTRUM VIA TRANSITION ELECTRIC DIPOLE MOMENTS
-----------------------------------------------------------------------------
State   Energy    Wavelength  fosc         T2        TX        TY        TZ
        (cm-1)      (nm)                 (au**2)    (au)      (au)      (au)
-----------------------------------------------------------------------------
   1   26683.0    374.8   0.000097772   0.00121  -0.00212   0.01465  -0.03142

FINAL SINGLE POINT ENERGY      -191.590263783862

DIPOLE MOMENT
-------------
                                X             Y             Z
Electronic contribution:     -1.75057      -1.23015      -0.06616
Nuclear contribution   :      2.22263       2.27590       0.17127
                        -----------------------------------------
Total Dipole Moment    :      0.47206       1.04576       0.10511
                        -----------------------------------------
Magnitude (a.u.)       :      1.15217
Magnitude (Debye)      :      2.92859

Rotational constants in cm-1:     0.777795     0.206567     0.164522
Rotational constants in MHz : 23317.711516  6192.708492  4932.250440

                             ****ORCA TERMINATED NORMALLY****
TOTAL RUN TIME: 0 days 0 hours 1 minutes 1 seconds 219 msec
