                         Program Version 5.0.3 -  RELEASE  -
|  1> ! B3LYP 6-31G
|  2> !TightSCF
|  3> %scf
|  4>  ConvForced true
|  5>  convergence tight
|  6>  MaxIter 500
|  7> end
|  8>
|  9> %tddft
| 10>  nroots 1
| 11> end
| 12>
| 13> # 	19747
| 14> * xyz 0 1
| 15> 		C   -1.262624  -0.331532   0.032639
| 16> 		O   -1.719486  -1.141239   0.840394
| 17> 		C    0.046474   0.437358   0.293202
| 18> 		C    1.221037   0.078494  -0.126147
| 19> 		H   -1.701583  -0.266742  -1.051522
| 20> 		H   -0.120504   1.378479   0.803541
| 21> 		H    1.313178  -0.808362  -0.787195
| 22> 		H    2.170313   0.633236  -0.100925
| 23> *
| 24>
| 25>                          ****END OF INPUT****

CARTESIAN COORDINATES (ANGSTROEM)
---------------------------------
  C     -1.262624   -0.331532    0.032639
  O     -1.719486   -1.141239    0.840394
  C      0.046474    0.437358    0.293202
  C      1.221037    0.078494   -0.126147
  H     -1.701583   -0.266742   -1.051522
  H     -0.120504    1.378479    0.803541
  H      1.313178   -0.808362   -0.787195
  H      2.170313    0.633236   -0.100925

 Total Charge           Charge          ....    0
 Multiplicity           Mult            ....    1
 Number of Electrons    NEL             ....   30
 Basis Dimension        Dim             ....   44

ORBITAL ENERGIES
----------------

  NO   OCC          E(Eh)            E(eV)
   0   2.0000     -19.163802      -521.4736
   1   2.0000     -10.297383      -280.2060
   2   2.0000     -10.205862      -277.7156
   3   2.0000     -10.199515      -277.5429
   4   2.0000      -1.067658       -29.0525
   5   2.0000      -0.799953       -21.7678
   6   2.0000      -0.645188       -17.5565
   7   2.0000      -0.560689       -15.2571
   8   2.0000      -0.489575       -13.3220
   9   2.0000      -0.473479       -12.8840
  10   2.0000      -0.438771       -11.9396
  11   2.0000      -0.389030       -10.5860
  12   2.0000      -0.370854       -10.0914
  13   2.0000      -0.291975        -7.9450
  14   2.0000      -0.258935        -7.0460
  15   0.0000      -0.047613        -1.2956
  16   0.0000       0.002607         0.0709
  17   0.0000       0.108702         2.9579
  18   0.0000       0.120181         3.2703
  19   0.0000       0.130199         3.5429

MULLIKEN ATOMIC CHARGES
-----------------------
   0 C :    0.171838
   1 O :   -0.348126
   2 C :   -0.117419
   3 C :   -0.270817
   4 H :    0.119339
   5 H :    0.158520
   6 H :    0.134585
   7 H :    0.152080
Sum of atomic charges:   -0.0000000

LOEWDIN ATOMIC CHARGES
----------------------
   0 C :    0.130865
   1 O :   -0.217575
   2 C :   -0.160397
   3 C :   -0.205452
   4 H :    0.082946
   5 H :    0.130100
   6 H :    0.113983
   7 H :    0.125529

  Mayer bond orders larger than 0.100000
B(  0-C ,  1-O ) :   1.9123 B(  0-C ,  2-C ) :   0.8949 B(  0-C ,  4-H ) :   0.8613
B(  2-C ,  3-C ) :   1.9721 B(  2-C ,  5-H ) :   0.9255 B(  3-C ,  6-H ) :   0.9497
B(  3-C ,  7-H ) :   0.9389

-----------------------------------------------------------------------------
         ABSORPTION SPECTRUM VIA TRANSITION ELECTRIC DIPOLE MOMENTS
-----------------------------------------------------------------------------
State   Energy    Wavelength  fosc         T2        TX        TY        TZ
        (cm-1)      (nm)                 (au**2)    (au)      (au)      (au)
-----------------------------------------------------------------------------
   1   30886.5    323.8   0.000365297   0.00389   0.01651   0.00397   0.06004

FINAL SINGLE POINT ENERGY      -191.579977422332

DIPOLE MOMENT
-------------
                                X             Y             Z
Electronic contribution:     -2.70148      -1.14416       1.37803
Nuclear contribution   :      3.26545       1.87659      -2.04119
                        -----------------------------------------
Total Dipole Moment    :      0.56397       0.73243      -0.66316
                        -----------------------------------------
Magnitude (a.u.)       :      1.13767
Magnitude (Debye)      :      2.89173

Rotational constants in cm-1:     1.025224     0.157910     0.153395
Rotational constants in MHz : 30735.436336  4734.035675  4598.664050

                             ****ORCA TERMINATED NORMALLY****
TOTAL RUN TIME: 0 days 0 hours 0 minutes 53 seconds 604 msec
