                         Program Version 5.0.3 -  RELEASE  -
|  1> ! B3LYP 6-31G
|  2> !TightSCF
|  3> %scf
|  4>  ConvForced true
|  5>  convergence tight
|  6>  MaxIter 500
|  7> end
|  8>
|  9> %tddft
| 10>  nroots 1
| 11> end
| 12>
| 13> # 	16914
| 14> * xyz 0 1
| 15> 		C   -1.201336  -0.269019   0.051866
| 16> 		O   -1.932153  -0.792436   0.891717
| 17> 		C    0.028135   0.470977   0.314103
| 18> 		C    1.202424   0.206232  -0.212353
| 19> 		H   -1.406817  -0.548388  -1.007177
| 20> 		H   -0.201031   1.168089   0.850174
| 21> 		H    1.358255  -0.874948  -0.794234
| 22> 		H    2.151503   0.632714  -0.076522
| 23> *
| 24>
| 25>                          ****END OF INPUT****

CARTESIAN COORDINATES (ANGSTROEM)
---------------------------------
  C     -1.201336   -0.269019    0.051866
  O     -1.932153   -0.792436    0.891717
  C      0.028135    0.470977    0.314103
  C      1.202424    0.206232   -0.212353
  H     -1.406817   -0.548388   -1.007177
  H     -0.201031    1.168089    0.850174
  H      1.358255   -0.874948   -0.794234
  H      2.151503    0.632714   -0.076522

 Total Charge           Charge          ....    0
 Multiplicity           Mult            ....    1
 Number of Electrons    NEL             ....   30
 Basis Dimension        Dim             ....   44

ORBITAL ENERGIES
----------------

  NO   OCC          E(Eh)            E(eV)
   0   2.0000     -19.153906      -521.2043
   1   2.0000     -10.280274      -279.7405
   2   2.0000     -10.219105      -278.0760
   3   2.0000     -10.193122      -277.3690
   4   2.0000      -1.062570       -28.9140
   5   2.0000      -0.816539       -22.2192
   6   2.0000      -0.664487       -18.0816
   7   2.0000      -0.586118       -15.9491
   8   2.0000      -0.501821       -13.6552
   9   2.0000      -0.482204       -13.1214
  10   2.0000      -0.430946       -11.7266
  11   2.0000      -0.388206       -10.5636
  12   2.0000      -0.374898       -10.2015
  13   2.0000      -0.294557        -8.0153
  14   2.0000      -0.254959        -6.9378
  15   0.0000      -0.060014        -1.6331
  16   0.0000       0.019000         0.5170
  17   0.0000       0.094178         2.5627
  18   0.0000       0.138753         3.7757
  19   0.0000       0.146959         3.9990

MULLIKEN ATOMIC CHARGES
-----------------------
   0 C :    0.144333
   1 O :   -0.362334
   2 C :   -0.049820
   3 C :   -0.261989
   4 H :    0.113497
   5 H :    0.135519
   6 H :    0.121480
   7 H :    0.159314
Sum of atomic charges:   -0.0000000

LOEWDIN ATOMIC CHARGES
----------------------
   0 C :    0.125030
   1 O :   -0.232375
   2 C :   -0.163832
   3 C :   -0.165674
   4 H :    0.078850
   5 H :    0.122877
   6 H :    0.108557
   7 H :    0.126567

  Mayer bond orders larger than 0.100000
B(  0-C ,  1-O ) :   1.8899 B(  0-C ,  2-C ) :   0.9505 B(  0-C ,  4-H ) :   0.8886
B(  2-C ,  3-C ) :   1.9150 B(  2-C ,  5-H ) :   0.9378 B(  3-C ,  6-H ) :   0.9499
B(  3-C ,  7-H ) :   0.9349

-----------------------------------------------------------------------------
         ABSORPTION SPECTRUM VIA TRANSITION ELECTRIC DIPOLE MOMENTS
-----------------------------------------------------------------------------
State   Energy    Wavelength  fosc         T2        TX        TY        TZ
        (cm-1)      (nm)                 (au**2)    (au)      (au)      (au)
-----------------------------------------------------------------------------
   1   28915.2    345.8   0.000505094   0.00575   0.00050  -0.02490  -0.07163

FINAL SINGLE POINT ENERGY      -191.550998669707

DIPOLE MOMENT
-------------
                                X             Y             Z
Electronic contribution:     -2.77703      -0.30886       1.40088
Nuclear contribution   :      3.68065       0.83935      -1.96412
                        -----------------------------------------
Total Dipole Moment    :      0.90362       0.53049      -0.56323
                        -----------------------------------------
Magnitude (a.u.)       :      1.18962
Magnitude (Debye)      :      3.02376

Rotational constants in cm-1:     1.344387     0.154755     0.149401
Rotational constants in MHz : 40303.698331  4639.445301  4478.930026

                             ****ORCA TERMINATED NORMALLY****
TOTAL RUN TIME: 0 days 0 hours 1 minutes 1 seconds 341 msec
