                         Program Version 5.0.3 -  RELEASE  -
|  1> ! B3LYP 6-31G
|  2> !TightSCF
|  3> %scf
|  4>  ConvForced true
|  5>  convergence tight
|  6>  MaxIter 500
|  7> end
|  8>
|  9> %tddft
| 10>  nroots 1
| 11> end
| 12>
| 13> # 	3666
| 14> * xyz 0 1
| 15> 		C   -1.175552  -0.329138  -0.004393
| 16> 		O   -1.426776  -1.303486  -0.628547
| 17> 		C    0.024820   0.538947  -0.110306
| 18> 		C    1.187513   0.008160   0.168263
| 19> 		H   -1.996705   0.011149   0.891287
| 20> 		H   -0.071857   1.536381  -0.692449
| 21> 		H    1.375881  -0.938181   0.517731
| 22> 		H    2.089054   0.534251  -0.112296
| 23> *
| 24>
| 25>                          ****END OF INPUT****

CARTESIAN COORDINATES (ANGSTROEM)
---------------------------------
  C     -1.175552   -0.329138   -0.004393
  O     -1.426776   -1.303486   -0.628547
  C      0.024820    0.538947   -0.110306
  C      1.187513    0.008160    0.168263
  H     -1.996705    0.011149    0.891287
  H     -0.071857    1.536381   -0.692449
  H      1.375881   -0.938181    0.517731
  H      2.089054    0.534251   -0.112296

 Total Charge           Charge          ....    0
 Multiplicity           Mult            ....    1
 Number of Electrons    NEL             ....   30
 Basis Dimension        Dim             ....   44

ORBITAL ENERGIES
----------------

  NO   OCC          E(Eh)            E(eV)
   0   2.0000     -19.163147      -521.4557
   1   2.0000     -10.295236      -280.1476
   2   2.0000     -10.212187      -277.8877
   3   2.0000     -10.194123      -277.3962
   4   2.0000      -1.097025       -29.8516
   5   2.0000      -0.808449       -21.9990
   6   2.0000      -0.650929       -17.7127
   7   2.0000      -0.546691       -14.8762
   8   2.0000      -0.500261       -13.6128
   9   2.0000      -0.466271       -12.6879
  10   2.0000      -0.447964       -12.1897
  11   2.0000      -0.396139       -10.7795
  12   2.0000      -0.388686       -10.5767
  13   2.0000      -0.292670        -7.9639
  14   2.0000      -0.253962        -6.9107
  15   0.0000      -0.037964        -1.0330
  16   0.0000       0.001441         0.0392
  17   0.0000       0.099336         2.7031
  18   0.0000       0.107419         2.9230
  19   0.0000       0.142939         3.8896

MULLIKEN ATOMIC CHARGES
-----------------------
   0 C :    0.157528
   1 O :   -0.318847
   2 C :   -0.111521
   3 C :   -0.259056
   4 H :    0.066221
   5 H :    0.166882
   6 H :    0.157545
   7 H :    0.141248
Sum of atomic charges:   -0.0000000

LOEWDIN ATOMIC CHARGES
----------------------
   0 C :    0.125044
   1 O :   -0.194042
   2 C :   -0.162952
   3 C :   -0.195515
   4 H :    0.042616
   5 H :    0.139832
   6 H :    0.124300
   7 H :    0.120717

  Mayer bond orders larger than 0.100000
B(  0-C ,  1-O ) :   1.9412 B(  0-C ,  2-C ) :   0.9028 B(  0-C ,  4-H ) :   0.8486
B(  2-C ,  3-C ) :   1.9488 B(  2-C ,  5-H ) :   0.9203 B(  3-C ,  6-H ) :   0.9442
B(  3-C ,  7-H ) :   0.9461

-----------------------------------------------------------------------------
         ABSORPTION SPECTRUM VIA TRANSITION ELECTRIC DIPOLE MOMENTS
-----------------------------------------------------------------------------
State   Energy    Wavelength  fosc         T2        TX        TY        TZ
        (cm-1)      (nm)                 (au**2)    (au)      (au)      (au)
-----------------------------------------------------------------------------
   1   32925.4    303.7   0.000384505   0.00384  -0.05854   0.01529  -0.01354

FINAL SINGLE POINT ENERGY      -191.557381328930

DIPOLE MOMENT
-------------
                                X             Y             Z
Electronic contribution:     -2.10918      -1.45195      -0.87508
Nuclear contribution   :      2.69864       2.20164       1.14922
                        -----------------------------------------
Total Dipole Moment    :      0.58947       0.74969       0.27414
                        -----------------------------------------
Magnitude (a.u.)       :      0.99230
Magnitude (Debye)      :      2.52223

Rotational constants in cm-1:     0.848966     0.186977     0.165592
Rotational constants in MHz : 25451.360196  5605.430536  4964.317624

                             ****ORCA TERMINATED NORMALLY****
TOTAL RUN TIME: 0 days 0 hours 1 minutes 1 seconds 796 msec
