                         Program Version 5.0.3 -  RELEASE  -
|  1> ! B3LYP 6-31G
|  2> !TightSCF
|  3> %scf
|  4>  ConvForced true
|  5>  convergence tight
|  6>  MaxIter 500
|  7> end
|  8>
|  9> %tddft
| 10>  nroots 1
| 11> end
| 12>
| 13> # 	21730
| 14> * xyz 0 1
| 15> 		C   -0.571705  -0.431327  -0.023356
| 16> 		O   -0.568334  -1.629865   0.026660
| 17> 		C    0.622835   0.455598   0.032533
| 18> 		C    1.819558  -0.167246  -0.016134
| 19> 		H   -1.586581   0.002809  -0.175207
| 20> 		H    0.425789   1.591455  -0.050113
| 21> 		H    2.063084  -1.131459  -0.347104
| 22> 		H    2.789585   0.376832   0.251632
| 23> *
| 24>
| 25>                          ****END OF INPUT****

CARTESIAN COORDINATES (ANGSTROEM)
---------------------------------
  C     -0.571705   -0.431327   -0.023356
  O     -0.568334   -1.629865    0.026660
  C      0.622835    0.455598    0.032533
  C      1.819558   -0.167246   -0.016134
  H     -1.586581    0.002809   -0.175207
  H      0.425789    1.591455   -0.050113
  H      2.063084   -1.131459   -0.347104
  H      2.789585    0.376832    0.251632

 Total Charge           Charge          ....    0
 Multiplicity           Mult            ....    1
 Number of Electrons    NEL             ....   30
 Basis Dimension        Dim             ....   44

ORBITAL ENERGIES
----------------

  NO   OCC          E(Eh)            E(eV)
   0   2.0000     -19.142983      -520.9070
   1   2.0000     -10.273111      -279.5456
   2   2.0000     -10.216547      -278.0064
   3   2.0000     -10.214916      -277.9620
   4   2.0000      -1.073757       -29.2184
   5   2.0000      -0.794935       -21.6313
   6   2.0000      -0.653566       -17.7844
   7   2.0000      -0.549410       -14.9502
   8   2.0000      -0.505880       -13.7657
   9   2.0000      -0.454774       -12.3750
  10   2.0000      -0.420396       -11.4396
  11   2.0000      -0.404670       -11.0116
  12   2.0000      -0.381570       -10.3831
  13   2.0000      -0.280058        -7.6208
  14   2.0000      -0.249355        -6.7853
  15   0.0000      -0.070602        -1.9212
  16   0.0000       0.053134         1.4458
  17   0.0000       0.093622         2.5476
  18   0.0000       0.128014         3.4834
  19   0.0000       0.150532         4.0962

MULLIKEN ATOMIC CHARGES
-----------------------
   0 C :    0.166232
   1 O :   -0.361591
   2 C :   -0.117250
   3 C :   -0.257468
   4 H :    0.096954
   5 H :    0.153503
   6 H :    0.180334
   7 H :    0.139285
Sum of atomic charges:    0.0000000

LOEWDIN ATOMIC CHARGES
----------------------
   0 C :    0.102280
   1 O :   -0.235879
   2 C :   -0.173303
   3 C :   -0.151606
   4 H :    0.070326
   5 H :    0.133109
   6 H :    0.136598
   7 H :    0.118474

  Mayer bond orders larger than 0.100000
B(  0-C ,  1-O ) :   1.8783 B(  0-C ,  2-C ) :   0.9656 B(  0-C ,  4-H ) :   0.8891
B(  1-O ,  3-C ) :   0.1037 B(  2-C ,  3-C ) :   1.8599 B(  2-C ,  5-H ) :   0.9259
B(  3-C ,  6-H ) :   0.9294 B(  3-C ,  7-H ) :   0.9423

-----------------------------------------------------------------------------
         ABSORPTION SPECTRUM VIA TRANSITION ELECTRIC DIPOLE MOMENTS
-----------------------------------------------------------------------------
State   Energy    Wavelength  fosc         T2        TX        TY        TZ
        (cm-1)      (nm)                 (au**2)    (au)      (au)      (au)
-----------------------------------------------------------------------------
   1   26704.8    374.5   0.000081421   0.00100   0.01475   0.01863  -0.02095

FINAL SINGLE POINT ENERGY      -191.597876914473

DIPOLE MOMENT
-------------
                                X             Y             Z
Electronic contribution:     -1.81910      -1.59888       0.18401
Nuclear contribution   :      2.30628       2.57447      -0.30188
                        -----------------------------------------
Total Dipole Moment    :      0.48718       0.97559      -0.11787
                        -----------------------------------------
Magnitude (a.u.)       :      1.09682
Magnitude (Debye)      :      2.78789

Rotational constants in cm-1:     0.728060     0.213095     0.165664
Rotational constants in MHz : 21826.679864  6388.419620  4966.480955

                             ****ORCA TERMINATED NORMALLY****
TOTAL RUN TIME: 0 days 0 hours 0 minutes 53 seconds 683 msec
