                         Program Version 5.0.3 -  RELEASE  -
|  1> ! B3LYP 6-31G
|  2> !TightSCF
|  3> %scf
|  4>  ConvForced true
|  5>  convergence tight
|  6>  MaxIter 500
|  7> end
|  8>
|  9> %tddft
| 10>  nroots 1
| 11> end
| 12>
| 13> # 	5011
| 14> * xyz 0 1
| 15> 		C   -1.179358  -0.365827   0.021372
| 16> 		O   -1.663034  -1.185697   0.814703
| 17> 		C   -0.022214   0.478620   0.248616
| 18> 		C    1.268992   0.088207  -0.178465
| 19> 		H   -1.784568  -0.102235  -0.925000
| 20> 		H   -0.230558   1.314041   0.710991
| 21> 		H    1.405225  -0.942090  -0.653454
| 22> 		H    2.164575   0.724703  -0.062281
| 23> *
| 24>
| 25>                          ****END OF INPUT****

CARTESIAN COORDINATES (ANGSTROEM)
---------------------------------
  C     -1.179358   -0.365827    0.021372
  O     -1.663034   -1.185697    0.814703
  C     -0.022214    0.478620    0.248616
  C      1.268992    0.088207   -0.178465
  H     -1.784568   -0.102235   -0.925000
  H     -0.230558    1.314041    0.710991
  H      1.405225   -0.942090   -0.653454
  H      2.164575    0.724703   -0.062281

 Total Charge           Charge          ....    0
 Multiplicity           Mult            ....    1
 Number of Electrons    NEL             ....   30
 Basis Dimension        Dim             ....   44

ORBITAL ENERGIES
----------------

  NO   OCC          E(Eh)            E(eV)
   0   2.0000     -19.157936      -521.3139
   1   2.0000     -10.287776      -279.9446
   2   2.0000     -10.220456      -278.1127
   3   2.0000     -10.206791      -277.7409
   4   2.0000      -1.058891       -28.8139
   5   2.0000      -0.795223       -21.6391
   6   2.0000      -0.659217       -17.9382
   7   2.0000      -0.567577       -15.4446
   8   2.0000      -0.500617       -13.6225
   9   2.0000      -0.457827       -12.4581
  10   2.0000      -0.435690       -11.8557
  11   2.0000      -0.400831       -10.9072
  12   2.0000      -0.372414       -10.1339
  13   2.0000      -0.274472        -7.4688
  14   2.0000      -0.257573        -7.0089
  15   0.0000      -0.043672        -1.1884
  16   0.0000      -0.025223        -0.6864
  17   0.0000       0.113720         3.0945
  18   0.0000       0.122845         3.3428
  19   0.0000       0.139516         3.7964

MULLIKEN ATOMIC CHARGES
-----------------------
   0 C :    0.150558
   1 O :   -0.356510
   2 C :   -0.101718
   3 C :   -0.263351
   4 H :    0.114177
   5 H :    0.159871
   6 H :    0.147496
   7 H :    0.149477
Sum of atomic charges:    0.0000000

LOEWDIN ATOMIC CHARGES
----------------------
   0 C :    0.126271
   1 O :   -0.228546
   2 C :   -0.166002
   3 C :   -0.193866
   4 H :    0.078447
   5 H :    0.133506
   6 H :    0.124444
   7 H :    0.125746

  Mayer bond orders larger than 0.100000
B(  0-C ,  1-O ) :   1.9151 B(  0-C ,  2-C ) :   0.9338 B(  0-C ,  4-H ) :   0.8702
B(  2-C ,  3-C ) :   1.9285 B(  2-C ,  5-H ) :   0.9318 B(  3-C ,  6-H ) :   0.9464
B(  3-C ,  7-H ) :   0.9413

-----------------------------------------------------------------------------
         ABSORPTION SPECTRUM VIA TRANSITION ELECTRIC DIPOLE MOMENTS
-----------------------------------------------------------------------------
State   Energy    Wavelength  fosc         T2        TX        TY        TZ
        (cm-1)      (nm)                 (au**2)    (au)      (au)      (au)
-----------------------------------------------------------------------------
   1   31023.2    322.3   0.000426276   0.00452   0.06341  -0.02243  -0.00059

FINAL SINGLE POINT ENERGY      -191.567544140870

DIPOLE MOMENT
-------------
                                X             Y             Z
Electronic contribution:     -2.43488      -1.17120       1.18976
Nuclear contribution   :      3.06222       1.96059      -1.74702
                        -----------------------------------------
Total Dipole Moment    :      0.62734       0.78939      -0.55726
                        -----------------------------------------
Magnitude (a.u.)       :      1.15205
Magnitude (Debye)      :      2.92828

Rotational constants in cm-1:     0.989025     0.161166     0.152583
Rotational constants in MHz : 29650.213483  4831.650045  4574.335673

                             ****ORCA TERMINATED NORMALLY****
TOTAL RUN TIME: 0 days 0 hours 0 minutes 57 seconds 194 msec
