                         Program Version 5.0.3 -  RELEASE  -
|  1> ! B3LYP 6-31G
|  2> !TightSCF
|  3> %scf
|  4>  ConvForced true
|  5>  convergence tight
|  6>  MaxIter 500
|  7> end
|  8>
|  9> %tddft
| 10>  nroots 1
| 11> end
| 12>
| 13> # 	5143
| 14> * xyz 0 1
| 15> 		C   -1.120774  -0.302736  -0.018989
| 16> 		O   -1.297831  -1.461304  -0.372659
| 17> 		C    0.000762   0.528165  -0.115087
| 18> 		C    1.320801   0.051672   0.097789
| 19> 		H   -2.060853   0.109593   0.385804
| 20> 		H   -0.249816   1.524484  -0.288366
| 21> 		H    1.258662  -1.034138   0.221878
| 22> 		H    2.172139   0.597623   0.082939
| 23> *
| 24>
| 25>                          ****END OF INPUT****

CARTESIAN COORDINATES (ANGSTROEM)
---------------------------------
  C     -1.120774   -0.302736   -0.018989
  O     -1.297831   -1.461304   -0.372659
  C      0.000762    0.528165   -0.115087
  C      1.320801    0.051672    0.097789
  H     -2.060853    0.109593    0.385804
  H     -0.249816    1.524484   -0.288366
  H      1.258662   -1.034138    0.221878
  H      2.172139    0.597623    0.082939

 Total Charge           Charge          ....    0
 Multiplicity           Mult            ....    1
 Number of Electrons    NEL             ....   30
 Basis Dimension        Dim             ....   44

ORBITAL ENERGIES
----------------

  NO   OCC          E(Eh)            E(eV)
   0   2.0000     -19.140779      -520.8471
   1   2.0000     -10.267808      -279.4013
   2   2.0000     -10.218970      -278.0723
   3   2.0000     -10.209487      -277.8143
   4   2.0000      -1.057225       -28.7685
   5   2.0000      -0.803394       -21.8615
   6   2.0000      -0.679583       -18.4924
   7   2.0000      -0.547640       -14.9020
   8   2.0000      -0.527360       -14.3502
   9   2.0000      -0.455882       -12.4052
  10   2.0000      -0.431350       -11.7376
  11   2.0000      -0.403562       -10.9815
  12   2.0000      -0.378173       -10.2906
  13   2.0000      -0.279797        -7.6137
  14   2.0000      -0.248019        -6.7489
  15   0.0000      -0.074251        -2.0205
  16   0.0000       0.037845         1.0298
  17   0.0000       0.119009         3.2384
  18   0.0000       0.129158         3.5146
  19   0.0000       0.165503         4.5036

MULLIKEN ATOMIC CHARGES
-----------------------
   0 C :    0.126029
   1 O :   -0.374501
   2 C :   -0.086224
   3 C :   -0.243001
   4 H :    0.106197
   5 H :    0.145618
   6 H :    0.172321
   7 H :    0.153561
Sum of atomic charges:   -0.0000000

LOEWDIN ATOMIC CHARGES
----------------------
   0 C :    0.093823
   1 O :   -0.250328
   2 C :   -0.164298
   3 C :   -0.154026
   4 H :    0.078518
   5 H :    0.127227
   6 H :    0.139976
   7 H :    0.129107

  Mayer bond orders larger than 0.100000
B(  0-C ,  1-O ) :   1.8682 B(  0-C ,  2-C ) :   1.0048 B(  0-C ,  4-H ) :   0.8983
B(  1-O ,  3-C ) :   0.1036 B(  2-C ,  3-C ) :   1.8514 B(  2-C ,  5-H ) :   0.9297
B(  3-C ,  6-H ) :   0.9384 B(  3-C ,  7-H ) :   0.9423

-----------------------------------------------------------------------------
         ABSORPTION SPECTRUM VIA TRANSITION ELECTRIC DIPOLE MOMENTS
-----------------------------------------------------------------------------
State   Energy    Wavelength  fosc         T2        TX        TY        TZ
        (cm-1)      (nm)                 (au**2)    (au)      (au)      (au)
-----------------------------------------------------------------------------
   1   25618.5    390.3   0.000703842   0.00904   0.09434  -0.00242   0.01182

FINAL SINGLE POINT ENERGY      -191.598685305852

DIPOLE MOMENT
-------------
                                X             Y             Z
Electronic contribution:     -1.56553      -1.33015      -0.48758
Nuclear contribution   :      2.18909       2.36823       0.77457
                        -----------------------------------------
Total Dipole Moment    :      0.62356       1.03808       0.28700
                        -----------------------------------------
Magnitude (a.u.)       :      1.24451
Magnitude (Debye)      :      3.16329

Rotational constants in cm-1:     0.828627     0.192887     0.159693
Rotational constants in MHz : 24841.609784  5782.621688  4787.476031

                             ****ORCA TERMINATED NORMALLY****
TOTAL RUN TIME: 0 days 0 hours 1 minutes 0 seconds 129 msec
