                         Program Version 5.0.3 -  RELEASE  -
|  1> ! B3LYP 6-31G
|  2> !TightSCF
|  3> %scf
|  4>  ConvForced true
|  5>  convergence tight
|  6>  MaxIter 500
|  7> end
|  8>
|  9> %tddft
| 10>  nroots 1
| 11> end
| 12>
| 13> # 	17400
| 14> * xyz 0 1
| 15> 		C   -1.255379  -0.259548   0.031807
| 16> 		O   -1.198510  -1.497504   0.006263
| 17> 		C   -0.116602   0.501465  -0.024201
| 18> 		C    1.263848  -0.017643  -0.011744
| 19> 		H   -2.037335   0.344603  -0.044002
| 20> 		H   -0.132301   1.532644  -0.017002
| 21> 		H    1.424917  -1.109277   0.003414
| 22> 		H    2.062777   0.468019   0.092661
| 23> *
| 24>
| 25>                          ****END OF INPUT****

CARTESIAN COORDINATES (ANGSTROEM)
---------------------------------
  C     -1.255379   -0.259548    0.031807
  O     -1.198510   -1.497504    0.006263
  C     -0.116602    0.501465   -0.024201
  C      1.263848   -0.017643   -0.011744
  H     -2.037335    0.344603   -0.044002
  H     -0.132301    1.532644   -0.017002
  H      1.424917   -1.109277    0.003414
  H      2.062777    0.468019    0.092661

 Total Charge           Charge          ....    0
 Multiplicity           Mult            ....    1
 Number of Electrons    NEL             ....   30
 Basis Dimension        Dim             ....   44

ORBITAL ENERGIES
----------------

  NO   OCC          E(Eh)            E(eV)
   0   2.0000     -19.137445      -520.7563
   1   2.0000     -10.255384      -279.0632
   2   2.0000     -10.215641      -277.9817
   3   2.0000     -10.202152      -277.6147
   4   2.0000      -1.044255       -28.4156
   5   2.0000      -0.792833       -21.5741
   6   2.0000      -0.699827       -19.0433
   7   2.0000      -0.573815       -15.6143
   8   2.0000      -0.519588       -14.1387
   9   2.0000      -0.439351       -11.9553
  10   2.0000      -0.431832       -11.7507
  11   2.0000      -0.395646       -10.7661
  12   2.0000      -0.380146       -10.3443
  13   2.0000      -0.265914        -7.2359
  14   2.0000      -0.251677        -6.8485
  15   0.0000      -0.091536        -2.4908
  16   0.0000       0.063901         1.7388
  17   0.0000       0.128949         3.5089
  18   0.0000       0.136839         3.7236
  19   0.0000       0.184928         5.0321

MULLIKEN ATOMIC CHARGES
-----------------------
   0 C :    0.200001
   1 O :   -0.405822
   2 C :   -0.133949
   3 C :   -0.204063
   4 H :    0.112586
   5 H :    0.125169
   6 H :    0.171291
   7 H :    0.134787
Sum of atomic charges:   -0.0000000

LOEWDIN ATOMIC CHARGES
----------------------
   0 C :    0.093422
   1 O :   -0.248504
   2 C :   -0.169559
   3 C :   -0.126228
   4 H :    0.085646
   5 H :    0.118227
   6 H :    0.135762
   7 H :    0.111233

  Mayer bond orders larger than 0.100000
B(  0-C ,  1-O ) :   1.8061 B(  0-C ,  2-C ) :   1.1004 B(  0-C ,  4-H ) :   0.8947
B(  1-O ,  3-C ) :   0.1623 B(  2-C ,  3-C ) :   1.8096 B(  2-C ,  5-H ) :   0.9344
B(  3-C ,  6-H ) :   0.9412 B(  3-C ,  7-H ) :   0.9362

-----------------------------------------------------------------------------
         ABSORPTION SPECTRUM VIA TRANSITION ELECTRIC DIPOLE MOMENTS
-----------------------------------------------------------------------------
State   Energy    Wavelength  fosc         T2        TX        TY        TZ
        (cm-1)      (nm)                 (au**2)    (au)      (au)      (au)
-----------------------------------------------------------------------------
   1   22641.8    441.7   0.000004258   0.00006   0.00475   0.00624  -0.00065

FINAL SINGLE POINT ENERGY      -191.578893666653

DIPOLE MOMENT
-------------
                                X             Y             Z
Electronic contribution:     -1.94971      -1.37138       0.00642
Nuclear contribution   :      2.50540       2.48270       0.02723
                        -----------------------------------------
Total Dipole Moment    :      0.55568       1.11132       0.03364
                        -----------------------------------------
Magnitude (a.u.)       :      1.24296
Magnitude (Debye)      :      3.15935

Rotational constants in cm-1:     0.715956     0.215338     0.165637
Rotational constants in MHz : 21463.812143  6455.660589  4965.675141

                             ****ORCA TERMINATED NORMALLY****
TOTAL RUN TIME: 0 days 0 hours 1 minutes 1 seconds 550 msec
