                         Program Version 5.0.3 -  RELEASE  -
|  1> ! B3LYP 6-31G
|  2> !TightSCF
|  3> %scf
|  4>  ConvForced true
|  5>  convergence tight
|  6>  MaxIter 500
|  7> end
|  8>
|  9> %tddft
| 10>  nroots 1
| 11> end
| 12>
| 13> # 	22142
| 14> * xyz 0 1
| 15> 		C   -0.596991  -0.389927  -0.003838
| 16> 		O   -0.528020  -1.616495   0.004245
| 17> 		C    0.613021   0.371320  -0.025796
| 18> 		C    1.803635  -0.136427  -0.005882
| 19> 		H   -1.421677   0.280252   0.024020
| 20> 		H    0.355499   1.509990   0.214478
| 21> 		H    1.788775  -1.380437   0.121278
| 22> 		H    2.902604   0.375940   0.003371
| 23> *
| 24>
| 25>                          ****END OF INPUT****

CARTESIAN COORDINATES (ANGSTROEM)
---------------------------------
  C     -0.596991   -0.389927   -0.003838
  O     -0.528020   -1.616495    0.004245
  C      0.613021    0.371320   -0.025796
  C      1.803635   -0.136427   -0.005882
  H     -1.421677    0.280252    0.024020
  H      0.355499    1.509990    0.214478
  H      1.788775   -1.380437    0.121278
  H      2.902604    0.375940    0.003371

 Total Charge           Charge          ....    0
 Multiplicity           Mult            ....    1
 Number of Electrons    NEL             ....   30
 Basis Dimension        Dim             ....   44

ORBITAL ENERGIES
----------------

  NO   OCC          E(Eh)            E(eV)
   0   2.0000     -19.150631      -521.1152
   1   2.0000     -10.273314      -279.5511
   2   2.0000     -10.226757      -278.2842
   3   2.0000     -10.200945      -277.5818
   4   2.0000      -1.062612       -28.9151
   5   2.0000      -0.804890       -21.9022
   6   2.0000      -0.673120       -18.3165
   7   2.0000      -0.531186       -14.4543
   8   2.0000      -0.495820       -13.4920
   9   2.0000      -0.448252       -12.1976
  10   2.0000      -0.424839       -11.5605
  11   2.0000      -0.407342       -11.0843
  12   2.0000      -0.346417        -9.4265
  13   2.0000      -0.287838        -7.8325
  14   2.0000      -0.260312        -7.0834
  15   0.0000      -0.073164        -1.9909
  16   0.0000       0.058602         1.5946
  17   0.0000       0.081151         2.2082
  18   0.0000       0.092326         2.5123
  19   0.0000       0.158657         4.3173

MULLIKEN ATOMIC CHARGES
-----------------------
   0 C :    0.206773
   1 O :   -0.394273
   2 C :   -0.101249
   3 C :   -0.281004
   4 H :    0.125617
   5 H :    0.123860
   6 H :    0.165757
   7 H :    0.154520
Sum of atomic charges:   -0.0000000

LOEWDIN ATOMIC CHARGES
----------------------
   0 C :    0.108344
   1 O :   -0.235421
   2 C :   -0.194291
   3 C :   -0.147201
   4 H :    0.088391
   5 H :    0.109116
   6 H :    0.137846
   7 H :    0.133216

  Mayer bond orders larger than 0.100000
B(  0-C ,  1-O ) :   1.8442 B(  0-C ,  2-C ) :   1.0123 B(  0-C ,  4-H ) :   0.8786
B(  1-O ,  3-C ) :   0.1098 B(  2-C ,  3-C ) :   1.8547 B(  2-C ,  5-H ) :   0.9223
B(  3-C ,  6-H ) :   0.9169 B(  3-C ,  7-H ) :   0.9290

-----------------------------------------------------------------------------
         ABSORPTION SPECTRUM VIA TRANSITION ELECTRIC DIPOLE MOMENTS
-----------------------------------------------------------------------------
State   Energy    Wavelength  fosc         T2        TX        TY        TZ
        (cm-1)      (nm)                 (au**2)    (au)      (au)      (au)
-----------------------------------------------------------------------------
   1   27509.2    363.5   0.000189339   0.00227   0.02102   0.02300   0.03598

FINAL SINGLE POINT ENERGY      -191.571624695807

DIPOLE MOMENT
-------------
                                X             Y             Z
Electronic contribution:     -1.89127      -1.54966      -0.24851
Nuclear contribution   :      2.24668       2.52311       0.34026
                        -----------------------------------------
Total Dipole Moment    :      0.35541       0.97345       0.09175
                        -----------------------------------------
Magnitude (a.u.)       :      1.04036
Magnitude (Debye)      :      2.64439

Rotational constants in cm-1:     0.733362     0.224209     0.171959
Rotational constants in MHz : 21985.645456  6721.619826  5155.211309

                             ****ORCA TERMINATED NORMALLY****
TOTAL RUN TIME: 0 days 0 hours 1 minutes 1 seconds 662 msec
