                         Program Version 5.0.3 -  RELEASE  -
|  1> ! B3LYP 6-31G
|  2> !TightSCF
|  3> %scf
|  4>  ConvForced true
|  5>  convergence tight
|  6>  MaxIter 500
|  7> end
|  8>
|  9> %tddft
| 10>  nroots 1
| 11> end
| 12>
| 13> # 	10669
| 14> * xyz 0 1
| 15> 		C   -1.234990  -0.318070  -0.012985
| 16> 		O   -1.586954  -1.145007   0.737328
| 17> 		C    0.030391   0.525968   0.159703
| 18> 		C    1.196496   0.070650  -0.157813
| 19> 		H   -1.610118  -0.254343  -1.068506
| 20> 		H   -0.200979   1.481045   0.699851
| 21> 		H    1.309233  -1.013097  -0.410723
| 22> 		H    2.072909   0.655775   0.014836
| 23> *
| 24>
| 25>                          ****END OF INPUT****

CARTESIAN COORDINATES (ANGSTROEM)
---------------------------------
  C     -1.234990   -0.318070   -0.012985
  O     -1.586954   -1.145007    0.737328
  C      0.030391    0.525968    0.159703
  C      1.196496    0.070650   -0.157813
  H     -1.610118   -0.254343   -1.068506
  H     -0.200979    1.481045    0.699851
  H      1.309233   -1.013097   -0.410723
  H      2.072909    0.655775    0.014836

 Total Charge           Charge          ....    0
 Multiplicity           Mult            ....    1
 Number of Electrons    NEL             ....   30
 Basis Dimension        Dim             ....   44

ORBITAL ENERGIES
----------------

  NO   OCC          E(Eh)            E(eV)
   0   2.0000     -19.161890      -521.4215
   1   2.0000     -10.285059      -279.8707
   2   2.0000     -10.200062      -277.5578
   3   2.0000     -10.193469      -277.3784
   4   2.0000      -1.104457       -30.0538
   5   2.0000      -0.801168       -21.8009
   6   2.0000      -0.646126       -17.5820
   7   2.0000      -0.555802       -15.1241
   8   2.0000      -0.497303       -13.5323
   9   2.0000      -0.469660       -12.7801
  10   2.0000      -0.445434       -12.1209
  11   2.0000      -0.403439       -10.9781
  12   2.0000      -0.383740       -10.4421
  13   2.0000      -0.289491        -7.8775
  14   2.0000      -0.252716        -6.8767
  15   0.0000      -0.030579        -0.8321
  16   0.0000       0.004283         0.1165
  17   0.0000       0.115068         3.1311
  18   0.0000       0.120826         3.2878
  19   0.0000       0.138014         3.7556

MULLIKEN ATOMIC CHARGES
-----------------------
   0 C :    0.155174
   1 O :   -0.312124
   2 C :   -0.122036
   3 C :   -0.278606
   4 H :    0.107602
   5 H :    0.158967
   6 H :    0.147130
   7 H :    0.143893
Sum of atomic charges:    0.0000000

LOEWDIN ATOMIC CHARGES
----------------------
   0 C :    0.116381
   1 O :   -0.185303
   2 C :   -0.169541
   3 C :   -0.208405
   4 H :    0.069884
   5 H :    0.129011
   6 H :    0.124153
   7 H :    0.123819

  Mayer bond orders larger than 0.100000
B(  0-C ,  1-O ) :   1.9493 B(  0-C ,  2-C ) :   0.8871 B(  0-C ,  4-H ) :   0.8633
B(  2-C ,  3-C ) :   1.9726 B(  2-C ,  5-H ) :   0.9219 B(  3-C ,  6-H ) :   0.9458
B(  3-C ,  7-H ) :   0.9461

-----------------------------------------------------------------------------
         ABSORPTION SPECTRUM VIA TRANSITION ELECTRIC DIPOLE MOMENTS
-----------------------------------------------------------------------------
State   Energy    Wavelength  fosc         T2        TX        TY        TZ
        (cm-1)      (nm)                 (au**2)    (au)      (au)      (au)
-----------------------------------------------------------------------------
   1   33457.8    298.9   0.000772506   0.00760   0.05668   0.00075   0.06625

FINAL SINGLE POINT ENERGY      -191.559629733497

DIPOLE MOMENT
-------------
                                X             Y             Z
Electronic contribution:     -2.59357      -1.09822       0.99807
Nuclear contribution   :      3.05675       1.74601      -1.43835
                        -----------------------------------------
Total Dipole Moment    :      0.46318       0.64779      -0.44028
                        -----------------------------------------
Magnitude (a.u.)       :      0.90996
Magnitude (Debye)      :      2.31293

Rotational constants in cm-1:     0.956811     0.174052     0.162469
Rotational constants in MHz : 28684.483959  5217.933594  4870.706836

                             ****ORCA TERMINATED NORMALLY****
TOTAL RUN TIME: 0 days 0 hours 0 minutes 56 seconds 626 msec
