                         Program Version 5.0.3 -  RELEASE  -
|  1> ! B3LYP 6-31G
|  2> !TightSCF
|  3> %scf
|  4>  ConvForced true
|  5>  convergence tight
|  6>  MaxIter 500
|  7> end
|  8>
|  9> %tddft
| 10>  nroots 1
| 11> end
| 12>
| 13> # 	19765
| 14> * xyz 0 1
| 15> 		C   -1.212474  -0.366425   0.063006
| 16> 		O   -1.343464  -1.544879   0.273753
| 17> 		C    0.018963   0.463860   0.148399
| 18> 		C    1.230849  -0.022992  -0.017530
| 19> 		H   -2.073024   0.167032  -0.383961
| 20> 		H   -0.202585   1.607434   0.275238
| 21> 		H    1.468218  -0.968695  -0.058886
| 22> 		H    2.133376   0.636438  -0.219204
| 23> *
| 24>
| 25>                          ****END OF INPUT****

CARTESIAN COORDINATES (ANGSTROEM)
---------------------------------
  C     -1.212474   -0.366425    0.063006
  O     -1.343464   -1.544879    0.273753
  C      0.018963    0.463860    0.148399
  C      1.230849   -0.022992   -0.017530
  H     -2.073024    0.167032   -0.383961
  H     -0.202585    1.607434    0.275238
  H      1.468218   -0.968695   -0.058886
  H      2.133376    0.636438   -0.219204

 Total Charge           Charge          ....    0
 Multiplicity           Mult            ....    1
 Number of Electrons    NEL             ....   30
 Basis Dimension        Dim             ....   44

ORBITAL ENERGIES
----------------

  NO   OCC          E(Eh)            E(eV)
   0   2.0000     -19.149919      -521.0958
   1   2.0000     -10.278514      -279.6926
   2   2.0000     -10.213393      -277.9205
   3   2.0000     -10.202268      -277.6178
   4   2.0000      -1.073995       -29.2249
   5   2.0000      -0.803814       -21.8729
   6   2.0000      -0.665378       -18.1059
   7   2.0000      -0.555399       -15.1132
   8   2.0000      -0.508206       -13.8290
   9   2.0000      -0.456880       -12.4323
  10   2.0000      -0.432308       -11.7637
  11   2.0000      -0.402256       -10.9459
  12   2.0000      -0.379781       -10.3344
  13   2.0000      -0.291615        -7.9352
  14   2.0000      -0.253847        -6.9075
  15   0.0000      -0.061513        -1.6738
  16   0.0000       0.043339         1.1793
  17   0.0000       0.091610         2.4928
  18   0.0000       0.139268         3.7897
  19   0.0000       0.151359         4.1187

MULLIKEN ATOMIC CHARGES
-----------------------
   0 C :    0.167589
   1 O :   -0.357974
   2 C :   -0.105760
   3 C :   -0.250115
   4 H :    0.101375
   5 H :    0.140398
   6 H :    0.159193
   7 H :    0.145294
Sum of atomic charges:    0.0000000

LOEWDIN ATOMIC CHARGES
----------------------
   0 C :    0.110113
   1 O :   -0.227333
   2 C :   -0.161460
   3 C :   -0.165650
   4 H :    0.072373
   5 H :    0.123048
   6 H :    0.123445
   7 H :    0.125464

  Mayer bond orders larger than 0.100000
B(  0-C ,  1-O ) :   1.8979 B(  0-C ,  2-C ) :   0.9478 B(  0-C ,  4-H ) :   0.8802
B(  2-C ,  3-C ) :   1.9012 B(  2-C ,  5-H ) :   0.9272 B(  3-C ,  6-H ) :   0.9390
B(  3-C ,  7-H ) :   0.9439

-----------------------------------------------------------------------------
         ABSORPTION SPECTRUM VIA TRANSITION ELECTRIC DIPOLE MOMENTS
-----------------------------------------------------------------------------
State   Energy    Wavelength  fosc         T2        TX        TY        TZ
        (cm-1)      (nm)                 (au**2)    (au)      (au)      (au)
-----------------------------------------------------------------------------
   1   28948.9    345.4   0.000097542   0.00111  -0.02735  -0.01204   0.01470

FINAL SINGLE POINT ENERGY      -191.587534201416

DIPOLE MOMENT
-------------
                                X             Y             Z
Electronic contribution:     -2.01419      -1.87544       0.54811
Nuclear contribution   :      2.54858       2.83337      -0.78345
                        -----------------------------------------
Total Dipole Moment    :      0.53439       0.95793      -0.23534
                        -----------------------------------------
Magnitude (a.u.)       :      1.12187
Magnitude (Debye)      :      2.85156

Rotational constants in cm-1:     0.831284     0.191832     0.157870
Rotational constants in MHz : 24921.278850  5750.993247  4732.812069

                             ****ORCA TERMINATED NORMALLY****
TOTAL RUN TIME: 0 days 0 hours 0 minutes 59 seconds 757 msec
