                         Program Version 5.0.3 -  RELEASE  -
|  1> ! B3LYP 6-31G
|  2> !TightSCF
|  3> %scf
|  4>  ConvForced true
|  5>  convergence tight
|  6>  MaxIter 500
|  7> end
|  8>
|  9> %tddft
| 10>  nroots 1
| 11> end
| 12>
| 13> # 	17590
| 14> * xyz 0 1
| 15> 		C   -1.266931  -0.291168  -0.035913
| 16> 		O   -1.677865  -1.022301  -0.792791
| 17> 		C   -0.065095   0.547517  -0.138999
| 18> 		C    1.166029  -0.035121   0.168858
| 19> 		H   -1.608513  -0.380711   0.922825
| 20> 		H   -0.089184   1.572373  -0.644485
| 21> 		H    1.328711  -0.983535   0.588888
| 22> 		H    2.144009   0.573769  -0.011303
| 23> *
| 24>
| 25>                          ****END OF INPUT****

CARTESIAN COORDINATES (ANGSTROEM)
---------------------------------
  C     -1.266931   -0.291168   -0.035913
  O     -1.677865   -1.022301   -0.792791
  C     -0.065095    0.547517   -0.138999
  C      1.166029   -0.035121    0.168858
  H     -1.608513   -0.380711    0.922825
  H     -0.089184    1.572373   -0.644485
  H      1.328711   -0.983535    0.588888
  H      2.144009    0.573769   -0.011303

 Total Charge           Charge          ....    0
 Multiplicity           Mult            ....    1
 Number of Electrons    NEL             ....   30
 Basis Dimension        Dim             ....   44

ORBITAL ENERGIES
----------------

  NO   OCC          E(Eh)            E(eV)
   0   2.0000     -19.152386      -521.1629
   1   2.0000     -10.269964      -279.4599
   2   2.0000     -10.211116      -277.8586
   3   2.0000     -10.210336      -277.8374
   4   2.0000      -1.127210       -30.6730
   5   2.0000      -0.786830       -21.4107
   6   2.0000      -0.651256       -17.7216
   7   2.0000      -0.575551       -15.6615
   8   2.0000      -0.504293       -13.7225
   9   2.0000      -0.464872       -12.6498
  10   2.0000      -0.446937       -12.1618
  11   2.0000      -0.400049       -10.8859
  12   2.0000      -0.390284       -10.6202
  13   2.0000      -0.274411        -7.4671
  14   2.0000      -0.250855        -6.8261
  15   0.0000      -0.023796        -0.6475
  16   0.0000      -0.011455        -0.3117
  17   0.0000       0.107474         2.9245
  18   0.0000       0.130430         3.5492
  19   0.0000       0.158402         4.3103

MULLIKEN ATOMIC CHARGES
-----------------------
   0 C :    0.130715
   1 O :   -0.273071
   2 C :   -0.136852
   3 C :   -0.267984
   4 H :    0.096951
   5 H :    0.162334
   6 H :    0.149585
   7 H :    0.138322
Sum of atomic charges:    0.0000000

LOEWDIN ATOMIC CHARGES
----------------------
   0 C :    0.101394
   1 O :   -0.166084
   2 C :   -0.170555
   3 C :   -0.205680
   4 H :    0.063265
   5 H :    0.137227
   6 H :    0.120271
   7 H :    0.120161

  Mayer bond orders larger than 0.100000
B(  0-C ,  1-O ) :   1.9917 B(  0-C ,  2-C ) :   0.8928 B(  0-C ,  4-H ) :   0.8921
B(  2-C ,  3-C ) :   1.9395 B(  2-C ,  5-H ) :   0.9248 B(  3-C ,  6-H ) :   0.9420
B(  3-C ,  7-H ) :   0.9471

-----------------------------------------------------------------------------
         ABSORPTION SPECTRUM VIA TRANSITION ELECTRIC DIPOLE MOMENTS
-----------------------------------------------------------------------------
State   Energy    Wavelength  fosc         T2        TX        TY        TZ
        (cm-1)      (nm)                 (au**2)    (au)      (au)      (au)
-----------------------------------------------------------------------------
   1   35351.8    282.9   0.000423297   0.00394  -0.05249  -0.00033   0.03445

FINAL SINGLE POINT ENERGY      -191.526614916328

DIPOLE MOMENT
-------------
                                X             Y             Z
Electronic contribution:     -2.92671      -1.01449      -1.06898
Nuclear contribution   :      3.45814       1.58602       1.59055
                        -----------------------------------------
Total Dipole Moment    :      0.53143       0.57153       0.52156
                        -----------------------------------------
Magnitude (a.u.)       :      0.93866
Magnitude (Debye)      :      2.38590

Rotational constants in cm-1:     0.955798     0.175153     0.162672
Rotational constants in MHz : 28654.099174  5250.945858  4876.796177

                             ****ORCA TERMINATED NORMALLY****
TOTAL RUN TIME: 0 days 0 hours 1 minutes 2 seconds 548 msec
