                         Program Version 5.0.3 -  RELEASE  -
|  1> ! B3LYP 6-31G
|  2> !TightSCF
|  3> %scf
|  4>  ConvForced true
|  5>  convergence tight
|  6>  MaxIter 500
|  7> end
|  8>
|  9> %tddft
| 10>  nroots 1
| 11> end
| 12>
| 13> # 	24544
| 14> * xyz 0 1
| 15> 		C   -0.581832  -0.438693   0.054693
| 16> 		O   -0.592607  -1.656814  -0.024029
| 17> 		C    0.592530   0.436858  -0.051043
| 18> 		C    1.881980  -0.116553   0.023617
| 19> 		H   -1.540877   0.143512   0.018777
| 20> 		H    0.596386   1.499361   0.009060
| 21> 		H    2.056528  -1.155466   0.055985
| 22> 		H    2.711153   0.475693  -0.030300
| 23> *
| 24>
| 25>                          ****END OF INPUT****

CARTESIAN COORDINATES (ANGSTROEM)
---------------------------------
  C     -0.581832   -0.438693    0.054693
  O     -0.592607   -1.656814   -0.024029
  C      0.592530    0.436858   -0.051043
  C      1.881980   -0.116553    0.023617
  H     -1.540877    0.143512    0.018777
  H      0.596386    1.499361    0.009060
  H      2.056528   -1.155466    0.055985
  H      2.711153    0.475693   -0.030300

 Total Charge           Charge          ....    0
 Multiplicity           Mult            ....    1
 Number of Electrons    NEL             ....   30
 Basis Dimension        Dim             ....   44

ORBITAL ENERGIES
----------------

  NO   OCC          E(Eh)            E(eV)
   0   2.0000     -19.148130      -521.0471
   1   2.0000     -10.278410      -279.6898
   2   2.0000     -10.208902      -277.7983
   3   2.0000     -10.208405      -277.7848
   4   2.0000      -1.061764       -28.8921
   5   2.0000      -0.792157       -21.5557
   6   2.0000      -0.667638       -18.1674
   7   2.0000      -0.555388       -15.1129
   8   2.0000      -0.517507       -14.0821
   9   2.0000      -0.440235       -11.9794
  10   2.0000      -0.423996       -11.5375
  11   2.0000      -0.400494       -10.8980
  12   2.0000      -0.393393       -10.7048
  13   2.0000      -0.279498        -7.6055
  14   2.0000      -0.255071        -6.9408
  15   0.0000      -0.077490        -2.1086
  16   0.0000       0.053819         1.4645
  17   0.0000       0.111230         3.0267
  18   0.0000       0.135676         3.6919
  19   0.0000       0.161982         4.4077

MULLIKEN ATOMIC CHARGES
-----------------------
   0 C :    0.184280
   1 O :   -0.381343
   2 C :   -0.124739
   3 C :   -0.232709
   4 H :    0.098690
   5 H :    0.140758
   6 H :    0.173388
   7 H :    0.141675
Sum of atomic charges:   -0.0000000

LOEWDIN ATOMIC CHARGES
----------------------
   0 C :    0.114864
   1 O :   -0.238291
   2 C :   -0.180529
   3 C :   -0.146647
   4 H :    0.070314
   5 H :    0.127956
   6 H :    0.133128
   7 H :    0.119205

  Mayer bond orders larger than 0.100000
B(  0-C ,  1-O ) :   1.8475 B(  0-C ,  2-C ) :   0.9934 B(  0-C ,  4-H ) :   0.8811
B(  1-O ,  3-C ) :   0.1107 B(  2-C ,  3-C ) :   1.8471 B(  2-C ,  5-H ) :   0.9353
B(  3-C ,  6-H ) :   0.9385 B(  3-C ,  7-H ) :   0.9417

-----------------------------------------------------------------------------
         ABSORPTION SPECTRUM VIA TRANSITION ELECTRIC DIPOLE MOMENTS
-----------------------------------------------------------------------------
State   Energy    Wavelength  fosc         T2        TX        TY        TZ
        (cm-1)      (nm)                 (au**2)    (au)      (au)      (au)
-----------------------------------------------------------------------------
   1   26364.3    379.3   0.000226843   0.00283   0.05199  -0.00009   0.01140

FINAL SINGLE POINT ENERGY      -191.609399728891

DIPOLE MOMENT
-------------
                                X             Y             Z
Electronic contribution:     -1.85723      -1.64060       0.01435
Nuclear contribution   :      2.42857       2.69066       0.05006
                        -----------------------------------------
Total Dipole Moment    :      0.57133       1.05006       0.06441
                        -----------------------------------------
Magnitude (a.u.)       :      1.19716
Magnitude (Debye)      :      3.04294

Rotational constants in cm-1:     0.743596     0.203755     0.160198
Rotational constants in MHz : 22292.438690  6108.410505  4802.609717

                             ****ORCA TERMINATED NORMALLY****
TOTAL RUN TIME: 0 days 0 hours 1 minutes 1 seconds 213 msec
