                         Program Version 5.0.3 -  RELEASE  -
|  1> ! B3LYP 6-31G
|  2> !TightSCF
|  3> %scf
|  4>  ConvForced true
|  5>  convergence tight
|  6>  MaxIter 500
|  7> end
|  8>
|  9> %tddft
| 10>  nroots 1
| 11> end
| 12>
| 13> # 	7025
| 14> * xyz 0 1
| 15> 		C   -1.169510  -0.387136   0.036636
| 16> 		O   -1.363613  -1.476854   0.560872
| 17> 		C   -0.004348   0.479212   0.103911
| 18> 		C    1.221104   0.019515  -0.196244
| 19> 		H   -2.044597   0.105496  -0.630403
| 20> 		H    0.144998   1.656169   0.469216
| 21> 		H    1.233027  -0.963111  -0.432168
| 22> 		H    2.001759   0.548642   0.093505
| 23> *
| 24>
| 25>                          ****END OF INPUT****

CARTESIAN COORDINATES (ANGSTROEM)
---------------------------------
  C     -1.169510   -0.387136    0.036636
  O     -1.363613   -1.476854    0.560872
  C     -0.004348    0.479212    0.103911
  C      1.221104    0.019515   -0.196244
  H     -2.044597    0.105496   -0.630403
  H      0.144998    1.656169    0.469216
  H      1.233027   -0.963111   -0.432168
  H      2.001759    0.548642    0.093505

 Total Charge           Charge          ....    0
 Multiplicity           Mult            ....    1
 Number of Electrons    NEL             ....   30
 Basis Dimension        Dim             ....   44

ORBITAL ENERGIES
----------------

  NO   OCC          E(Eh)            E(eV)
   0   2.0000     -19.164703      -521.4981
   1   2.0000     -10.296373      -280.1786
   2   2.0000     -10.219846      -278.0961
   3   2.0000     -10.188300      -277.2377
   4   2.0000      -1.072045       -29.1718
   5   2.0000      -0.811956       -22.0945
   6   2.0000      -0.667608       -18.1665
   7   2.0000      -0.540830       -14.7167
   8   2.0000      -0.518285       -14.1032
   9   2.0000      -0.454204       -12.3595
  10   2.0000      -0.443883       -12.0787
  11   2.0000      -0.402650       -10.9567
  12   2.0000      -0.368337       -10.0230
  13   2.0000      -0.289487        -7.8773
  14   2.0000      -0.261753        -7.1227
  15   0.0000      -0.063838        -1.7371
  16   0.0000       0.008184         0.2227
  17   0.0000       0.087912         2.3922
  18   0.0000       0.111610         3.0370
  19   0.0000       0.157145         4.2761

MULLIKEN ATOMIC CHARGES
-----------------------
   0 C :    0.153245
   1 O :   -0.353221
   2 C :   -0.121583
   3 C :   -0.223618
   4 H :    0.091902
   5 H :    0.159351
   6 H :    0.154263
   7 H :    0.139661
Sum of atomic charges:    0.0000000

LOEWDIN ATOMIC CHARGES
----------------------
   0 C :    0.128165
   1 O :   -0.217116
   2 C :   -0.166704
   3 C :   -0.193482
   4 H :    0.063650
   5 H :    0.139058
   6 H :    0.123896
   7 H :    0.122532

  Mayer bond orders larger than 0.100000
B(  0-C ,  1-O ) :   1.8934 B(  0-C ,  2-C ) :   0.9519 B(  0-C ,  4-H ) :   0.8636
B(  2-C ,  3-C ) :   1.9013 B(  2-C ,  5-H ) :   0.9228 B(  3-C ,  6-H ) :   0.9538
B(  3-C ,  7-H ) :   0.9498

-----------------------------------------------------------------------------
         ABSORPTION SPECTRUM VIA TRANSITION ELECTRIC DIPOLE MOMENTS
-----------------------------------------------------------------------------
State   Energy    Wavelength  fosc         T2        TX        TY        TZ
        (cm-1)      (nm)                 (au**2)    (au)      (au)      (au)
-----------------------------------------------------------------------------
   1   29631.1    337.5   0.001748472   0.01943   0.13654   0.01352  -0.02452

FINAL SINGLE POINT ENERGY      -191.555854885856

DIPOLE MOMENT
-------------
                                X             Y             Z
Electronic contribution:     -1.99907      -1.73997       0.69900
Nuclear contribution   :      2.56996       2.64855      -0.98485
                        -----------------------------------------
Total Dipole Moment    :      0.57090       0.90858      -0.28585
                        -----------------------------------------
Magnitude (a.u.)       :      1.11048
Magnitude (Debye)      :      2.82261

Rotational constants in cm-1:     0.850194     0.185886     0.160229
Rotational constants in MHz : 25488.178385  5572.730836  4803.553016

                             ****ORCA TERMINATED NORMALLY****
TOTAL RUN TIME: 0 days 0 hours 0 minutes 59 seconds 235 msec
