                         Program Version 5.0.3 -  RELEASE  -
|  1> ! B3LYP 6-31G
|  2> !TightSCF
|  3> %scf
|  4>  ConvForced true
|  5>  convergence tight
|  6>  MaxIter 500
|  7> end
|  8>
|  9> %tddft
| 10>  nroots 1
| 11> end
| 12>
| 13> # 	23270
| 14> * xyz 0 1
| 15> 		C   -0.647792  -0.422857   0.061152
| 16> 		O   -0.552894  -1.674897  -0.031774
| 17> 		C    0.613218   0.448656   0.003461
| 18> 		C    1.881164  -0.128703  -0.035888
| 19> 		H   -1.723955   0.116855  -0.057070
| 20> 		H    0.515632   1.712478  -0.194359
| 21> 		H    2.087333  -1.150718   0.301466
| 22> 		H    2.859549   0.414176   0.105108
| 23> *
| 24>
| 25>                          ****END OF INPUT****

CARTESIAN COORDINATES (ANGSTROEM)
---------------------------------
  C     -0.647792   -0.422857    0.061152
  O     -0.552894   -1.674897   -0.031774
  C      0.613218    0.448656    0.003461
  C      1.881164   -0.128703   -0.035888
  H     -1.723955    0.116855   -0.057070
  H      0.515632    1.712478   -0.194359
  H      2.087333   -1.150718    0.301466
  H      2.859549    0.414176    0.105108

 Total Charge           Charge          ....    0
 Multiplicity           Mult            ....    1
 Number of Electrons    NEL             ....   30
 Basis Dimension        Dim             ....   44

ORBITAL ENERGIES
----------------

  NO   OCC          E(Eh)            E(eV)
   0   2.0000     -19.157190      -521.2936
   1   2.0000     -10.299358      -280.2598
   2   2.0000     -10.238583      -278.6060
   3   2.0000     -10.220310      -278.1088
   4   2.0000      -1.047375       -28.5005
   5   2.0000      -0.777309       -21.1516
   6   2.0000      -0.649079       -17.6623
   7   2.0000      -0.541303       -14.7296
   8   2.0000      -0.485527       -13.2119
   9   2.0000      -0.440769       -11.9939
  10   2.0000      -0.415633       -11.3099
  11   2.0000      -0.391752       -10.6601
  12   2.0000      -0.364898        -9.9294
  13   2.0000      -0.281969        -7.6728
  14   2.0000      -0.260258        -7.0820
  15   0.0000      -0.083065        -2.2603
  16   0.0000       0.031656         0.8614
  17   0.0000       0.062759         1.7077
  18   0.0000       0.105774         2.8783
  19   0.0000       0.125203         3.4069

MULLIKEN ATOMIC CHARGES
-----------------------
   0 C :    0.196368
   1 O :   -0.389532
   2 C :   -0.125816
   3 C :   -0.252451
   4 H :    0.117782
   5 H :    0.130448
   6 H :    0.173610
   7 H :    0.149591
Sum of atomic charges:   -0.0000000

LOEWDIN ATOMIC CHARGES
----------------------
   0 C :    0.118495
   1 O :   -0.250024
   2 C :   -0.158138
   3 C :   -0.174292
   4 H :    0.087236
   5 H :    0.118108
   6 H :    0.133125
   7 H :    0.125490

  Mayer bond orders larger than 0.100000
B(  0-C ,  1-O ) :   1.8230 B(  0-C ,  2-C ) :   0.9573 B(  0-C ,  4-H ) :   0.8644
B(  1-O ,  3-C ) :   0.1007 B(  2-C ,  3-C ) :   1.8503 B(  2-C ,  5-H ) :   0.9236
B(  3-C ,  6-H ) :   0.9297 B(  3-C ,  7-H ) :   0.9356

-----------------------------------------------------------------------------
         ABSORPTION SPECTRUM VIA TRANSITION ELECTRIC DIPOLE MOMENTS
-----------------------------------------------------------------------------
State   Energy    Wavelength  fosc         T2        TX        TY        TZ
        (cm-1)      (nm)                 (au**2)    (au)      (au)      (au)
-----------------------------------------------------------------------------
   1   25976.1    385.0   0.000065672   0.00083   0.01688   0.00383  -0.02308

FINAL SINGLE POINT ENERGY      -191.583704819087

DIPOLE MOMENT
-------------
                                X             Y             Z
Electronic contribution:     -1.95407      -1.82475      -0.02373
Nuclear contribution   :      2.34999       2.81023       0.14555
                        -----------------------------------------
Total Dipole Moment    :      0.39592       0.98548       0.12182
                        -----------------------------------------
Magnitude (a.u.)       :      1.06900
Magnitude (Debye)      :      2.71719

Rotational constants in cm-1:     0.666227     0.200786     0.154914
Rotational constants in MHz : 19972.992533  6019.426727  4644.190051

                             ****ORCA TERMINATED NORMALLY****
TOTAL RUN TIME: 0 days 0 hours 1 minutes 1 seconds 662 msec
