                         Program Version 5.0.3 -  RELEASE  -
|  1> ! B3LYP 6-31G
|  2> !TightSCF
|  3> %scf
|  4>  ConvForced true
|  5>  convergence tight
|  6>  MaxIter 500
|  7> end
|  8>
|  9> %tddft
| 10>  nroots 1
| 11> end
| 12>
| 13> # 	2410
| 14> * xyz 0 1
| 15> 		C   -1.204485  -0.345948   0.067481
| 16> 		O   -1.546798  -1.205860   0.802433
| 17> 		C    0.013937   0.482596   0.278998
| 18> 		C    1.154952   0.095376  -0.236135
| 19> 		H   -1.808640  -0.152558  -0.864448
| 20> 		H   -0.096950   1.563111   0.516272
| 21> 		H    1.264589  -1.014652  -0.500183
| 22> 		H    2.190106   0.644276  -0.081749
| 23> *
| 24>
| 25>                          ****END OF INPUT****

CARTESIAN COORDINATES (ANGSTROEM)
---------------------------------
  C     -1.204485   -0.345948    0.067481
  O     -1.546798   -1.205860    0.802433
  C      0.013937    0.482596    0.278998
  C      1.154952    0.095376   -0.236135
  H     -1.808640   -0.152558   -0.864448
  H     -0.096950    1.563111    0.516272
  H      1.264589   -1.014652   -0.500183
  H      2.190106    0.644276   -0.081749

 Total Charge           Charge          ....    0
 Multiplicity           Mult            ....    1
 Number of Electrons    NEL             ....   30
 Basis Dimension        Dim             ....   44

ORBITAL ENERGIES
----------------

  NO   OCC          E(Eh)            E(eV)
   0   2.0000     -19.157422      -521.3000
   1   2.0000     -10.286501      -279.9099
   2   2.0000     -10.210860      -277.8516
   3   2.0000     -10.204757      -277.6856
   4   2.0000      -1.096350       -29.8332
   5   2.0000      -0.805122       -21.9085
   6   2.0000      -0.642038       -17.4707
   7   2.0000      -0.553058       -15.0495
   8   2.0000      -0.509176       -13.8554
   9   2.0000      -0.460030       -12.5181
  10   2.0000      -0.440894       -11.9973
  11   2.0000      -0.393068       -10.6959
  12   2.0000      -0.372534       -10.1372
  13   2.0000      -0.292311        -7.9542
  14   2.0000      -0.257079        -6.9955
  15   0.0000      -0.031659        -0.8615
  16   0.0000      -0.007303        -0.1987
  17   0.0000       0.106704         2.9036
  18   0.0000       0.116435         3.1683
  19   0.0000       0.132332         3.6009

MULLIKEN ATOMIC CHARGES
-----------------------
   0 C :    0.157847
   1 O :   -0.324643
   2 C :   -0.111284
   3 C :   -0.275800
   4 H :    0.113583
   5 H :    0.157038
   6 H :    0.140217
   7 H :    0.143043
Sum of atomic charges:   -0.0000000

LOEWDIN ATOMIC CHARGES
----------------------
   0 C :    0.118566
   1 O :   -0.198262
   2 C :   -0.167495
   3 C :   -0.199974
   4 H :    0.076155
   5 H :    0.132997
   6 H :    0.115774
   7 H :    0.122240

  Mayer bond orders larger than 0.100000
B(  0-C ,  1-O ) :   1.9297 B(  0-C ,  2-C ) :   0.9189 B(  0-C ,  4-H ) :   0.8663
B(  2-C ,  3-C ) :   1.9275 B(  2-C ,  5-H ) :   0.9224 B(  3-C ,  6-H ) :   0.9452
B(  3-C ,  7-H ) :   0.9397

-----------------------------------------------------------------------------
         ABSORPTION SPECTRUM VIA TRANSITION ELECTRIC DIPOLE MOMENTS
-----------------------------------------------------------------------------
State   Energy    Wavelength  fosc         T2        TX        TY        TZ
        (cm-1)      (nm)                 (au**2)    (au)      (au)      (au)
-----------------------------------------------------------------------------
   1   33971.3    294.4   0.000040896   0.00040  -0.01175   0.00055   0.01606

FINAL SINGLE POINT ENERGY      -191.555315104752

DIPOLE MOMENT
-------------
                                X             Y             Z
Electronic contribution:     -2.55803      -1.25949       1.22227
Nuclear contribution   :      3.01727       1.99676      -1.74952
                        -----------------------------------------
Total Dipole Moment    :      0.45924       0.73727      -0.52725
                        -----------------------------------------
Magnitude (a.u.)       :      1.01610
Magnitude (Debye)      :      2.58272

Rotational constants in cm-1:     0.973916     0.174167     0.162412
Rotational constants in MHz : 29197.269560  5221.404398  4868.984275

                             ****ORCA TERMINATED NORMALLY****
TOTAL RUN TIME: 0 days 0 hours 0 minutes 59 seconds 783 msec
