                         Program Version 5.0.3 -  RELEASE  -
|  1> ! B3LYP 6-31G
|  2> !TightSCF
|  3> %scf
|  4>  ConvForced true
|  5>  convergence tight
|  6>  MaxIter 500
|  7> end
|  8>
|  9> %tddft
| 10>  nroots 1
| 11> end
| 12>
| 13> # 	28799
| 14> * xyz 0 1
| 15> 		C   -0.544715  -0.400442  -0.106462
| 16> 		O   -0.614353  -1.649157   0.052752
| 17> 		C    0.677333   0.338586   0.053292
| 18> 		C    1.815307  -0.076220  -0.022761
| 19> 		H   -1.590093   0.287551   0.025037
| 20> 		H    0.348121   1.396663   0.173878
| 21> 		H    2.069870  -1.226484  -0.201895
| 22> 		H    2.680227   0.656042   0.086408
| 23> *
| 24>
| 25>                          ****END OF INPUT****

CARTESIAN COORDINATES (ANGSTROEM)
---------------------------------
  C     -0.544715   -0.400442   -0.106462
  O     -0.614353   -1.649157    0.052752
  C      0.677333    0.338586    0.053292
  C      1.815307   -0.076220   -0.022761
  H     -1.590093    0.287551    0.025037
  H      0.348121    1.396663    0.173878
  H      2.069870   -1.226484   -0.201895
  H      2.680227    0.656042    0.086408

 Total Charge           Charge          ....    0
 Multiplicity           Mult            ....    1
 Number of Electrons    NEL             ....   30
 Basis Dimension        Dim             ....   44

ORBITAL ENERGIES
----------------

  NO   OCC          E(Eh)            E(eV)
   0   2.0000     -19.154096      -521.2095
   1   2.0000     -10.288941      -279.9763
   2   2.0000     -10.212052      -277.8841
   3   2.0000     -10.195343      -277.4294
   4   2.0000      -1.044247       -28.4154
   5   2.0000      -0.831001       -22.6127
   6   2.0000      -0.668101       -18.1799
   7   2.0000      -0.520204       -14.1555
   8   2.0000      -0.512487       -13.9455
   9   2.0000      -0.456623       -12.4253
  10   2.0000      -0.417832       -11.3698
  11   2.0000      -0.400518       -10.8986
  12   2.0000      -0.360230        -9.8024
  13   2.0000      -0.307588        -8.3699
  14   2.0000      -0.256573        -6.9817
  15   0.0000      -0.073997        -2.0136
  16   0.0000       0.058770         1.5992
  17   0.0000       0.076240         2.0746
  18   0.0000       0.103273         2.8102
  19   0.0000       0.133240         3.6257

MULLIKEN ATOMIC CHARGES
-----------------------
   0 C :    0.177436
   1 O :   -0.388219
   2 C :   -0.045623
   3 C :   -0.297401
   4 H :    0.089893
   5 H :    0.146547
   6 H :    0.171599
   7 H :    0.145769
Sum of atomic charges:   -0.0000000

LOEWDIN ATOMIC CHARGES
----------------------
   0 C :    0.121392
   1 O :   -0.249266
   2 C :   -0.188441
   3 C :   -0.143449
   4 H :    0.067720
   5 H :    0.122037
   6 H :    0.140163
   7 H :    0.129845

  Mayer bond orders larger than 0.100000
B(  0-C ,  1-O ) :   1.8518 B(  0-C ,  2-C ) :   0.9938 B(  0-C ,  4-H ) :   0.8687
B(  2-C ,  3-C ) :   1.8882 B(  2-C ,  5-H ) :   0.9169 B(  3-C ,  6-H ) :   0.9282
B(  3-C ,  7-H ) :   0.9349

-----------------------------------------------------------------------------
         ABSORPTION SPECTRUM VIA TRANSITION ELECTRIC DIPOLE MOMENTS
-----------------------------------------------------------------------------
State   Energy    Wavelength  fosc         T2        TX        TY        TZ
        (cm-1)      (nm)                 (au**2)    (au)      (au)      (au)
-----------------------------------------------------------------------------
   1   26310.4    380.1   0.000710656   0.00889   0.06959  -0.03081  -0.05568

FINAL SINGLE POINT ENERGY      -191.571202693365

DIPOLE MOMENT
-------------
                                X             Y             Z
Electronic contribution:     -1.57293      -1.80206      -0.14907
Nuclear contribution   :      2.13279       2.82959       0.07797
                        -----------------------------------------
Total Dipole Moment    :      0.55986       1.02753      -0.07110
                        -----------------------------------------
Magnitude (a.u.)       :      1.17231
Magnitude (Debye)      :      2.97978

Rotational constants in cm-1:     0.807380     0.207132     0.165817
Rotational constants in MHz : 24204.641905  6209.652578  4971.054198

                             ****ORCA TERMINATED NORMALLY****
TOTAL RUN TIME: 0 days 0 hours 0 minutes 55 seconds 798 msec
