                         Program Version 5.0.3 -  RELEASE  -
|  1> ! B3LYP 6-31G
|  2> !TightSCF
|  3> %scf
|  4>  ConvForced true
|  5>  convergence tight
|  6>  MaxIter 500
|  7> end
|  8>
|  9> %tddft
| 10>  nroots 1
| 11> end
| 12>
| 13> # 	21323
| 14> * xyz 0 1
| 15> 		C   -0.573424  -0.426291  -0.019398
| 16> 		O   -0.620208  -1.667745   0.017636
| 17> 		C    0.649002   0.428093  -0.001795
| 18> 		C    1.846587  -0.101145  -0.044148
| 19> 		H   -1.537256   0.051198   0.013724
| 20> 		H    0.472379   1.462632   0.132655
| 21> 		H    2.301206  -1.086714   0.050968
| 22> 		H    2.683275   0.505533   0.323806
| 23> *
| 24>
| 25>                          ****END OF INPUT****

CARTESIAN COORDINATES (ANGSTROEM)
---------------------------------
  C     -0.573424   -0.426291   -0.019398
  O     -0.620208   -1.667745    0.017636
  C      0.649002    0.428093   -0.001795
  C      1.846587   -0.101145   -0.044148
  H     -1.537256    0.051198    0.013724
  H      0.472379    1.462632    0.132655
  H      2.301206   -1.086714    0.050968
  H      2.683275    0.505533    0.323806

 Total Charge           Charge          ....    0
 Multiplicity           Mult            ....    1
 Number of Electrons    NEL             ....   30
 Basis Dimension        Dim             ....   44

ORBITAL ENERGIES
----------------

  NO   OCC          E(Eh)            E(eV)
   0   2.0000     -19.144760      -520.9554
   1   2.0000     -10.273196      -279.5479
   2   2.0000     -10.208621      -277.7907
   3   2.0000     -10.207634      -277.7639
   4   2.0000      -1.046515       -28.4771
   5   2.0000      -0.806100       -21.9351
   6   2.0000      -0.665121       -18.0989
   7   2.0000      -0.562142       -15.2967
   8   2.0000      -0.511458       -13.9175
   9   2.0000      -0.464540       -12.6408
  10   2.0000      -0.415933       -11.3181
  11   2.0000      -0.391967       -10.6660
  12   2.0000      -0.368170       -10.0184
  13   2.0000      -0.292040        -7.9468
  14   2.0000      -0.250881        -6.8268
  15   0.0000      -0.072527        -1.9736
  16   0.0000       0.055857         1.5199
  17   0.0000       0.097790         2.6610
  18   0.0000       0.128527         3.4974
  19   0.0000       0.162437         4.4201

MULLIKEN ATOMIC CHARGES
-----------------------
   0 C :    0.180734
   1 O :   -0.384978
   2 C :   -0.115166
   3 C :   -0.250946
   4 H :    0.106832
   5 H :    0.147484
   6 H :    0.182391
   7 H :    0.133649
Sum of atomic charges:   -0.0000000

LOEWDIN ATOMIC CHARGES
----------------------
   0 C :    0.115325
   1 O :   -0.252555
   2 C :   -0.163380
   3 C :   -0.162410
   4 H :    0.079519
   5 H :    0.128003
   6 H :    0.139882
   7 H :    0.115616

  Mayer bond orders larger than 0.100000
B(  0-C ,  1-O ) :   1.8739 B(  0-C ,  2-C ) :   0.9812 B(  0-C ,  4-H ) :   0.8955
B(  2-C ,  3-C ) :   1.8938 B(  2-C ,  5-H ) :   0.9284 B(  3-C ,  6-H ) :   0.9287
B(  3-C ,  7-H ) :   0.9383

-----------------------------------------------------------------------------
         ABSORPTION SPECTRUM VIA TRANSITION ELECTRIC DIPOLE MOMENTS
-----------------------------------------------------------------------------
State   Energy    Wavelength  fosc         T2        TX        TY        TZ
        (cm-1)      (nm)                 (au**2)    (au)      (au)      (au)
-----------------------------------------------------------------------------
   1   25890.7    386.2   0.000022354   0.00028   0.00931  -0.00770  -0.01176

FINAL SINGLE POINT ENERGY      -191.603569928119

DIPOLE MOMENT
-------------
                                X             Y             Z
Electronic contribution:     -2.01528      -1.59197      -0.36305
Nuclear contribution   :      2.51796       2.66038       0.48767
                        -----------------------------------------
Total Dipole Moment    :      0.50268       1.06840       0.12463
                        -----------------------------------------
Magnitude (a.u.)       :      1.18731
Magnitude (Debye)      :      3.01790

Rotational constants in cm-1:     0.771764     0.200106     0.159383
Rotational constants in MHz : 23136.896153  5999.019724  4778.172955

                             ****ORCA TERMINATED NORMALLY****
TOTAL RUN TIME: 0 days 0 hours 0 minutes 56 seconds 396 msec
