                         Program Version 5.0.3 -  RELEASE  -
|  1> ! B3LYP 6-31G
|  2> !TightSCF
|  3> %scf
|  4>  ConvForced true
|  5>  convergence tight
|  6>  MaxIter 500
|  7> end
|  8>
|  9> %tddft
| 10>  nroots 1
| 11> end
| 12>
| 13> # 	13087
| 14> * xyz 0 1
| 15> 		C   -1.180511  -0.336153   0.005647
| 16> 		O   -1.505173  -1.209276   0.799199
| 17> 		C    0.044903   0.468873   0.234311
| 18> 		C    1.241834   0.049232  -0.136490
| 19> 		H   -1.840550  -0.088385  -0.861185
| 20> 		H   -0.203502   1.474884   0.776186
| 21> 		H    1.340672  -0.932657  -0.688737
| 22> 		H    2.056127   0.638718  -0.041669
| 23> *
| 24>
| 25>                          ****END OF INPUT****

CARTESIAN COORDINATES (ANGSTROEM)
---------------------------------
  C     -1.180511   -0.336153    0.005647
  O     -1.505173   -1.209276    0.799199
  C      0.044903    0.468873    0.234311
  C      1.241834    0.049232   -0.136490
  H     -1.840550   -0.088385   -0.861185
  H     -0.203502    1.474884    0.776186
  H      1.340672   -0.932657   -0.688737
  H      2.056127    0.638718   -0.041669

 Total Charge           Charge          ....    0
 Multiplicity           Mult            ....    1
 Number of Electrons    NEL             ....   30
 Basis Dimension        Dim             ....   44

ORBITAL ENERGIES
----------------

  NO   OCC          E(Eh)            E(eV)
   0   2.0000     -19.154547      -521.2217
   1   2.0000     -10.283648      -279.8323
   2   2.0000     -10.210279      -277.8358
   3   2.0000     -10.195517      -277.4341
   4   2.0000      -1.067347       -29.0440
   5   2.0000      -0.799158       -21.7462
   6   2.0000      -0.657248       -17.8846
   7   2.0000      -0.555499       -15.1159
   8   2.0000      -0.500577       -13.6214
   9   2.0000      -0.465877       -12.6772
  10   2.0000      -0.435970       -11.8633
  11   2.0000      -0.392835       -10.6896
  12   2.0000      -0.371156       -10.0997
  13   2.0000      -0.288727        -7.8566
  14   2.0000      -0.253742        -6.9047
  15   0.0000      -0.037883        -1.0308
  16   0.0000      -0.001822        -0.0496
  17   0.0000       0.101934         2.7738
  18   0.0000       0.122116         3.3230
  19   0.0000       0.137253         3.7348

MULLIKEN ATOMIC CHARGES
-----------------------
   0 C :    0.156150
   1 O :   -0.353350
   2 C :   -0.111835
   3 C :   -0.263319
   4 H :    0.122379
   5 H :    0.163278
   6 H :    0.147484
   7 H :    0.139214
Sum of atomic charges:    0.0000000

LOEWDIN ATOMIC CHARGES
----------------------
   0 C :    0.118839
   1 O :   -0.223814
   2 C :   -0.154432
   3 C :   -0.203346
   4 H :    0.083786
   5 H :    0.133375
   6 H :    0.125160
   7 H :    0.120432

  Mayer bond orders larger than 0.100000
B(  0-C ,  1-O ) :   1.9104 B(  0-C ,  2-C ) :   0.9256 B(  0-C ,  4-H ) :   0.8709
B(  2-C ,  3-C ) :   1.9603 B(  2-C ,  5-H ) :   0.9157 B(  3-C ,  6-H ) :   0.9482
B(  3-C ,  7-H ) :   0.9474

-----------------------------------------------------------------------------
         ABSORPTION SPECTRUM VIA TRANSITION ELECTRIC DIPOLE MOMENTS
-----------------------------------------------------------------------------
State   Energy    Wavelength  fosc         T2        TX        TY        TZ
        (cm-1)      (nm)                 (au**2)    (au)      (au)      (au)
-----------------------------------------------------------------------------
   1   31580.7    316.6   0.000162203   0.00169   0.03664   0.01503   0.01106

FINAL SINGLE POINT ENERGY      -191.575347274691

DIPOLE MOMENT
-------------
                                X             Y             Z
Electronic contribution:     -2.22880      -1.27865       1.02467
Nuclear contribution   :      2.68774       2.08639      -1.64070
                        -----------------------------------------
Total Dipole Moment    :      0.45894       0.80774      -0.61602
                        -----------------------------------------
Magnitude (a.u.)       :      1.11470
Magnitude (Debye)      :      2.83335

Rotational constants in cm-1:     0.910928     0.175246     0.163198
Rotational constants in MHz : 27308.947061  5253.746200  4892.540805

                             ****ORCA TERMINATED NORMALLY****
TOTAL RUN TIME: 0 days 0 hours 1 minutes 0 seconds 141 msec
