                         Program Version 5.0.3 -  RELEASE  -
|  1> ! B3LYP 6-31G
|  2> !TightSCF
|  3> %scf
|  4>  ConvForced true
|  5>  convergence tight
|  6>  MaxIter 500
|  7> end
|  8>
|  9> %tddft
| 10>  nroots 1
| 11> end
| 12>
| 13> # 	3198
| 14> * xyz 0 1
| 15> 		C   -1.184396  -0.370249  -0.135136
| 16> 		O   -2.192701  -0.404414  -0.735924
| 17> 		C    0.020463   0.426298  -0.324101
| 18> 		C    1.201513   0.233344   0.339006
| 19> 		H   -1.041430  -0.981136   0.917552
| 20> 		H   -0.058074   0.956858  -1.188880
| 21> 		H    1.288547  -0.636619   1.092134
| 22> 		H    1.963706   0.765345   0.017357
| 23> *
| 24>
| 25>                          ****END OF INPUT****

CARTESIAN COORDINATES (ANGSTROEM)
---------------------------------
  C     -1.184396   -0.370249   -0.135136
  O     -2.192701   -0.404414   -0.735924
  C      0.020463    0.426298   -0.324101
  C      1.201513    0.233344    0.339006
  H     -1.041430   -0.981136    0.917552
  H     -0.058074    0.956858   -1.188880
  H      1.288547   -0.636619    1.092134
  H      1.963706    0.765345    0.017357

 Total Charge           Charge          ....    0
 Multiplicity           Mult            ....    1
 Number of Electrons    NEL             ....   30
 Basis Dimension        Dim             ....   44

ORBITAL ENERGIES
----------------

  NO   OCC          E(Eh)            E(eV)
   0   2.0000     -19.157830      -521.3111
   1   2.0000     -10.283657      -279.8325
   2   2.0000     -10.221474      -278.1404
   3   2.0000     -10.204257      -277.6719
   4   2.0000      -1.097571       -29.8664
   5   2.0000      -0.810816       -22.0634
   6   2.0000      -0.667133       -18.1536
   7   2.0000      -0.565917       -15.3994
   8   2.0000      -0.486762       -13.2455
   9   2.0000      -0.472799       -12.8655
  10   2.0000      -0.429043       -11.6748
  11   2.0000      -0.418076       -11.3764
  12   2.0000      -0.404337       -11.0026
  13   2.0000      -0.294413        -8.0114
  14   2.0000      -0.252731        -6.8772
  15   0.0000      -0.072469        -1.9720
  16   0.0000       0.057541         1.5658
  17   0.0000       0.095901         2.6096
  18   0.0000       0.130312         3.5460
  19   0.0000       0.140410         3.8207

MULLIKEN ATOMIC CHARGES
-----------------------
   0 C :    0.180748
   1 O :   -0.339409
   2 C :   -0.089133
   3 C :   -0.241865
   4 H :    0.044670
   5 H :    0.141075
   6 H :    0.161080
   7 H :    0.142833
Sum of atomic charges:   -0.0000000

LOEWDIN ATOMIC CHARGES
----------------------
   0 C :    0.107952
   1 O :   -0.194965
   2 C :   -0.170703
   3 C :   -0.155605
   4 H :    0.028800
   5 H :    0.123191
   6 H :    0.135739
   7 H :    0.125593

  Mayer bond orders larger than 0.100000
B(  0-C ,  1-O ) :   1.8796 B(  0-C ,  2-C ) :   0.9881 B(  0-C ,  4-H ) :   0.8564
B(  2-C ,  3-C ) :   1.8504 B(  2-C ,  5-H ) :   0.9297 B(  3-C ,  6-H ) :   0.9362
B(  3-C ,  7-H ) :   0.9424

-----------------------------------------------------------------------------
         ABSORPTION SPECTRUM VIA TRANSITION ELECTRIC DIPOLE MOMENTS
-----------------------------------------------------------------------------
State   Energy    Wavelength  fosc         T2        TX        TY        TZ
        (cm-1)      (nm)                 (au**2)    (au)      (au)      (au)
-----------------------------------------------------------------------------
   1   27558.9    362.9   0.000238431   0.00285  -0.04280   0.00333   0.03170

FINAL SINGLE POINT ENERGY      -191.583402884382

DIPOLE MOMENT
-------------
                                X             Y             Z
Electronic contribution:     -2.92188      -0.07869      -1.30625
Nuclear contribution   :      4.16852       0.28615       1.60694
                        -----------------------------------------
Total Dipole Moment    :      1.24663       0.20747       0.30070
                        -----------------------------------------
Magnitude (a.u.)       :      1.29906
Magnitude (Debye)      :      3.30195

Rotational constants in cm-1:     1.691518     0.151395     0.139465
Rotational constants in MHz : 50710.439493  4538.708935  4181.054604

                             ****ORCA TERMINATED NORMALLY****
TOTAL RUN TIME: 0 days 0 hours 1 minutes 0 seconds 665 msec
