                         Program Version 5.0.3 -  RELEASE  -
|  1> ! B3LYP 6-31G
|  2> !TightSCF
|  3> %scf
|  4>  ConvForced true
|  5>  convergence tight
|  6>  MaxIter 500
|  7> end
|  8>
|  9> %tddft
| 10>  nroots 1
| 11> end
| 12>
| 13> # 	4745
| 14> * xyz 0 1
| 15> 		C   -1.193748  -0.340825  -0.022525
| 16> 		O   -1.404257  -1.326040  -0.626851
| 17> 		C    0.014056   0.455654  -0.137238
| 18> 		C    1.222543   0.053410   0.163108
| 19> 		H   -1.975848   0.002782   0.751531
| 20> 		H   -0.092870   1.564171  -0.580346
| 21> 		H    1.218761  -1.067714   0.504435
| 22> 		H    2.247001   0.553952  -0.037728
| 23> *
| 24>
| 25>                          ****END OF INPUT****

CARTESIAN COORDINATES (ANGSTROEM)
---------------------------------
  C     -1.193748   -0.340825   -0.022525
  O     -1.404257   -1.326040   -0.626851
  C      0.014056    0.455654   -0.137238
  C      1.222543    0.053410    0.163108
  H     -1.975848    0.002782    0.751531
  H     -0.092870    1.564171   -0.580346
  H      1.218761   -1.067714    0.504435
  H      2.247001    0.553952   -0.037728

 Total Charge           Charge          ....    0
 Multiplicity           Mult            ....    1
 Number of Electrons    NEL             ....   30
 Basis Dimension        Dim             ....   44

ORBITAL ENERGIES
----------------

  NO   OCC          E(Eh)            E(eV)
   0   2.0000     -19.158066      -521.3175
   1   2.0000     -10.286360      -279.9061
   2   2.0000     -10.213450      -277.9221
   3   2.0000     -10.209704      -277.8202
   4   2.0000      -1.101889       -29.9839
   5   2.0000      -0.803991       -21.8777
   6   2.0000      -0.651803       -17.7365
   7   2.0000      -0.539621       -14.6838
   8   2.0000      -0.505490       -13.7551
   9   2.0000      -0.463779       -12.6201
  10   2.0000      -0.444581       -12.0977
  11   2.0000      -0.400981       -10.9113
  12   2.0000      -0.360479        -9.8091
  13   2.0000      -0.292016        -7.9462
  14   2.0000      -0.258767        -7.0414
  15   0.0000      -0.041669        -1.1339
  16   0.0000       0.013769         0.3747
  17   0.0000       0.096213         2.6181
  18   0.0000       0.106949         2.9102
  19   0.0000       0.124182         3.3792

MULLIKEN ATOMIC CHARGES
-----------------------
   0 C :    0.148326
   1 O :   -0.317658
   2 C :   -0.105192
   3 C :   -0.273444
   4 H :    0.101499
   5 H :    0.151284
   6 H :    0.137353
   7 H :    0.157832
Sum of atomic charges:    0.0000000

LOEWDIN ATOMIC CHARGES
----------------------
   0 C :    0.113838
   1 O :   -0.193274
   2 C :   -0.174297
   3 C :   -0.192928
   4 H :    0.068674
   5 H :    0.127308
   6 H :    0.117578
   7 H :    0.133102

  Mayer bond orders larger than 0.100000
B(  0-C ,  1-O ) :   1.9368 B(  0-C ,  2-C ) :   0.9238 B(  0-C ,  4-H ) :   0.8668
B(  2-C ,  3-C ) :   1.9264 B(  2-C ,  5-H ) :   0.9140 B(  3-C ,  6-H ) :   0.9492
B(  3-C ,  7-H ) :   0.9374

-----------------------------------------------------------------------------
         ABSORPTION SPECTRUM VIA TRANSITION ELECTRIC DIPOLE MOMENTS
-----------------------------------------------------------------------------
State   Energy    Wavelength  fosc         T2        TX        TY        TZ
        (cm-1)      (nm)                 (au**2)    (au)      (au)      (au)
-----------------------------------------------------------------------------
   1   33146.9    301.7   0.000068844   0.00068   0.02149   0.00837   0.01233

FINAL SINGLE POINT ENERGY      -191.555547065279

DIPOLE MOMENT
-------------
                                X             Y             Z
Electronic contribution:     -2.21408      -1.38949      -0.84883
Nuclear contribution   :      2.67045       2.18700       1.21722
                        -----------------------------------------
Total Dipole Moment    :      0.45637       0.79751       0.36839
                        -----------------------------------------
Magnitude (a.u.)       :      0.98996
Magnitude (Debye)      :      2.51627

Rotational constants in cm-1:     0.898529     0.185340     0.164220
Rotational constants in MHz : 26937.232932  5556.364405  4923.191926

                             ****ORCA TERMINATED NORMALLY****
TOTAL RUN TIME: 0 days 0 hours 1 minutes 1 seconds 137 msec
