                         Program Version 5.0.3 -  RELEASE  -
|  1> ! B3LYP 6-31G
|  2> !TightSCF
|  3> %scf
|  4>  ConvForced true
|  5>  convergence tight
|  6>  MaxIter 500
|  7> end
|  8>
|  9> %tddft
| 10>  nroots 1
| 11> end
| 12>
| 13> # 	27319
| 14> * xyz 0 1
| 15> 		C   -0.544691  -0.413466   0.073394
| 16> 		O   -0.567916  -1.663073  -0.053082
| 17> 		C    0.617332   0.484687  -0.135674
| 18> 		C    1.782164  -0.166804   0.063278
| 19> 		H   -1.442173   0.056134   0.493826
| 20> 		H    0.537376   1.560435   0.110786
| 21> 		H    1.936407  -1.197650   0.368198
| 22> 		H    2.869570   0.369324  -0.159819
| 23> *
| 24>
| 25>                          ****END OF INPUT****

CARTESIAN COORDINATES (ANGSTROEM)
---------------------------------
  C     -0.544691   -0.413466    0.073394
  O     -0.567916   -1.663073   -0.053082
  C      0.617332    0.484687   -0.135674
  C      1.782164   -0.166804    0.063278
  H     -1.442173    0.056134    0.493826
  H      0.537376    1.560435    0.110786
  H      1.936407   -1.197650    0.368198
  H      2.869570    0.369324   -0.159819

 Total Charge           Charge          ....    0
 Multiplicity           Mult            ....    1
 Number of Electrons    NEL             ....   30
 Basis Dimension        Dim             ....   44

ORBITAL ENERGIES
----------------

  NO   OCC          E(Eh)            E(eV)
   0   2.0000     -19.146101      -520.9919
   1   2.0000     -10.276830      -279.6468
   2   2.0000     -10.229760      -278.3659
   3   2.0000     -10.214606      -277.9536
   4   2.0000      -1.040409       -28.3110
   5   2.0000      -0.804549       -21.8929
   6   2.0000      -0.652420       -17.7532
   7   2.0000      -0.551706       -15.0127
   8   2.0000      -0.506973       -13.7954
   9   2.0000      -0.449320       -12.2266
  10   2.0000      -0.415168       -11.2973
  11   2.0000      -0.395753       -10.7690
  12   2.0000      -0.365068        -9.9340
  13   2.0000      -0.284493        -7.7414
  14   2.0000      -0.253048        -6.8858
  15   0.0000      -0.076144        -2.0720
  16   0.0000       0.032101         0.8735
  17   0.0000       0.085546         2.3278
  18   0.0000       0.116257         3.1635
  19   0.0000       0.153772         4.1844

MULLIKEN ATOMIC CHARGES
-----------------------
   0 C :    0.176947
   1 O :   -0.402846
   2 C :   -0.107617
   3 C :   -0.247738
   4 H :    0.110830
   5 H :    0.154652
   6 H :    0.187096
   7 H :    0.128676
Sum of atomic charges:   -0.0000000

LOEWDIN ATOMIC CHARGES
----------------------
   0 C :    0.116638
   1 O :   -0.265807
   2 C :   -0.182397
   3 C :   -0.135587
   4 H :    0.078513
   5 H :    0.138741
   6 H :    0.138368
   7 H :    0.111530

  Mayer bond orders larger than 0.100000
B(  0-C ,  1-O ) :   1.8292 B(  0-C ,  2-C ) :   0.9830 B(  0-C ,  4-H ) :   0.8903
B(  1-O ,  3-C ) :   0.1027 B(  2-C ,  3-C ) :   1.8169 B(  2-C ,  5-H ) :   0.9273
B(  3-C ,  6-H ) :   0.9237 B(  3-C ,  7-H ) :   0.9410

-----------------------------------------------------------------------------
         ABSORPTION SPECTRUM VIA TRANSITION ELECTRIC DIPOLE MOMENTS
-----------------------------------------------------------------------------
State   Energy    Wavelength  fosc         T2        TX        TY        TZ
        (cm-1)      (nm)                 (au**2)    (au)      (au)      (au)
-----------------------------------------------------------------------------
   1   26085.7    383.4   0.000500833   0.00632  -0.07002  -0.02868  -0.02441

FINAL SINGLE POINT ENERGY      -191.593179198229

DIPOLE MOMENT
-------------
                                X             Y             Z
Electronic contribution:     -1.98438      -1.47942      -0.48984
Nuclear contribution   :      2.50084       2.52669       0.76314
                        -----------------------------------------
Total Dipole Moment    :      0.51646       1.04728       0.27330
                        -----------------------------------------
Magnitude (a.u.)       :      1.19926
Magnitude (Debye)      :      3.04827

Rotational constants in cm-1:     0.704521     0.213681     0.166541
Rotational constants in MHz : 21121.015963  6406.002161  4992.777911

                             ****ORCA TERMINATED NORMALLY****
TOTAL RUN TIME: 0 days 0 hours 1 minutes 1 seconds 703 msec
