                         Program Version 5.0.3 -  RELEASE  -
|  1> ! B3LYP 6-31G
|  2> !TightSCF
|  3> %scf
|  4>  ConvForced true
|  5>  convergence tight
|  6>  MaxIter 500
|  7> end
|  8>
|  9> %tddft
| 10>  nroots 1
| 11> end
| 12>
| 13> # 	1157
| 14> * xyz 0 1
| 15> 		C   -1.128205  -0.353629  -0.082732
| 16> 		O   -2.070810  -0.542046  -0.858404
| 17> 		C    0.061534   0.339435  -0.430250
| 18> 		C    1.155910   0.101218   0.278557
| 19> 		H   -1.387629  -0.885309   1.080352
| 20> 		H    0.061120   1.279395  -1.292766
| 21> 		H    1.183213  -0.623082   1.176903
| 22> 		H    2.077234   0.685006   0.097174
| 23> *
| 24>
| 25>                          ****END OF INPUT****

CARTESIAN COORDINATES (ANGSTROEM)
---------------------------------
  C     -1.128205   -0.353629   -0.082732
  O     -2.070810   -0.542046   -0.858404
  C      0.061534    0.339435   -0.430250
  C      1.155910    0.101218    0.278557
  H     -1.387629   -0.885309    1.080352
  H      0.061120    1.279395   -1.292766
  H      1.183213   -0.623082    1.176903
  H      2.077234    0.685006    0.097174

 Total Charge           Charge          ....    0
 Multiplicity           Mult            ....    1
 Number of Electrons    NEL             ....   30
 Basis Dimension        Dim             ....   44

ORBITAL ENERGIES
----------------

  NO   OCC          E(Eh)            E(eV)
   0   2.0000     -19.146530      -521.0036
   1   2.0000     -10.290530      -280.0196
   2   2.0000     -10.227738      -278.3109
   3   2.0000     -10.224104      -278.2120
   4   2.0000      -1.055428       -28.7197
   5   2.0000      -0.817386       -22.2422
   6   2.0000      -0.649026       -17.6609
   7   2.0000      -0.540554       -14.7092
   8   2.0000      -0.477512       -12.9938
   9   2.0000      -0.471431       -12.8283
  10   2.0000      -0.414587       -11.2815
  11   2.0000      -0.391287       -10.6475
  12   2.0000      -0.376476       -10.2444
  13   2.0000      -0.296273        -8.0620
  14   2.0000      -0.250590        -6.8189
  15   0.0000      -0.068147        -1.8544
  16   0.0000       0.020689         0.5630
  17   0.0000       0.073589         2.0025
  18   0.0000       0.099585         2.7099
  19   0.0000       0.104212         2.8357

MULLIKEN ATOMIC CHARGES
-----------------------
   0 C :    0.166378
   1 O :   -0.380002
   2 C :   -0.078931
   3 C :   -0.274457
   4 H :    0.089549
   5 H :    0.167168
   6 H :    0.159456
   7 H :    0.150839
Sum of atomic charges:   -0.0000000

LOEWDIN ATOMIC CHARGES
----------------------
   0 C :    0.102773
   1 O :   -0.244493
   2 C :   -0.149808
   3 C :   -0.174050
   4 H :    0.068080
   5 H :    0.141416
   6 H :    0.129546
   7 H :    0.126535

  Mayer bond orders larger than 0.100000
B(  0-C ,  1-O ) :   1.8099 B(  0-C ,  2-C ) :   1.0112 B(  0-C ,  4-H ) :   0.8679
B(  1-O ,  3-C ) :   0.1021 B(  2-C ,  3-C ) :   1.8073 B(  2-C ,  5-H ) :   0.9194
B(  3-C ,  6-H ) :   0.9384 B(  3-C ,  7-H ) :   0.9380

-----------------------------------------------------------------------------
         ABSORPTION SPECTRUM VIA TRANSITION ELECTRIC DIPOLE MOMENTS
-----------------------------------------------------------------------------
State   Energy    Wavelength  fosc         T2        TX        TY        TZ
        (cm-1)      (nm)                 (au**2)    (au)      (au)      (au)
-----------------------------------------------------------------------------
   1   27033.1    369.9   0.000202500   0.00247   0.03612  -0.03400   0.00232

FINAL SINGLE POINT ENERGY      -191.576240262766

DIPOLE MOMENT
-------------
                                X             Y             Z
Electronic contribution:     -2.63165      -0.51334      -1.44364
Nuclear contribution   :      3.80711       0.90144       2.02353
                        -----------------------------------------
Total Dipole Moment    :      1.17546       0.38810       0.57989
                        -----------------------------------------
Magnitude (a.u.)       :      1.36696
Magnitude (Debye)      :      3.47455

Rotational constants in cm-1:     1.334940     0.160631     0.145690
Rotational constants in MHz : 40020.490851  4815.587942  4367.685959

                             ****ORCA TERMINATED NORMALLY****
TOTAL RUN TIME: 0 days 0 hours 1 minutes 2 seconds 110 msec
