                         Program Version 5.0.3 -  RELEASE  -
|  1> ! B3LYP 6-31G
|  2> !TightSCF
|  3> %scf
|  4>  ConvForced true
|  5>  convergence tight
|  6>  MaxIter 500
|  7> end
|  8>
|  9> %tddft
| 10>  nroots 1
| 11> end
| 12>
| 13> # 	8951
| 14> * xyz 0 1
| 15> 		C   -1.232652  -0.258620  -0.061795
| 16> 		O   -1.628475  -0.922630  -0.930557
| 17> 		C    0.016268   0.509929  -0.267087
| 18> 		C    1.196475   0.008964   0.140537
| 19> 		H   -1.607464  -0.448357   1.015985
| 20> 		H   -0.109678   1.490995  -0.734673
| 21> 		H    1.140849  -1.041107   0.672544
| 22> 		H    2.176208   0.634448   0.190841
| 23> *
| 24>
| 25>                          ****END OF INPUT****

CARTESIAN COORDINATES (ANGSTROEM)
---------------------------------
  C     -1.232652   -0.258620   -0.061795
  O     -1.628475   -0.922630   -0.930557
  C      0.016268    0.509929   -0.267087
  C      1.196475    0.008964    0.140537
  H     -1.607464   -0.448357    1.015985
  H     -0.109678    1.490995   -0.734673
  H      1.140849   -1.041107    0.672544
  H      2.176208    0.634448    0.190841

 Total Charge           Charge          ....    0
 Multiplicity           Mult            ....    1
 Number of Electrons    NEL             ....   30
 Basis Dimension        Dim             ....   44

ORBITAL ENERGIES
----------------

  NO   OCC          E(Eh)            E(eV)
   0   2.0000     -19.157888      -521.3126
   1   2.0000     -10.285721      -279.8887
   2   2.0000     -10.214840      -277.9599
   3   2.0000     -10.203362      -277.6476
   4   2.0000      -1.111215       -30.2377
   5   2.0000      -0.792979       -21.5781
   6   2.0000      -0.635936       -17.3047
   7   2.0000      -0.560483       -15.2515
   8   2.0000      -0.497313       -13.5326
   9   2.0000      -0.463716       -12.6184
  10   2.0000      -0.439593       -11.9619
  11   2.0000      -0.401032       -10.9126
  12   2.0000      -0.379614       -10.3298
  13   2.0000      -0.283325        -7.7097
  14   2.0000      -0.253208        -6.8901
  15   0.0000      -0.038015        -1.0344
  16   0.0000       0.002790         0.0759
  17   0.0000       0.101614         2.7651
  18   0.0000       0.113265         3.0821
  19   0.0000       0.127487         3.4691

MULLIKEN ATOMIC CHARGES
-----------------------
   0 C :    0.142875
   1 O :   -0.302304
   2 C :   -0.116221
   3 C :   -0.275714
   4 H :    0.105422
   5 H :    0.164078
   6 H :    0.134038
   7 H :    0.147827
Sum of atomic charges:   -0.0000000

LOEWDIN ATOMIC CHARGES
----------------------
   0 C :    0.108843
   1 O :   -0.181986
   2 C :   -0.171778
   3 C :   -0.203369
   4 H :    0.070726
   5 H :    0.132074
   6 H :    0.116880
   7 H :    0.128610

  Mayer bond orders larger than 0.100000
B(  0-C ,  1-O ) :   1.9294 B(  0-C ,  2-C ) :   0.9184 B(  0-C ,  4-H ) :   0.8625
B(  2-C ,  3-C ) :   1.9308 B(  2-C ,  5-H ) :   0.9253 B(  3-C ,  6-H ) :   0.9472
B(  3-C ,  7-H ) :   0.9403

-----------------------------------------------------------------------------
         ABSORPTION SPECTRUM VIA TRANSITION ELECTRIC DIPOLE MOMENTS
-----------------------------------------------------------------------------
State   Energy    Wavelength  fosc         T2        TX        TY        TZ
        (cm-1)      (nm)                 (au**2)    (au)      (au)      (au)
-----------------------------------------------------------------------------
   1   32961.4    303.4   0.001057597   0.01056  -0.00476  -0.03027   0.09810

FINAL SINGLE POINT ENERGY      -191.553202300656

DIPOLE MOMENT
-------------
                                X             Y             Z
Electronic contribution:     -2.66944      -0.72218      -1.48603
Nuclear contribution   :      3.13544       1.32181       2.13512
                        -----------------------------------------
Total Dipole Moment    :      0.46600       0.59963       0.64909
                        -----------------------------------------
Magnitude (a.u.)       :      0.99901
Magnitude (Debye)      :      2.53929

Rotational constants in cm-1:     0.970903     0.173703     0.167414
Rotational constants in MHz : 29106.943390  5207.495246  5018.930563

                             ****ORCA TERMINATED NORMALLY****
TOTAL RUN TIME: 0 days 0 hours 1 minutes 0 seconds 201 msec
