                         Program Version 5.0.3 -  RELEASE  -
|  1> ! B3LYP 6-31G
|  2> !TightSCF
|  3> %scf
|  4>  ConvForced true
|  5>  convergence tight
|  6>  MaxIter 500
|  7> end
|  8>
|  9> %tddft
| 10>  nroots 1
| 11> end
| 12>
| 13> # 	17285
| 14> * xyz 0 1
| 15> 		C   -1.218675  -0.310047   0.023765
| 16> 		O   -1.392767  -1.423652  -0.509309
| 17> 		C   -0.043341   0.525993  -0.227819
| 18> 		C    1.280240   0.038820   0.044932
| 19> 		H   -1.882690   0.013266   0.757595
| 20> 		H   -0.315945   1.489779  -0.477244
| 21> 		H    1.452693  -0.933946   0.377919
| 22> 		H    2.133922   0.580372  -0.051484
| 23> *
| 24>
| 25>                          ****END OF INPUT****

CARTESIAN COORDINATES (ANGSTROEM)
---------------------------------
  C     -1.218675   -0.310047    0.023765
  O     -1.392767   -1.423652   -0.509309
  C     -0.043341    0.525993   -0.227819
  C      1.280240    0.038820    0.044932
  H     -1.882690    0.013266    0.757595
  H     -0.315945    1.489779   -0.477244
  H      1.452693   -0.933946    0.377919
  H      2.133922    0.580372   -0.051484

 Total Charge           Charge          ....    0
 Multiplicity           Mult            ....    1
 Number of Electrons    NEL             ....   30
 Basis Dimension        Dim             ....   44

ORBITAL ENERGIES
----------------

  NO   OCC          E(Eh)            E(eV)
   0   2.0000     -19.146581      -521.0050
   1   2.0000     -10.272213      -279.5211
   2   2.0000     -10.212563      -277.8980
   3   2.0000     -10.208650      -277.7915
   4   2.0000      -1.046017       -28.4636
   5   2.0000      -0.786833       -21.4108
   6   2.0000      -0.677445       -18.4342
   7   2.0000      -0.573674       -15.6105
   8   2.0000      -0.507106       -13.7990
   9   2.0000      -0.457549       -12.4505
  10   2.0000      -0.433908       -11.8072
  11   2.0000      -0.402584       -10.9549
  12   2.0000      -0.368817       -10.0360
  13   2.0000      -0.273292        -7.4366
  14   2.0000      -0.251748        -6.8504
  15   0.0000      -0.059676        -1.6239
  16   0.0000       0.000137         0.0037
  17   0.0000       0.131840         3.5876
  18   0.0000       0.140876         3.8334
  19   0.0000       0.155543         4.2325

MULLIKEN ATOMIC CHARGES
-----------------------
   0 C :    0.157719
   1 O :   -0.377142
   2 C :   -0.112983
   3 C :   -0.244082
   4 H :    0.127005
   5 H :    0.145892
   6 H :    0.157149
   7 H :    0.146442
Sum of atomic charges:   -0.0000000

LOEWDIN ATOMIC CHARGES
----------------------
   0 C :    0.111995
   1 O :   -0.246457
   2 C :   -0.151181
   3 C :   -0.176596
   4 H :    0.087893
   5 H :    0.127466
   6 H :    0.126860
   7 H :    0.120021

  Mayer bond orders larger than 0.100000
B(  0-C ,  1-O ) :   1.8888 B(  0-C ,  2-C ) :   0.9662 B(  0-C ,  4-H ) :   0.8874
B(  2-C ,  3-C ) :   1.9209 B(  2-C ,  5-H ) :   0.9281 B(  3-C ,  6-H ) :   0.9436
B(  3-C ,  7-H ) :   0.9441

-----------------------------------------------------------------------------
         ABSORPTION SPECTRUM VIA TRANSITION ELECTRIC DIPOLE MOMENTS
-----------------------------------------------------------------------------
State   Energy    Wavelength  fosc         T2        TX        TY        TZ
        (cm-1)      (nm)                 (au**2)    (au)      (au)      (au)
-----------------------------------------------------------------------------
   1   28469.8    351.2   0.000088621   0.00102  -0.03021  -0.00949  -0.00468

FINAL SINGLE POINT ENERGY      -191.583211150018

DIPOLE MOMENT
-------------
                                X             Y             Z
Electronic contribution:     -2.18255      -1.30938      -0.70666
Nuclear contribution   :      2.67025       2.30447       1.19665
                        -----------------------------------------
Total Dipole Moment    :      0.48770       0.99509       0.48998
                        -----------------------------------------
Magnitude (a.u.)       :      1.21167
Magnitude (Debye)      :      3.07982

Rotational constants in cm-1:     0.788500     0.184551     0.157854
Rotational constants in MHz : 23638.644260  5532.699770  4732.343763

                             ****ORCA TERMINATED NORMALLY****
TOTAL RUN TIME: 0 days 0 hours 1 minutes 1 seconds 32 msec
