                         Program Version 5.0.3 -  RELEASE  -
|  1> ! B3LYP 6-31G
|  2> !TightSCF
|  3> %scf
|  4>  ConvForced true
|  5>  convergence tight
|  6>  MaxIter 500
|  7> end
|  8>
|  9> %tddft
| 10>  nroots 1
| 11> end
| 12>
| 13> # 	29662
| 14> * xyz 0 1
| 15> 		C   -0.593295  -0.426565   0.080761
| 16> 		O   -0.599151  -1.649059  -0.058533
| 17> 		C    0.612893   0.389479  -0.034507
| 18> 		C    1.879059  -0.075038   0.026794
| 19> 		H   -1.624119   0.096690   0.229153
| 20> 		H    0.498996   1.372663  -0.348889
| 21> 		H    2.021490  -1.189130   0.291893
| 22> 		H    2.926887   0.474111  -0.145079
| 23> *
| 24>
| 25>                          ****END OF INPUT****

CARTESIAN COORDINATES (ANGSTROEM)
---------------------------------
  C     -0.593295   -0.426565    0.080761
  O     -0.599151   -1.649059   -0.058533
  C      0.612893    0.389479   -0.034507
  C      1.879059   -0.075038    0.026794
  H     -1.624119    0.096690    0.229153
  H      0.498996    1.372663   -0.348889
  H      2.021490   -1.189130    0.291893
  H      2.926887    0.474111   -0.145079

 Total Charge           Charge          ....    0
 Multiplicity           Mult            ....    1
 Number of Electrons    NEL             ....   30
 Basis Dimension        Dim             ....   44

ORBITAL ENERGIES
----------------

  NO   OCC          E(Eh)            E(eV)
   0   2.0000     -19.148883      -521.0676
   1   2.0000     -10.284486      -279.8551
   2   2.0000     -10.227331      -278.2998
   3   2.0000     -10.203803      -277.6596
   4   2.0000      -1.058964       -28.8159
   5   2.0000      -0.797366       -21.6974
   6   2.0000      -0.654640       -17.8137
   7   2.0000      -0.543853       -14.7990
   8   2.0000      -0.510915       -13.9027
   9   2.0000      -0.447834       -12.1862
  10   2.0000      -0.424085       -11.5399
  11   2.0000      -0.395431       -10.7602
  12   2.0000      -0.368876       -10.0376
  13   2.0000      -0.286893        -7.8068
  14   2.0000      -0.256144        -6.9700
  15   0.0000      -0.071666        -1.9501
  16   0.0000       0.051967         1.4141
  17   0.0000       0.083750         2.2789
  18   0.0000       0.112596         3.0639
  19   0.0000       0.150642         4.0992

MULLIKEN ATOMIC CHARGES
-----------------------
   0 C :    0.173371
   1 O :   -0.375459
   2 C :   -0.109570
   3 C :   -0.254732
   4 H :    0.109731
   5 H :    0.138701
   6 H :    0.162061
   7 H :    0.155896
Sum of atomic charges:    0.0000000

LOEWDIN ATOMIC CHARGES
----------------------
   0 C :    0.116588
   1 O :   -0.242362
   2 C :   -0.187845
   3 C :   -0.150536
   4 H :    0.080143
   5 H :    0.124454
   6 H :    0.128425
   7 H :    0.131133

  Mayer bond orders larger than 0.100000
B(  0-C ,  1-O ) :   1.8614 B(  0-C ,  2-C ) :   0.9856 B(  0-C ,  4-H ) :   0.8762
B(  2-C ,  3-C ) :   1.8530 B(  2-C ,  5-H ) :   0.9348 B(  3-C ,  6-H ) :   0.9352
B(  3-C ,  7-H ) :   0.9347

-----------------------------------------------------------------------------
         ABSORPTION SPECTRUM VIA TRANSITION ELECTRIC DIPOLE MOMENTS
-----------------------------------------------------------------------------
State   Energy    Wavelength  fosc         T2        TX        TY        TZ
        (cm-1)      (nm)                 (au**2)    (au)      (au)      (au)
-----------------------------------------------------------------------------
   1   27287.7    366.5   0.000146236   0.00176  -0.02962  -0.01912   0.02283

FINAL SINGLE POINT ENERGY      -191.600334046255

DIPOLE MOMENT
-------------
                                X             Y             Z
Electronic contribution:     -1.94238      -1.47760       0.01615
Nuclear contribution   :      2.43074       2.49567       0.02667
                        -----------------------------------------
Total Dipole Moment    :      0.48836       1.01807       0.04283
                        -----------------------------------------
Magnitude (a.u.)       :      1.12995
Magnitude (Debye)      :      2.87211

Rotational constants in cm-1:     0.771301     0.199385     0.159747
Rotational constants in MHz : 23123.031227  5977.416037  4789.098663

                             ****ORCA TERMINATED NORMALLY****
TOTAL RUN TIME: 0 days 0 hours 1 minutes 1 seconds 769 msec
