                         Program Version 5.0.3 -  RELEASE  -
|  1> ! B3LYP 6-31G
|  2> !TightSCF
|  3> %scf
|  4>  ConvForced true
|  5>  convergence tight
|  6>  MaxIter 500
|  7> end
|  8>
|  9> %tddft
| 10>  nroots 1
| 11> end
| 12>
| 13> # 	7779
| 14> * xyz 0 1
| 15> 		C   -1.254199  -0.293201   0.074993
| 16> 		O   -2.206802  -0.196370   0.862451
| 17> 		C    0.167848   0.248914   0.345746
| 18> 		C    1.181902   0.156212  -0.406847
| 19> 		H   -1.389437  -0.926466  -0.907335
| 20> 		H    0.111193   0.668727   1.147346
| 21> 		H    1.322264  -0.147606  -1.162224
| 22> 		H    2.015672   0.464559   0.117233
| 23> *
| 24>
| 25>                          ****END OF INPUT****

CARTESIAN COORDINATES (ANGSTROEM)
---------------------------------
  C     -1.254199   -0.293201    0.074993
  O     -2.206802   -0.196370    0.862451
  C      0.167848    0.248914    0.345746
  C      1.181902    0.156212   -0.406847
  H     -1.389437   -0.926466   -0.907335
  H      0.111193    0.668727    1.147346
  H      1.322264   -0.147606   -1.162224
  H      2.015672    0.464559    0.117233

 Total Charge           Charge          ....    0
 Multiplicity           Mult            ....    1
 Number of Electrons    NEL             ....   30
 Basis Dimension        Dim             ....   44

ORBITAL ENERGIES
----------------

  NO   OCC          E(Eh)            E(eV)
   0   2.0000     -19.156150      -521.2653
   1   2.0000     -10.286543      -279.9111
   2   2.0000     -10.190675      -277.3024
   3   2.0000     -10.178945      -276.9832
   4   2.0000      -1.055716       -28.7275
   5   2.0000      -0.830675       -22.6038
   6   2.0000      -0.676985       -18.4217
   7   2.0000      -0.595189       -16.1959
   8   2.0000      -0.518336       -14.1046
   9   2.0000      -0.484550       -13.1853
  10   2.0000      -0.424520       -11.5518
  11   2.0000      -0.401168       -10.9163
  12   2.0000      -0.392709       -10.6862
  13   2.0000      -0.305007        -8.2997
  14   2.0000      -0.252944        -6.8829
  15   0.0000      -0.064681        -1.7601
  16   0.0000       0.053672         1.4605
  17   0.0000       0.114573         3.1177
  18   0.0000       0.130961         3.5636
  19   0.0000       0.185325         5.0429

MULLIKEN ATOMIC CHARGES
-----------------------
   0 C :    0.194681
   1 O :   -0.390538
   2 C :   -0.049230
   3 C :   -0.174056
   4 H :    0.095192
   5 H :    0.104911
   6 H :    0.078388
   7 H :    0.140651
Sum of atomic charges:    0.0000000

LOEWDIN ATOMIC CHARGES
----------------------
   0 C :    0.124807
   1 O :   -0.241341
   2 C :   -0.132058
   3 C :   -0.167814
   4 H :    0.067238
   5 H :    0.113795
   6 H :    0.100291
   7 H :    0.135081

  Mayer bond orders larger than 0.100000
B(  0-C ,  1-O ) :   1.8286 B(  0-C ,  2-C ) :   0.9763 B(  0-C ,  4-H ) :   0.8687
B(  2-C ,  3-C ) :   1.9553 B(  2-C ,  5-H ) :   0.9330 B(  3-C ,  6-H ) :   0.9550
B(  3-C ,  7-H ) :   0.9412

-----------------------------------------------------------------------------
         ABSORPTION SPECTRUM VIA TRANSITION ELECTRIC DIPOLE MOMENTS
-----------------------------------------------------------------------------
State   Energy    Wavelength  fosc         T2        TX        TY        TZ
        (cm-1)      (nm)                 (au**2)    (au)      (au)      (au)
-----------------------------------------------------------------------------
   1   27803.2    359.7   0.000145409   0.00172  -0.02675  -0.02544   0.01896

FINAL SINGLE POINT ENERGY      -191.487047095914

DIPOLE MOMENT
-------------
                                X             Y             Z
Electronic contribution:     -2.87859      -0.13871       1.06572
Nuclear contribution   :      4.05568       0.16942      -1.62639
                        -----------------------------------------
Total Dipole Moment    :      1.17709       0.03071      -0.56067
                        -----------------------------------------
Magnitude (a.u.)       :      1.30416
Magnitude (Debye)      :      3.31491

Rotational constants in cm-1:     1.811614     0.147689     0.136646
Rotational constants in MHz : 54310.806429  4427.619036  4096.530737

                             ****ORCA TERMINATED NORMALLY****
TOTAL RUN TIME: 0 days 0 hours 0 minutes 44 seconds 949 msec
