                         Program Version 5.0.3 -  RELEASE  -
|  1> ! B3LYP 6-31G
|  2> !TightSCF
|  3> %scf
|  4>  ConvForced true
|  5>  convergence tight
|  6>  MaxIter 500
|  7> end
|  8>
|  9> %tddft
| 10>  nroots 1
| 11> end
| 12>
| 13> # 	18056
| 14> * xyz 0 1
| 15> 		C   -1.226833  -0.359233  -0.077678
| 16> 		O   -1.919188  -0.720102  -0.943563
| 17> 		C    0.033071   0.413456  -0.289067
| 18> 		C    1.205306   0.043133   0.211248
| 19> 		H   -1.390606  -0.555077   0.937563
| 20> 		H   -0.068464   1.418708  -0.804166
| 21> 		H    1.338022  -0.906380   0.816794
| 22> 		H    1.995093   0.680733   0.163590
| 23> *
| 24>
| 25>                          ****END OF INPUT****

CARTESIAN COORDINATES (ANGSTROEM)
---------------------------------
  C     -1.226833   -0.359233   -0.077678
  O     -1.919188   -0.720102   -0.943563
  C      0.033071    0.413456   -0.289067
  C      1.205306    0.043133    0.211248
  H     -1.390606   -0.555077    0.937563
  H     -0.068464    1.418708   -0.804166
  H      1.338022   -0.906380    0.816794
  H      1.995093    0.680733    0.163590

 Total Charge           Charge          ....    0
 Multiplicity           Mult            ....    1
 Number of Electrons    NEL             ....   30
 Basis Dimension        Dim             ....   44

ORBITAL ENERGIES
----------------

  NO   OCC          E(Eh)            E(eV)
   0   2.0000     -19.154884      -521.2309
   1   2.0000     -10.275401      -279.6079
   2   2.0000     -10.201751      -277.6038
   3   2.0000     -10.197093      -277.4770
   4   2.0000      -1.102835       -30.0097
   5   2.0000      -0.799338       -21.7511
   6   2.0000      -0.655262       -17.8306
   7   2.0000      -0.572358       -15.5746
   8   2.0000      -0.493399       -13.4261
   9   2.0000      -0.475066       -12.9272
  10   2.0000      -0.440783       -11.9943
  11   2.0000      -0.407654       -11.0928
  12   2.0000      -0.381517       -10.3816
  13   2.0000      -0.286502        -7.7961
  14   2.0000      -0.255641        -6.9564
  15   0.0000      -0.044926        -1.2225
  16   0.0000       0.025059         0.6819
  17   0.0000       0.113977         3.1015
  18   0.0000       0.129542         3.5250
  19   0.0000       0.154696         4.2095

MULLIKEN ATOMIC CHARGES
-----------------------
   0 C :    0.164332
   1 O :   -0.319738
   2 C :   -0.129085
   3 C :   -0.264254
   4 H :    0.112828
   5 H :    0.156883
   6 H :    0.140741
   7 H :    0.138293
Sum of atomic charges:   -0.0000000

LOEWDIN ATOMIC CHARGES
----------------------
   0 C :    0.111456
   1 O :   -0.186956
   2 C :   -0.164013
   3 C :   -0.205055
   4 H :    0.074217
   5 H :    0.131342
   6 H :    0.119168
   7 H :    0.119841

  Mayer bond orders larger than 0.100000
B(  0-C ,  1-O ) :   1.9331 B(  0-C ,  2-C ) :   0.9346 B(  0-C ,  4-H ) :   0.8777
B(  2-C ,  3-C ) :   1.9267 B(  2-C ,  5-H ) :   0.9280 B(  3-C ,  6-H ) :   0.9488
B(  3-C ,  7-H ) :   0.9447

-----------------------------------------------------------------------------
         ABSORPTION SPECTRUM VIA TRANSITION ELECTRIC DIPOLE MOMENTS
-----------------------------------------------------------------------------
State   Energy    Wavelength  fosc         T2        TX        TY        TZ
        (cm-1)      (nm)                 (au**2)    (au)      (au)      (au)
-----------------------------------------------------------------------------
   1   32343.8    309.2   0.000265266   0.00270  -0.03745  -0.01188  -0.03400

FINAL SINGLE POINT ENERGY      -191.568774628650

DIPOLE MOMENT
-------------
                                X             Y             Z
Electronic contribution:     -2.92798      -0.81763      -1.38845
Nuclear contribution   :      3.65692       1.24030       2.09549
                        -----------------------------------------
Total Dipole Moment    :      0.72894       0.42267       0.70703
                        -----------------------------------------
Magnitude (a.u.)       :      1.09995
Magnitude (Debye)      :      2.79586

Rotational constants in cm-1:     1.296664     0.158861     0.151855
Rotational constants in MHz : 38872.995976  4762.547768  4552.484346

                             ****ORCA TERMINATED NORMALLY****
TOTAL RUN TIME: 0 days 0 hours 0 minutes 58 seconds 609 msec
