                         Program Version 5.0.3 -  RELEASE  -
|  1> ! B3LYP 6-31G
|  2> !TightSCF
|  3> %scf
|  4>  ConvForced true
|  5>  convergence tight
|  6>  MaxIter 500
|  7> end
|  8>
|  9> %tddft
| 10>  nroots 1
| 11> end
| 12>
| 13> # 	12383
| 14> * xyz 0 1
| 15> 		C   -1.151986  -0.354527  -0.040343
| 16> 		O   -1.240969  -1.445072  -0.423135
| 17> 		C    0.031385   0.510852  -0.135401
| 18> 		C    1.223053  -0.055857   0.071598
| 19> 		H   -2.136144   0.194408   0.444965
| 20> 		H   -0.194551   1.687377  -0.207278
| 21> 		H    1.387137  -1.083555   0.312649
| 22> 		H    2.072459   0.556473  -0.071178
| 23> *
| 24>
| 25>                          ****END OF INPUT****

CARTESIAN COORDINATES (ANGSTROEM)
---------------------------------
  C     -1.151986   -0.354527   -0.040343
  O     -1.240969   -1.445072   -0.423135
  C      0.031385    0.510852   -0.135401
  C      1.223053   -0.055857    0.071598
  H     -2.136144    0.194408    0.444965
  H     -0.194551    1.687377   -0.207278
  H      1.387137   -1.083555    0.312649
  H      2.072459    0.556473   -0.071178

 Total Charge           Charge          ....    0
 Multiplicity           Mult            ....    1
 Number of Electrons    NEL             ....   30
 Basis Dimension        Dim             ....   44

ORBITAL ENERGIES
----------------

  NO   OCC          E(Eh)            E(eV)
   0   2.0000     -19.153899      -521.2041
   1   2.0000     -10.283254      -279.8216
   2   2.0000     -10.214683      -277.9557
   3   2.0000     -10.204669      -277.6832
   4   2.0000      -1.107045       -30.1242
   5   2.0000      -0.802947       -21.8493
   6   2.0000      -0.654424       -17.8078
   7   2.0000      -0.531688       -14.4680
   8   2.0000      -0.511877       -13.9289
   9   2.0000      -0.454383       -12.3644
  10   2.0000      -0.442758       -12.0481
  11   2.0000      -0.406744       -11.0681
  12   2.0000      -0.391535       -10.6542
  13   2.0000      -0.290628        -7.9084
  14   2.0000      -0.251909        -6.8548
  15   0.0000      -0.055102        -1.4994
  16   0.0000       0.048183         1.3111
  17   0.0000       0.081652         2.2219
  18   0.0000       0.124507         3.3880
  19   0.0000       0.137318         3.7366

MULLIKEN ATOMIC CHARGES
-----------------------
   0 C :    0.159164
   1 O :   -0.321016
   2 C :   -0.101452
   3 C :   -0.267965
   4 H :    0.061877
   5 H :    0.151303
   6 H :    0.173556
   7 H :    0.144533
Sum of atomic charges:    0.0000000

LOEWDIN ATOMIC CHARGES
----------------------
   0 C :    0.104760
   1 O :   -0.193172
   2 C :   -0.166858
   3 C :   -0.174633
   4 H :    0.040213
   5 H :    0.130044
   6 H :    0.136128
   7 H :    0.123518

  Mayer bond orders larger than 0.100000
B(  0-C ,  1-O ) :   1.9182 B(  0-C ,  2-C ) :   0.9479 B(  0-C ,  4-H ) :   0.8503
B(  2-C ,  3-C ) :   1.8866 B(  2-C ,  5-H ) :   0.9219 B(  3-C ,  6-H ) :   0.9363
B(  3-C ,  7-H ) :   0.9440

-----------------------------------------------------------------------------
         ABSORPTION SPECTRUM VIA TRANSITION ELECTRIC DIPOLE MOMENTS
-----------------------------------------------------------------------------
State   Energy    Wavelength  fosc         T2        TX        TY        TZ
        (cm-1)      (nm)                 (au**2)    (au)      (au)      (au)
-----------------------------------------------------------------------------
   1   30637.6    326.4   0.001241366   0.01334  -0.11227  -0.01768  -0.02052

FINAL SINGLE POINT ENERGY      -191.573229021138

DIPOLE MOMENT
-------------
                                X             Y             Z
Electronic contribution:     -1.65245      -1.77751      -0.66366
Nuclear contribution   :      2.21580       2.63036       0.94981
                        -----------------------------------------
Total Dipole Moment    :      0.56335       0.85286       0.28614
                        -----------------------------------------
Magnitude (a.u.)       :      1.06142
Magnitude (Debye)      :      2.69791

Rotational constants in cm-1:     0.778408     0.207624     0.168414
Rotational constants in MHz : 23336.083530  6224.415965  5048.927181

                             ****ORCA TERMINATED NORMALLY****
TOTAL RUN TIME: 0 days 0 hours 1 minutes 0 seconds 377 msec
