                         Program Version 5.0.3 -  RELEASE  -
|  1> ! B3LYP 6-31G
|  2> !TightSCF
|  3> %scf
|  4>  ConvForced true
|  5>  convergence tight
|  6>  MaxIter 500
|  7> end
|  8>
|  9> %tddft
| 10>  nroots 1
| 11> end
| 12>
| 13> # 	2403
| 14> * xyz 0 1
| 15> 		C   -1.206957  -0.311497  -0.016969
| 16> 		O   -1.256769  -1.463577   0.244620
| 17> 		C   -0.001773   0.512998   0.125149
| 18> 		C    1.232384   0.044180  -0.122344
| 19> 		H   -2.270865   0.105370  -0.296859
| 20> 		H   -0.101204   1.653997   0.129620
| 21> 		H    1.331520  -1.086764  -0.087386
| 22> 		H    2.299568   0.605237  -0.053174
| 23> *
| 24>
| 25>                          ****END OF INPUT****

CARTESIAN COORDINATES (ANGSTROEM)
---------------------------------
  C     -1.206957   -0.311497   -0.016969
  O     -1.256769   -1.463577    0.244620
  C     -0.001773    0.512998    0.125149
  C      1.232384    0.044180   -0.122344
  H     -2.270865    0.105370   -0.296859
  H     -0.101204    1.653997    0.129620
  H      1.331520   -1.086764   -0.087386
  H      2.299568    0.605237   -0.053174

 Total Charge           Charge          ....    0
 Multiplicity           Mult            ....    1
 Number of Electrons    NEL             ....   30
 Basis Dimension        Dim             ....   44

ORBITAL ENERGIES
----------------

  NO   OCC          E(Eh)            E(eV)
   0   2.0000     -19.148003      -521.0437
   1   2.0000     -10.284643      -279.8594
   2   2.0000     -10.225302      -278.2446
   3   2.0000     -10.213877      -277.9337
   4   2.0000      -1.091502       -29.7013
   5   2.0000      -0.797937       -21.7130
   6   2.0000      -0.645923       -17.5765
   7   2.0000      -0.535286       -14.5659
   8   2.0000      -0.513138       -13.9632
   9   2.0000      -0.448172       -12.1954
  10   2.0000      -0.430097       -11.7035
  11   2.0000      -0.407987       -11.1019
  12   2.0000      -0.365195        -9.9375
  13   2.0000      -0.290654        -7.9091
  14   2.0000      -0.253875        -6.9083
  15   0.0000      -0.064624        -1.7585
  16   0.0000       0.048307         1.3145
  17   0.0000       0.076201         2.0735
  18   0.0000       0.114961         3.1282
  19   0.0000       0.137886         3.7521

MULLIKEN ATOMIC CHARGES
-----------------------
   0 C :    0.152642
   1 O :   -0.341955
   2 C :   -0.105892
   3 C :   -0.267417
   4 H :    0.105845
   5 H :    0.140179
   6 H :    0.163128
   7 H :    0.153471
Sum of atomic charges:    0.0000000

LOEWDIN ATOMIC CHARGES
----------------------
   0 C :    0.103832
   1 O :   -0.220591
   2 C :   -0.176091
   3 C :   -0.165809
   4 H :    0.076292
   5 H :    0.123605
   6 H :    0.127991
   7 H :    0.130771

  Mayer bond orders larger than 0.100000
B(  0-C ,  1-O ) :   1.8773 B(  0-C ,  2-C ) :   0.9572 B(  0-C ,  4-H ) :   0.8799
B(  2-C ,  3-C ) :   1.8576 B(  2-C ,  5-H ) :   0.9276 B(  3-C ,  6-H ) :   0.9315
B(  3-C ,  7-H ) :   0.9355

-----------------------------------------------------------------------------
         ABSORPTION SPECTRUM VIA TRANSITION ELECTRIC DIPOLE MOMENTS
-----------------------------------------------------------------------------
State   Energy    Wavelength  fosc         T2        TX        TY        TZ
        (cm-1)      (nm)                 (au**2)    (au)      (au)      (au)
-----------------------------------------------------------------------------
   1   28762.8    347.7   0.000753232   0.00862   0.09031   0.00587  -0.02077

FINAL SINGLE POINT ENERGY      -191.579614456890

DIPOLE MOMENT
-------------
                                X             Y             Z
Electronic contribution:     -1.93670      -1.55612       0.33269
Nuclear contribution   :      2.40941       2.46588      -0.51587
                        -----------------------------------------
Total Dipole Moment    :      0.47271       0.90976      -0.18318
                        -----------------------------------------
Magnitude (a.u.)       :      1.04147
Magnitude (Debye)      :      2.64721

Rotational constants in cm-1:     0.809429     0.198861     0.162030
Rotational constants in MHz : 24266.057320  5961.695829  4857.545939

                             ****ORCA TERMINATED NORMALLY****
TOTAL RUN TIME: 0 days 0 hours 0 minutes 52 seconds 463 msec
