                         Program Version 5.0.3 -  RELEASE  -
|  1> ! B3LYP 6-31G
|  2> !TightSCF
|  3> %scf
|  4>  ConvForced true
|  5>  convergence tight
|  6>  MaxIter 500
|  7> end
|  8>
|  9> %tddft
| 10>  nroots 1
| 11> end
| 12>
| 13> # 	29942
| 14> * xyz 0 1
| 15> 		C   -0.580196  -0.411478  -0.102584
| 16> 		O   -0.595126  -1.667693   0.059344
| 17> 		C    0.610623   0.419892   0.077063
| 18> 		C    1.870059  -0.090087  -0.049226
| 19> 		H   -1.650476   0.083564  -0.255174
| 20> 		H    0.393249   1.400777   0.320426
| 21> 		H    2.036018  -1.167169  -0.088898
| 22> 		H    2.948841   0.379776  -0.007876
| 23> *
| 24>
| 25>                          ****END OF INPUT****

CARTESIAN COORDINATES (ANGSTROEM)
---------------------------------
  C     -0.580196   -0.411478   -0.102584
  O     -0.595126   -1.667693    0.059344
  C      0.610623    0.419892    0.077063
  C      1.870059   -0.090087   -0.049226
  H     -1.650476    0.083564   -0.255174
  H      0.393249    1.400777    0.320426
  H      2.036018   -1.167169   -0.088898
  H      2.948841    0.379776   -0.007876

 Total Charge           Charge          ....    0
 Multiplicity           Mult            ....    1
 Number of Electrons    NEL             ....   30
 Basis Dimension        Dim             ....   44

ORBITAL ENERGIES
----------------

  NO   OCC          E(Eh)            E(eV)
   0   2.0000     -19.146340      -520.9984
   1   2.0000     -10.285542      -279.8838
   2   2.0000     -10.225635      -278.2537
   3   2.0000     -10.211618      -277.8722
   4   2.0000      -1.035195       -28.1691
   5   2.0000      -0.797582       -21.7033
   6   2.0000      -0.661455       -17.9991
   7   2.0000      -0.549164       -14.9435
   8   2.0000      -0.505399       -13.7526
   9   2.0000      -0.456413       -12.4196
  10   2.0000      -0.413957       -11.2644
  11   2.0000      -0.387798       -10.5525
  12   2.0000      -0.373328       -10.1588
  13   2.0000      -0.283024        -7.7015
  14   2.0000      -0.252957        -6.8833
  15   0.0000      -0.077990        -2.1222
  16   0.0000       0.041072         1.1176
  17   0.0000       0.085281         2.3206
  18   0.0000       0.117513         3.1977
  19   0.0000       0.151622         4.1258

MULLIKEN ATOMIC CHARGES
-----------------------
   0 C :    0.164774
   1 O :   -0.396752
   2 C :   -0.100392
   3 C :   -0.255083
   4 H :    0.115301
   5 H :    0.141891
   6 H :    0.174103
   7 H :    0.156157
Sum of atomic charges:   -0.0000000

LOEWDIN ATOMIC CHARGES
----------------------
   0 C :    0.114925
   1 O :   -0.266613
   2 C :   -0.170623
   3 C :   -0.149521
   4 H :    0.085323
   5 H :    0.125849
   6 H :    0.131891
   7 H :    0.128768

  Mayer bond orders larger than 0.100000
B(  0-C ,  1-O ) :   1.8344 B(  0-C ,  2-C ) :   0.9932 B(  0-C ,  4-H ) :   0.8790
B(  1-O ,  3-C ) :   0.1067 B(  2-C ,  3-C ) :   1.8629 B(  2-C ,  5-H ) :   0.9328
B(  3-C ,  6-H ) :   0.9280 B(  3-C ,  7-H ) :   0.9353

-----------------------------------------------------------------------------
         ABSORPTION SPECTRUM VIA TRANSITION ELECTRIC DIPOLE MOMENTS
-----------------------------------------------------------------------------
State   Energy    Wavelength  fosc         T2        TX        TY        TZ
        (cm-1)      (nm)                 (au**2)    (au)      (au)      (au)
-----------------------------------------------------------------------------
   1   25334.5    394.7   0.000064654   0.00084   0.01636  -0.01791  -0.01586

FINAL SINGLE POINT ENERGY      -191.605927676050

DIPOLE MOMENT
-------------
                                X             Y             Z
Electronic contribution:     -1.81508      -1.39619      -0.02092
Nuclear contribution   :      2.34176       2.44090      -0.03003
                        -----------------------------------------
Total Dipole Moment    :      0.52668       1.04470      -0.05095
                        -----------------------------------------
Magnitude (a.u.)       :      1.17106
Magnitude (Debye)      :      2.97660

Rotational constants in cm-1:     0.730675     0.200739     0.158841
Rotational constants in MHz : 21905.090261  6018.001957  4761.932505

                             ****ORCA TERMINATED NORMALLY****
TOTAL RUN TIME: 0 days 0 hours 0 minutes 46 seconds 416 msec
