                         Program Version 5.0.3 -  RELEASE  -
|  1> ! B3LYP 6-31G
|  2> !TightSCF
|  3> %scf
|  4>  ConvForced true
|  5>  convergence tight
|  6>  MaxIter 500
|  7> end
|  8>
|  9> %tddft
| 10>  nroots 1
| 11> end
| 12>
| 13> # 	1578
| 14> * xyz 0 1
| 15> 		C   -1.171286  -0.459253   0.021894
| 16> 		O   -2.297206  -0.329262   0.599327
| 17> 		C   -0.023777   0.453035   0.395202
| 18> 		C    1.172687   0.238946  -0.249050
| 19> 		H   -1.189089  -1.058815  -0.845491
| 20> 		H    0.062009   1.004233   1.095903
| 21> 		H    1.199455  -0.597535  -1.065170
| 22> 		H    2.205629   0.778161   0.018009
| 23> *
| 24>
| 25>                          ****END OF INPUT****

CARTESIAN COORDINATES (ANGSTROEM)
---------------------------------
  C     -1.171286   -0.459253    0.021894
  O     -2.297206   -0.329262    0.599327
  C     -0.023777    0.453035    0.395202
  C      1.172687    0.238946   -0.249050
  H     -1.189089   -1.058815   -0.845491
  H      0.062009    1.004233    1.095903
  H      1.199455   -0.597535   -1.065170
  H      2.205629    0.778161    0.018009

 Total Charge           Charge          ....    0
 Multiplicity           Mult            ....    1
 Number of Electrons    NEL             ....   30
 Basis Dimension        Dim             ....   44

ORBITAL ENERGIES
----------------

  NO   OCC          E(Eh)            E(eV)
   0   2.0000     -19.144221      -520.9407
   1   2.0000     -10.280972      -279.7595
   2   2.0000     -10.234885      -278.5054
   3   2.0000     -10.201989      -277.6102
   4   2.0000      -1.031814       -28.0771
   5   2.0000      -0.805902       -21.9297
   6   2.0000      -0.635666       -17.2974
   7   2.0000      -0.605115       -16.4660
   8   2.0000      -0.500475       -13.6186
   9   2.0000      -0.458285       -12.4706
  10   2.0000      -0.404102       -10.9962
  11   2.0000      -0.392351       -10.6764
  12   2.0000      -0.383651       -10.4397
  13   2.0000      -0.286259        -7.7895
  14   2.0000      -0.253028        -6.8852
  15   0.0000      -0.073213        -1.9922
  16   0.0000       0.031216         0.8494
  17   0.0000       0.078547         2.1374
  18   0.0000       0.120165         3.2698
  19   0.0000       0.136638         3.7181

MULLIKEN ATOMIC CHARGES
-----------------------
   0 C :    0.191472
   1 O :   -0.407533
   2 C :   -0.026585
   3 C :   -0.284357
   4 H :    0.133231
   5 H :    0.101521
   6 H :    0.138851
   7 H :    0.153400
Sum of atomic charges:   -0.0000000

LOEWDIN ATOMIC CHARGES
----------------------
   0 C :    0.123025
   1 O :   -0.267730
   2 C :   -0.149226
   3 C :   -0.168743
   4 H :    0.100033
   5 H :    0.118062
   6 H :    0.116040
   7 H :    0.128539

  Mayer bond orders larger than 0.100000
B(  0-C ,  1-O ) :   1.8007 B(  0-C ,  2-C ) :   1.0088 B(  0-C ,  4-H ) :   0.9047
B(  1-O ,  3-C ) :   0.1032 B(  2-C ,  3-C ) :   1.7971 B(  2-C ,  5-H ) :   0.9611
B(  3-C ,  6-H ) :   0.9457 B(  3-C ,  7-H ) :   0.9353

-----------------------------------------------------------------------------
         ABSORPTION SPECTRUM VIA TRANSITION ELECTRIC DIPOLE MOMENTS
-----------------------------------------------------------------------------
State   Energy    Wavelength  fosc         T2        TX        TY        TZ
        (cm-1)      (nm)                 (au**2)    (au)      (au)      (au)
-----------------------------------------------------------------------------
   1   25973.8    385.0   0.000152868   0.00194  -0.03193  -0.02453  -0.01778

FINAL SINGLE POINT ENERGY      -191.565342336933

DIPOLE MOMENT
-------------
                                X             Y             Z
Electronic contribution:     -3.12836      -0.24866       1.01674
Nuclear contribution   :      4.43675       0.27100      -1.46465
                        -----------------------------------------
Total Dipole Moment    :      1.30839       0.02234      -0.44791
                        -----------------------------------------
Magnitude (a.u.)       :      1.38312
Magnitude (Debye)      :      3.51561

Rotational constants in cm-1:     1.506236     0.150000     0.136562
Rotational constants in MHz : 45155.815001  4496.879767  4094.015839

                             ****ORCA TERMINATED NORMALLY****
TOTAL RUN TIME: 0 days 0 hours 0 minutes 52 seconds 965 msec
