                         Program Version 5.0.3 -  RELEASE  -
|  1> ! B3LYP 6-31G
|  2> !TightSCF
|  3> %scf
|  4>  ConvForced true
|  5>  convergence tight
|  6>  MaxIter 500
|  7> end
|  8>
|  9> %tddft
| 10>  nroots 1
| 11> end
| 12>
| 13> # 	15020
| 14> * xyz 0 1
| 15> 		C   -1.253369  -0.304396  -0.065047
| 16> 		O   -1.096574  -1.448962   0.014908
| 17> 		C    0.054963   0.596135  -0.024539
| 18> 		C    1.261639  -0.031700   0.022529
| 19> 		H   -2.221231   0.223966   0.035323
| 20> 		H   -0.272416   1.625183   0.199288
| 21> 		H    1.393072  -1.279826  -0.240101
| 22> 		H    2.155318   0.603499   0.011999
| 23> *
| 24>
| 25>                          ****END OF INPUT****

CARTESIAN COORDINATES (ANGSTROEM)
---------------------------------
  C     -1.253369   -0.304396   -0.065047
  O     -1.096574   -1.448962    0.014908
  C      0.054963    0.596135   -0.024539
  C      1.261639   -0.031700    0.022529
  H     -2.221231    0.223966    0.035323
  H     -0.272416    1.625183    0.199288
  H      1.393072   -1.279826   -0.240101
  H      2.155318    0.603499    0.011999

 Total Charge           Charge          ....    0
 Multiplicity           Mult            ....    1
 Number of Electrons    NEL             ....   30
 Basis Dimension        Dim             ....   44

ORBITAL ENERGIES
----------------

  NO   OCC          E(Eh)            E(eV)
   0   2.0000     -19.153146      -521.1836
   1   2.0000     -10.280557      -279.7482
   2   2.0000     -10.218474      -278.0588
   3   2.0000     -10.204434      -277.6768
   4   2.0000      -1.107673       -30.1413
   5   2.0000      -0.771637       -20.9973
   6   2.0000      -0.638865       -17.3844
   7   2.0000      -0.543836       -14.7985
   8   2.0000      -0.492699       -13.4070
   9   2.0000      -0.441779       -12.0214
  10   2.0000      -0.430815       -11.7231
  11   2.0000      -0.419619       -11.4184
  12   2.0000      -0.366079        -9.9615
  13   2.0000      -0.278720        -7.5844
  14   2.0000      -0.249790        -6.7971
  15   0.0000      -0.055571        -1.5122
  16   0.0000       0.049007         1.3335
  17   0.0000       0.076463         2.0807
  18   0.0000       0.114983         3.1289
  19   0.0000       0.152050         4.1375

MULLIKEN ATOMIC CHARGES
-----------------------
   0 C :    0.181018
   1 O :   -0.322637
   2 C :   -0.138155
   3 C :   -0.266022
   4 H :    0.108854
   5 H :    0.133578
   6 H :    0.162690
   7 H :    0.140675
Sum of atomic charges:   -0.0000000

LOEWDIN ATOMIC CHARGES
----------------------
   0 C :    0.105105
   1 O :   -0.192544
   2 C :   -0.195986
   3 C :   -0.174857
   4 H :    0.074329
   5 H :    0.118866
   6 H :    0.141925
   7 H :    0.123162

  Mayer bond orders larger than 0.100000
B(  0-C ,  1-O ) :   1.9152 B(  0-C ,  2-C ) :   0.9217 B(  0-C ,  4-H ) :   0.8605
B(  2-C ,  3-C ) :   1.8946 B(  2-C ,  5-H ) :   0.9237 B(  3-C ,  6-H ) :   0.9209
B(  3-C ,  7-H ) :   0.9359

-----------------------------------------------------------------------------
         ABSORPTION SPECTRUM VIA TRANSITION ELECTRIC DIPOLE MOMENTS
-----------------------------------------------------------------------------
State   Energy    Wavelength  fosc         T2        TX        TY        TZ
        (cm-1)      (nm)                 (au**2)    (au)      (au)      (au)
-----------------------------------------------------------------------------
   1   29877.1    334.7   0.000155196   0.00171   0.04001   0.00924   0.00485

FINAL SINGLE POINT ENERGY      -191.561040428134

DIPOLE MOMENT
-------------
                                X             Y             Z
Electronic contribution:     -1.89556      -1.49803      -0.08698
Nuclear contribution   :      2.02979       2.34738       0.04398
                        -----------------------------------------
Total Dipole Moment    :      0.13424       0.84935      -0.04300
                        -----------------------------------------
Magnitude (a.u.)       :      0.86096
Magnitude (Debye)      :      2.18840

Rotational constants in cm-1:     0.695743     0.216154     0.165431
Rotational constants in MHz : 20857.848425  6480.137133  4959.491990

                             ****ORCA TERMINATED NORMALLY****
TOTAL RUN TIME: 0 days 0 hours 1 minutes 0 seconds 986 msec
