                         Program Version 5.0.3 -  RELEASE  -
|  1> ! B3LYP 6-31G
|  2> !TightSCF
|  3> %scf
|  4>  ConvForced true
|  5>  convergence tight
|  6>  MaxIter 500
|  7> end
|  8>
|  9> %tddft
| 10>  nroots 1
| 11> end
| 12>
| 13> # 	2011
| 14> * xyz 0 1
| 15> 		C   -1.231002  -0.322850  -0.110327
| 16> 		O   -1.668811  -0.967478  -0.984857
| 17> 		C    0.057101   0.470334  -0.301995
| 18> 		C    1.147805   0.057039   0.293834
| 19> 		H   -1.496270  -0.298640   1.073460
| 20> 		H   -0.091108   1.382658  -0.844439
| 21> 		H    1.161294  -0.976910   0.702159
| 22> 		H    2.080721   0.624964   0.185862
| 23> *
| 24>
| 25>                          ****END OF INPUT****

CARTESIAN COORDINATES (ANGSTROEM)
---------------------------------
  C     -1.231002   -0.322850   -0.110327
  O     -1.668811   -0.967478   -0.984857
  C      0.057101    0.470334   -0.301995
  C      1.147805    0.057039    0.293834
  H     -1.496270   -0.298640    1.073460
  H     -0.091108    1.382658   -0.844439
  H      1.161294   -0.976910    0.702159
  H      2.080721    0.624964    0.185862

 Total Charge           Charge          ....    0
 Multiplicity           Mult            ....    1
 Number of Electrons    NEL             ....   30
 Basis Dimension        Dim             ....   44

ORBITAL ENERGIES
----------------

  NO   OCC          E(Eh)            E(eV)
   0   2.0000     -19.167582      -521.5764
   1   2.0000     -10.294138      -280.1177
   2   2.0000     -10.197666      -277.4926
   3   2.0000     -10.196294      -277.4553
   4   2.0000      -1.108628       -30.1673
   5   2.0000      -0.800565       -21.7845
   6   2.0000      -0.638525       -17.3751
   7   2.0000      -0.557311       -15.1652
   8   2.0000      -0.490411       -13.3448
   9   2.0000      -0.468744       -12.7552
  10   2.0000      -0.445206       -12.1147
  11   2.0000      -0.405471       -11.0334
  12   2.0000      -0.391007       -10.6399
  13   2.0000      -0.286088        -7.7848
  14   2.0000      -0.255316        -6.9475
  15   0.0000      -0.039496        -1.0747
  16   0.0000       0.012289         0.3344
  17   0.0000       0.104118         2.8332
  18   0.0000       0.124659         3.3921
  19   0.0000       0.127089         3.4583

MULLIKEN ATOMIC CHARGES
-----------------------
   0 C :    0.170496
   1 O :   -0.321015
   2 C :   -0.115959
   3 C :   -0.281902
   4 H :    0.099436
   5 H :    0.161646
   6 H :    0.142812
   7 H :    0.144486
Sum of atomic charges:    0.0000000

LOEWDIN ATOMIC CHARGES
----------------------
   0 C :    0.117171
   1 O :   -0.177663
   2 C :   -0.171215
   3 C :   -0.210442
   4 H :    0.065573
   5 H :    0.129858
   6 H :    0.122165
   7 H :    0.124553

  Mayer bond orders larger than 0.100000
B(  0-C ,  1-O ) :   1.9220 B(  0-C ,  2-C ) :   0.9084 B(  0-C ,  4-H ) :   0.8370
B(  2-C ,  3-C ) :   1.9473 B(  2-C ,  5-H ) :   0.9269 B(  3-C ,  6-H ) :   0.9461
B(  3-C ,  7-H ) :   0.9458

-----------------------------------------------------------------------------
         ABSORPTION SPECTRUM VIA TRANSITION ELECTRIC DIPOLE MOMENTS
-----------------------------------------------------------------------------
State   Energy    Wavelength  fosc         T2        TX        TY        TZ
        (cm-1)      (nm)                 (au**2)    (au)      (au)      (au)
-----------------------------------------------------------------------------
   1   33090.3    302.2   0.000821557   0.00817  -0.03078  -0.01080   0.08432

FINAL SINGLE POINT ENERGY      -191.558628475761

DIPOLE MOMENT
-------------
                                X             Y             Z
Electronic contribution:     -2.71021      -0.94495      -1.57723
Nuclear contribution   :      3.23083       1.49800       2.11224
                        -----------------------------------------
Total Dipole Moment    :      0.52062       0.55305       0.53500
                        -----------------------------------------
Magnitude (a.u.)       :      0.92906
Magnitude (Debye)      :      2.36148

Rotational constants in cm-1:     1.044669     0.166913     0.162717
Rotational constants in MHz : 31318.380466  5003.925321  4878.126285

                             ****ORCA TERMINATED NORMALLY****
TOTAL RUN TIME: 0 days 0 hours 0 minutes 56 seconds 270 msec
