                         Program Version 5.0.3 -  RELEASE  -
|  1> ! B3LYP 6-31G
|  2> !TightSCF
|  3> %scf
|  4>  ConvForced true
|  5>  convergence tight
|  6>  MaxIter 500
|  7> end
|  8>
|  9> %tddft
| 10>  nroots 1
| 11> end
| 12>
| 13> # 	8306
| 14> * xyz 0 1
| 15> 		C   -1.213316  -0.296912  -0.084928
| 16> 		O   -1.358383  -1.418994  -0.686658
| 17> 		C    0.055377   0.472092  -0.183241
| 18> 		C    1.183113  -0.010817   0.136684
| 19> 		H   -2.032969   0.046186   0.780704
| 20> 		H    0.009554   1.453060  -0.505725
| 21> 		H    1.205525  -0.892103   0.469368
| 22> 		H    2.135186   0.693847   0.057783
| 23> *
| 24>
| 25>                          ****END OF INPUT****

CARTESIAN COORDINATES (ANGSTROEM)
---------------------------------
  C     -1.213316   -0.296912   -0.084928
  O     -1.358383   -1.418994   -0.686658
  C      0.055377    0.472092   -0.183241
  C      1.183113   -0.010817    0.136684
  H     -2.032969    0.046186    0.780704
  H      0.009554    1.453060   -0.505725
  H      1.205525   -0.892103    0.469368
  H      2.135186    0.693847    0.057783

 Total Charge           Charge          ....    0
 Multiplicity           Mult            ....    1
 Number of Electrons    NEL             ....   30
 Basis Dimension        Dim             ....   44

ORBITAL ENERGIES
----------------

  NO   OCC          E(Eh)            E(eV)
   0   2.0000     -19.160301      -521.3783
   1   2.0000     -10.299116      -280.2532
   2   2.0000     -10.195852      -277.4432
   3   2.0000     -10.191643      -277.3287
   4   2.0000      -1.036589       -28.2070
   5   2.0000      -0.822453       -22.3801
   6   2.0000      -0.656190       -17.8558
   7   2.0000      -0.568457       -15.4685
   8   2.0000      -0.500696       -13.6246
   9   2.0000      -0.454140       -12.3578
  10   2.0000      -0.434768       -11.8306
  11   2.0000      -0.390689       -10.6312
  12   2.0000      -0.366475        -9.9723
  13   2.0000      -0.300412        -8.1746
  14   2.0000      -0.258390        -7.0312
  15   0.0000      -0.059683        -1.6241
  16   0.0000       0.014047         0.3822
  17   0.0000       0.093656         2.5485
  18   0.0000       0.097283         2.6472
  19   0.0000       0.167779         4.5655

MULLIKEN ATOMIC CHARGES
-----------------------
   0 C :    0.177753
   1 O :   -0.386381
   2 C :   -0.105171
   3 C :   -0.215588
   4 H :    0.113662
   5 H :    0.149640
   6 H :    0.122395
   7 H :    0.143690
Sum of atomic charges:    0.0000000

LOEWDIN ATOMIC CHARGES
----------------------
   0 C :    0.134845
   1 O :   -0.252304
   2 C :   -0.166190
   3 C :   -0.171537
   4 H :    0.084399
   5 H :    0.127404
   6 H :    0.115309
   7 H :    0.128074

  Mayer bond orders larger than 0.100000
B(  0-C ,  1-O ) :   1.8668 B(  0-C ,  2-C ) :   0.9405 B(  0-C ,  4-H ) :   0.8589
B(  2-C ,  3-C ) :   1.9531 B(  2-C ,  5-H ) :   0.9274 B(  3-C ,  6-H ) :   0.9582
B(  3-C ,  7-H ) :   0.9458

-----------------------------------------------------------------------------
         ABSORPTION SPECTRUM VIA TRANSITION ELECTRIC DIPOLE MOMENTS
-----------------------------------------------------------------------------
State   Energy    Wavelength  fosc         T2        TX        TY        TZ
        (cm-1)      (nm)                 (au**2)    (au)      (au)      (au)
-----------------------------------------------------------------------------
   1   28398.1    352.1   0.000590131   0.00684   0.06808   0.01156  -0.04553

FINAL SINGLE POINT ENERGY      -191.557763501643

DIPOLE MOMENT
-------------
                                X             Y             Z
Electronic contribution:     -2.10865      -1.54277      -1.02352
Nuclear contribution   :      2.56666       2.50439       1.53242
                        -----------------------------------------
Total Dipole Moment    :      0.45801       0.96162       0.50890
                        -----------------------------------------
Magnitude (a.u.)       :      1.18045
Magnitude (Debye)      :      3.00046

Rotational constants in cm-1:     0.839138     0.187539     0.163295
Rotational constants in MHz : 25156.735940  5622.286292  4895.455372

                             ****ORCA TERMINATED NORMALLY****
TOTAL RUN TIME: 0 days 0 hours 1 minutes 1 seconds 157 msec
