                         Program Version 5.0.3 -  RELEASE  -
|  1> ! B3LYP 6-31G
|  2> !TightSCF
|  3> %scf
|  4>  ConvForced true
|  5>  convergence tight
|  6>  MaxIter 500
|  7> end
|  8>
|  9> %tddft
| 10>  nroots 1
| 11> end
| 12>
| 13> # 	14610
| 14> * xyz 0 1
| 15> 		C   -1.224794  -0.318607  -0.095768
| 16> 		O   -1.604491  -1.077186  -0.832699
| 17> 		C    0.012600   0.437484  -0.280653
| 18> 		C    1.218442   0.086121   0.188562
| 19> 		H   -1.614432  -0.276175   0.902799
| 20> 		H   -0.183513   1.517931  -0.576655
| 21> 		H    1.240898  -1.028385   0.645101
| 22> 		H    2.137008   0.649318   0.086612
| 23> *
| 24>
| 25>                          ****END OF INPUT****

CARTESIAN COORDINATES (ANGSTROEM)
---------------------------------
  C     -1.224794   -0.318607   -0.095768
  O     -1.604491   -1.077186   -0.832699
  C      0.012600    0.437484   -0.280653
  C      1.218442    0.086121    0.188562
  H     -1.614432   -0.276175    0.902799
  H     -0.183513    1.517931   -0.576655
  H      1.240898   -1.028385    0.645101
  H      2.137008    0.649318    0.086612

 Total Charge           Charge          ....    0
 Multiplicity           Mult            ....    1
 Number of Electrons    NEL             ....   30
 Basis Dimension        Dim             ....   44

ORBITAL ENERGIES
----------------

  NO   OCC          E(Eh)            E(eV)
   0   2.0000     -19.155080      -521.2362
   1   2.0000     -10.275403      -279.6079
   2   2.0000     -10.210107      -277.8311
   3   2.0000     -10.201154      -277.5875
   4   2.0000      -1.134285       -30.8655
   5   2.0000      -0.794910       -21.6306
   6   2.0000      -0.651789       -17.7361
   7   2.0000      -0.563469       -15.3328
   8   2.0000      -0.501945       -13.6586
   9   2.0000      -0.476093       -12.9552
  10   2.0000      -0.446116       -12.1394
  11   2.0000      -0.416202       -11.3254
  12   2.0000      -0.368809       -10.0358
  13   2.0000      -0.282387        -7.6841
  14   2.0000      -0.253204        -6.8900
  15   0.0000      -0.017511        -0.4765
  16   0.0000      -0.005808        -0.1580
  17   0.0000       0.101599         2.7646
  18   0.0000       0.118020         3.2115
  19   0.0000       0.150145         4.0856

MULLIKEN ATOMIC CHARGES
-----------------------
   0 C :    0.137948
   1 O :   -0.271256
   2 C :   -0.122084
   3 C :   -0.273033
   4 H :    0.102066
   5 H :    0.146706
   6 H :    0.127441
   7 H :    0.152212
Sum of atomic charges:    0.0000000

LOEWDIN ATOMIC CHARGES
----------------------
   0 C :    0.100569
   1 O :   -0.158141
   2 C :   -0.173343
   3 C :   -0.202168
   4 H :    0.066325
   5 H :    0.125544
   6 H :    0.112611
   7 H :    0.128602

  Mayer bond orders larger than 0.100000
B(  0-C ,  1-O ) :   1.9826 B(  0-C ,  2-C ) :   0.9064 B(  0-C ,  4-H ) :   0.8708
B(  2-C ,  3-C ) :   1.9465 B(  2-C ,  5-H ) :   0.9213 B(  3-C ,  6-H ) :   0.9510
B(  3-C ,  7-H ) :   0.9413

-----------------------------------------------------------------------------
         ABSORPTION SPECTRUM VIA TRANSITION ELECTRIC DIPOLE MOMENTS
-----------------------------------------------------------------------------
State   Energy    Wavelength  fosc         T2        TX        TY        TZ
        (cm-1)      (nm)                 (au**2)    (au)      (au)      (au)
-----------------------------------------------------------------------------
   1   36339.5    275.2   0.000588619   0.00533  -0.01993   0.00466   0.07010

FINAL SINGLE POINT ENERGY      -191.524142505545

DIPOLE MOMENT
-------------
                                X             Y             Z
Electronic contribution:     -2.62272      -1.07570      -1.39391
Nuclear contribution   :      3.07153       1.72764       1.95537
                        -----------------------------------------
Total Dipole Moment    :      0.44880       0.65195       0.56147
                        -----------------------------------------
Magnitude (a.u.)       :      0.97041
Magnitude (Debye)      :      2.46659

Rotational constants in cm-1:     1.065291     0.171953     0.163136
Rotational constants in MHz : 31936.627263  5155.018852  4890.685193

                             ****ORCA TERMINATED NORMALLY****
TOTAL RUN TIME: 0 days 0 hours 0 minutes 55 seconds 53 msec
