                         Program Version 5.0.3 -  RELEASE  -
|  1> ! B3LYP 6-31G
|  2> !TightSCF
|  3> %scf
|  4>  ConvForced true
|  5>  convergence tight
|  6>  MaxIter 500
|  7> end
|  8>
|  9> %tddft
| 10>  nroots 1
| 11> end
| 12>
| 13> # 	962
| 14> * xyz 0 1
| 15> 		C   -1.091229  -0.346887  -0.036018
| 16> 		O   -1.275225  -1.595169   0.208661
| 17> 		C    0.027127   0.520375   0.105396
| 18> 		C    1.215638  -0.019852  -0.029160
| 19> 		H   -2.140558   0.150619  -0.168213
| 20> 		H   -0.268806   1.599740   0.128972
| 21> 		H    1.467526  -0.821962  -0.006775
| 22> 		H    2.026369   0.523475  -0.171498
| 23> *
| 24>
| 25>                          ****END OF INPUT****

CARTESIAN COORDINATES (ANGSTROEM)
---------------------------------
  C     -1.091229   -0.346887   -0.036018
  O     -1.275225   -1.595169    0.208661
  C      0.027127    0.520375    0.105396
  C      1.215638   -0.019852   -0.029160
  H     -2.140558    0.150619   -0.168213
  H     -0.268806    1.599740    0.128972
  H      1.467526   -0.821962   -0.006775
  H      2.026369    0.523475   -0.171498

 Total Charge           Charge          ....    0
 Multiplicity           Mult            ....    1
 Number of Electrons    NEL             ....   30
 Basis Dimension        Dim             ....   44

ORBITAL ENERGIES
----------------

  NO   OCC          E(Eh)            E(eV)
   0   2.0000     -19.141634      -520.8703
   1   2.0000     -10.275203      -279.6025
   2   2.0000     -10.216243      -277.9981
   3   2.0000     -10.187811      -277.2244
   4   2.0000      -1.019875       -27.7522
   5   2.0000      -0.830366       -22.5954
   6   2.0000      -0.699639       -19.0381
   7   2.0000      -0.569411       -15.4945
   8   2.0000      -0.521982       -14.2039
   9   2.0000      -0.469028       -12.7629
  10   2.0000      -0.415980       -11.3194
  11   2.0000      -0.396112       -10.7788
  12   2.0000      -0.381035       -10.3685
  13   2.0000      -0.291384        -7.9289
  14   2.0000      -0.243910        -6.6371
  15   0.0000      -0.079558        -2.1649
  16   0.0000       0.047369         1.2890
  17   0.0000       0.089231         2.4281
  18   0.0000       0.154620         4.2074
  19   0.0000       0.164068         4.4645

MULLIKEN ATOMIC CHARGES
-----------------------
   0 C :    0.145308
   1 O :   -0.410969
   2 C :   -0.079679
   3 C :   -0.180736
   4 H :    0.098426
   5 H :    0.158458
   6 H :    0.127320
   7 H :    0.141872
Sum of atomic charges:   -0.0000000

LOEWDIN ATOMIC CHARGES
----------------------
   0 C :    0.108619
   1 O :   -0.281959
   2 C :   -0.136140
   3 C :   -0.134100
   4 H :    0.074236
   5 H :    0.135446
   6 H :    0.110183
   7 H :    0.123716

  Mayer bond orders larger than 0.100000
B(  0-C ,  1-O ) :   1.8290 B(  0-C ,  2-C ) :   1.0028 B(  0-C ,  4-H ) :   0.9004
B(  1-O ,  3-C ) :   0.1189 B(  2-C ,  3-C ) :   1.8890 B(  2-C ,  5-H ) :   0.9239
B(  3-C ,  6-H ) :   0.9474 B(  3-C ,  7-H ) :   0.9471

-----------------------------------------------------------------------------
         ABSORPTION SPECTRUM VIA TRANSITION ELECTRIC DIPOLE MOMENTS
-----------------------------------------------------------------------------
State   Energy    Wavelength  fosc         T2        TX        TY        TZ
        (cm-1)      (nm)                 (au**2)    (au)      (au)      (au)
-----------------------------------------------------------------------------
   1   23169.9    431.6   0.000723597   0.01028  -0.09990   0.00022   0.01733

FINAL SINGLE POINT ENERGY      -191.536138160930

DIPOLE MOMENT
-------------
                                X             Y             Z
Electronic contribution:     -1.42727      -1.69559       0.24407
Nuclear contribution   :      2.17388       2.83118      -0.44305
                        -----------------------------------------
Total Dipole Moment    :      0.74661       1.13560      -0.19898
                        -----------------------------------------
Magnitude (a.u.)       :      1.37353
Magnitude (Debye)      :      3.49124

Rotational constants in cm-1:     0.803756     0.200739     0.162031
Rotational constants in MHz : 24096.007191  6017.994790  4857.552674

                             ****ORCA TERMINATED NORMALLY****
TOTAL RUN TIME: 0 days 0 hours 1 minutes 0 seconds 5 msec
