                         Program Version 5.0.3 -  RELEASE  -
|  1> ! B3LYP 6-31G
|  2> !TightSCF
|  3> %scf
|  4>  ConvForced true
|  5>  convergence tight
|  6>  MaxIter 500
|  7> end
|  8>
|  9> %tddft
| 10>  nroots 1
| 11> end
| 12>
| 13> # 	9917
| 14> * xyz 0 1
| 15> 		C   -1.249826  -0.372359   0.008681
| 16> 		O   -2.195476  -0.312909  -0.718317
| 17> 		C    0.100591   0.317534  -0.344920
| 18> 		C    1.147678   0.219285   0.266222
| 19> 		H   -1.252420  -1.198719   0.888978
| 20> 		H    0.069129   1.152739  -1.136547
| 21> 		H    1.321528  -0.689801   0.984438
| 22> 		H    2.059102   0.859684   0.014201
| 23> *
| 24>
| 25>                          ****END OF INPUT****

CARTESIAN COORDINATES (ANGSTROEM)
---------------------------------
  C     -1.249826   -0.372359    0.008681
  O     -2.195476   -0.312909   -0.718317
  C      0.100591    0.317534   -0.344920
  C      1.147678    0.219285    0.266222
  H     -1.252420   -1.198719    0.888978
  H      0.069129    1.152739   -1.136547
  H      1.321528   -0.689801    0.984438
  H      2.059102    0.859684    0.014201

 Total Charge           Charge          ....    0
 Multiplicity           Mult            ....    1
 Number of Electrons    NEL             ....   30
 Basis Dimension        Dim             ....   44

ORBITAL ENERGIES
----------------

  NO   OCC          E(Eh)            E(eV)
   0   2.0000     -19.160205      -521.3757
   1   2.0000     -10.296819      -280.1907
   2   2.0000     -10.205104      -277.6950
   3   2.0000     -10.200388      -277.5667
   4   2.0000      -1.089036       -29.6342
   5   2.0000      -0.822480       -22.3808
   6   2.0000      -0.626206       -17.0399
   7   2.0000      -0.553562       -15.0632
   8   2.0000      -0.483433       -13.1549
   9   2.0000      -0.475465       -12.9380
  10   2.0000      -0.426127       -11.5955
  11   2.0000      -0.413642       -11.2558
  12   2.0000      -0.364722        -9.9246
  13   2.0000      -0.310543        -8.4503
  14   2.0000      -0.258253        -7.0274
  15   0.0000      -0.055259        -1.5037
  16   0.0000       0.059202         1.6110
  17   0.0000       0.084890         2.3100
  18   0.0000       0.097906         2.6641
  19   0.0000       0.114782         3.1234

MULLIKEN ATOMIC CHARGES
-----------------------
   0 C :    0.195002
   1 O :   -0.346984
   2 C :   -0.089030
   3 C :   -0.288139
   4 H :    0.099657
   5 H :    0.148266
   6 H :    0.132904
   7 H :    0.148324
Sum of atomic charges:   -0.0000000

LOEWDIN ATOMIC CHARGES
----------------------
   0 C :    0.123217
   1 O :   -0.206068
   2 C :   -0.169941
   3 C :   -0.187084
   4 H :    0.069813
   5 H :    0.127752
   6 H :    0.114664
   7 H :    0.127648

  Mayer bond orders larger than 0.100000
B(  0-C ,  1-O ) :   1.8654 B(  0-C ,  2-C ) :   0.9279 B(  0-C ,  4-H ) :   0.8597
B(  2-C ,  3-C ) :   1.8755 B(  2-C ,  5-H ) :   0.9320 B(  3-C ,  6-H ) :   0.9453
B(  3-C ,  7-H ) :   0.9331

-----------------------------------------------------------------------------
         ABSORPTION SPECTRUM VIA TRANSITION ELECTRIC DIPOLE MOMENTS
-----------------------------------------------------------------------------
State   Energy    Wavelength  fosc         T2        TX        TY        TZ
        (cm-1)      (nm)                 (au**2)    (au)      (au)      (au)
-----------------------------------------------------------------------------
   1   30770.1    325.0   0.000821304   0.00879  -0.03345  -0.07910   0.03757

FINAL SINGLE POINT ENERGY      -191.556630853596

DIPOLE MOMENT
-------------
                                X             Y             Z
Electronic contribution:     -3.22984      -0.23036      -1.01882
Nuclear contribution   :      4.24186       0.30690       1.47194
                        -----------------------------------------
Total Dipole Moment    :      1.01202       0.07654       0.45312
                        -----------------------------------------
Magnitude (a.u.)       :      1.11147
Magnitude (Debye)      :      2.82513

Rotational constants in cm-1:     1.522468     0.154153     0.140505
Rotational constants in MHz : 45642.450179  4621.390453  4212.227650

                             ****ORCA TERMINATED NORMALLY****
TOTAL RUN TIME: 0 days 0 hours 0 minutes 59 seconds 25 msec
