                         Program Version 5.0.3 -  RELEASE  -
|  1> ! B3LYP 6-31G
|  2> !TightSCF
|  3> %scf
|  4>  ConvForced true
|  5>  convergence tight
|  6>  MaxIter 500
|  7> end
|  8>
|  9> %tddft
| 10>  nroots 1
| 11> end
| 12>
| 13> # 	6415
| 14> * xyz 0 1
| 15> 		C   -1.129334  -0.376352   0.061289
| 16> 		O   -2.185125  -0.339354   0.828257
| 17> 		C    0.060784   0.371427   0.374123
| 18> 		C    1.163833   0.156554  -0.345407
| 19> 		H   -1.075451  -1.051144  -0.858717
| 20> 		H    0.123066   1.007134   1.205707
| 21> 		H    1.082925  -0.440515  -1.260877
| 22> 		H    1.967245   0.689451  -0.009089
| 23> *
| 24>
| 25>                          ****END OF INPUT****

CARTESIAN COORDINATES (ANGSTROEM)
---------------------------------
  C     -1.129334   -0.376352    0.061289
  O     -2.185125   -0.339354    0.828257
  C      0.060784    0.371427    0.374123
  C      1.163833    0.156554   -0.345407
  H     -1.075451   -1.051144   -0.858717
  H      0.123066    1.007134    1.205707
  H      1.082925   -0.440515   -1.260877
  H      1.967245    0.689451   -0.009089

 Total Charge           Charge          ....    0
 Multiplicity           Mult            ....    1
 Number of Electrons    NEL             ....   30
 Basis Dimension        Dim             ....   44

ORBITAL ENERGIES
----------------

  NO   OCC          E(Eh)            E(eV)
   0   2.0000     -19.146188      -520.9943
   1   2.0000     -10.281487      -279.7735
   2   2.0000     -10.212401      -277.8936
   3   2.0000     -10.204850      -277.6881
   4   2.0000      -1.012139       -27.5417
   5   2.0000      -0.823266       -22.4022
   6   2.0000      -0.660945       -17.9852
   7   2.0000      -0.582300       -15.8452
   8   2.0000      -0.491514       -13.3748
   9   2.0000      -0.467022       -12.7083
  10   2.0000      -0.410329       -11.1656
  11   2.0000      -0.397791       -10.8244
  12   2.0000      -0.382719       -10.4143
  13   2.0000      -0.290440        -7.9033
  14   2.0000      -0.253900        -6.9090
  15   0.0000      -0.078100        -2.1252
  16   0.0000       0.046338         1.2609
  17   0.0000       0.095178         2.5899
  18   0.0000       0.110543         3.0080
  19   0.0000       0.153833         4.1860

MULLIKEN ATOMIC CHARGES
-----------------------
   0 C :    0.180860
   1 O :   -0.429734
   2 C :   -0.077668
   3 C :   -0.257376
   4 H :    0.122470
   5 H :    0.160728
   6 H :    0.157095
   7 H :    0.143625
Sum of atomic charges:    0.0000000

LOEWDIN ATOMIC CHARGES
----------------------
   0 C :    0.116770
   1 O :   -0.278545
   2 C :   -0.150664
   3 C :   -0.171128
   4 H :    0.089609
   5 H :    0.133924
   6 H :    0.130881
   7 H :    0.129154

  Mayer bond orders larger than 0.100000
B(  0-C ,  1-O ) :   1.7671 B(  0-C ,  2-C ) :   1.0495 B(  0-C ,  4-H ) :   0.8853
B(  1-O ,  3-C ) :   0.1267 B(  2-C ,  3-C ) :   1.8004 B(  2-C ,  5-H ) :   0.9361
B(  3-C ,  6-H ) :   0.9446 B(  3-C ,  7-H ) :   0.9446

-----------------------------------------------------------------------------
         ABSORPTION SPECTRUM VIA TRANSITION ELECTRIC DIPOLE MOMENTS
-----------------------------------------------------------------------------
State   Energy    Wavelength  fosc         T2        TX        TY        TZ
        (cm-1)      (nm)                 (au**2)    (au)      (au)      (au)
-----------------------------------------------------------------------------
   1   25087.7    398.6   0.000068990   0.00091   0.02733  -0.01154   0.00503

FINAL SINGLE POINT ENERGY      -191.615424103644

DIPOLE MOMENT
-------------
                                X             Y             Z
Electronic contribution:     -2.74217      -0.25371       1.13566
Nuclear contribution   :      4.06607       0.41582      -1.75428
                        -----------------------------------------
Total Dipole Moment    :      1.32390       0.16211      -0.61862
                        -----------------------------------------
Magnitude (a.u.)       :      1.47026
Magnitude (Debye)      :      3.73712

Rotational constants in cm-1:     1.519184     0.155768     0.141553
Rotational constants in MHz : 45543.989659  4669.801485  4243.657487

                             ****ORCA TERMINATED NORMALLY****
TOTAL RUN TIME: 0 days 0 hours 1 minutes 1 seconds 608 msec
