                         Program Version 5.0.3 -  RELEASE  -
|  1> ! B3LYP 6-31G
|  2> !TightSCF
|  3> %scf
|  4>  ConvForced true
|  5>  convergence tight
|  6>  MaxIter 500
|  7> end
|  8>
|  9> %tddft
| 10>  nroots 1
| 11> end
| 12>
| 13> # 	2790
| 14> * xyz 0 1
| 15> 		C   -1.224310  -0.281527  -0.012936
| 16> 		O   -1.624491  -1.015858   0.925129
| 17> 		C    0.016787   0.536322   0.185390
| 18> 		C    1.162469   0.086813  -0.103633
| 19> 		H   -1.677217  -0.400877  -0.935204
| 20> 		H   -0.056260   1.408151   0.607949
| 21> 		H    1.240304  -0.955156  -0.519054
| 22> 		H    2.080639   0.712987  -0.095077
| 23> *
| 24>
| 25>                          ****END OF INPUT****

CARTESIAN COORDINATES (ANGSTROEM)
---------------------------------
  C     -1.224310   -0.281527   -0.012936
  O     -1.624491   -1.015858    0.925129
  C      0.016787    0.536322    0.185390
  C      1.162469    0.086813   -0.103633
  H     -1.677217   -0.400877   -0.935204
  H     -0.056260    1.408151    0.607949
  H      1.240304   -0.955156   -0.519054
  H      2.080639    0.712987   -0.095077

 Total Charge           Charge          ....    0
 Multiplicity           Mult            ....    1
 Number of Electrons    NEL             ....   30
 Basis Dimension        Dim             ....   44

ORBITAL ENERGIES
----------------

  NO   OCC          E(Eh)            E(eV)
   0   2.0000     -19.154241      -521.2134
   1   2.0000     -10.280259      -279.7401
   2   2.0000     -10.194338      -277.4020
   3   2.0000     -10.185197      -277.1533
   4   2.0000      -1.048327       -28.5264
   5   2.0000      -0.815474       -22.1902
   6   2.0000      -0.651708       -17.7339
   7   2.0000      -0.583732       -15.8842
   8   2.0000      -0.515045       -14.0151
   9   2.0000      -0.464280       -12.6337
  10   2.0000      -0.429426       -11.6853
  11   2.0000      -0.383557       -10.4371
  12   2.0000      -0.369373       -10.0512
  13   2.0000      -0.298726        -8.1287
  14   2.0000      -0.253712        -6.9039
  15   0.0000      -0.048999        -1.3333
  16   0.0000       0.012013         0.3269
  17   0.0000       0.119823         3.2605
  18   0.0000       0.135770         3.6945
  19   0.0000       0.147991         4.0270

MULLIKEN ATOMIC CHARGES
-----------------------
   0 C :    0.162870
   1 O :   -0.368742
   2 C :   -0.087123
   3 C :   -0.268222
   4 H :    0.138171
   5 H :    0.146243
   6 H :    0.134353
   7 H :    0.142448
Sum of atomic charges:   -0.0000000

LOEWDIN ATOMIC CHARGES
----------------------
   0 C :    0.134913
   1 O :   -0.239735
   2 C :   -0.165031
   3 C :   -0.191058
   4 H :    0.095823
   5 H :    0.126959
   6 H :    0.115115
   7 H :    0.123015

  Mayer bond orders larger than 0.100000
B(  0-C ,  1-O ) :   1.9124 B(  0-C ,  2-C ) :   0.9259 B(  0-C ,  4-H ) :   0.8956
B(  2-C ,  3-C ) :   1.9644 B(  2-C ,  5-H ) :   0.9365 B(  3-C ,  6-H ) :   0.9538
B(  3-C ,  7-H ) :   0.9432

-----------------------------------------------------------------------------
         ABSORPTION SPECTRUM VIA TRANSITION ELECTRIC DIPOLE MOMENTS
-----------------------------------------------------------------------------
State   Energy    Wavelength  fosc         T2        TX        TY        TZ
        (cm-1)      (nm)                 (au**2)    (au)      (au)      (au)
-----------------------------------------------------------------------------
   1   29069.9    344.0   0.000101530   0.00115   0.00070  -0.01275  -0.03141

FINAL SINGLE POINT ENERGY      -191.569887696811

DIPOLE MOMENT
-------------
                                X             Y             Z
Electronic contribution:     -2.64426      -0.78880       1.09616
Nuclear contribution   :      3.14067       1.46741      -1.85592
                        -----------------------------------------
Total Dipole Moment    :      0.49641       0.67861      -0.75976
                        -----------------------------------------
Magnitude (a.u.)       :      1.13322
Magnitude (Debye)      :      2.88041

Rotational constants in cm-1:     0.989093     0.172615     0.165294
Rotational constants in MHz : 29652.249990  5174.853290  4955.399530

                             ****ORCA TERMINATED NORMALLY****
TOTAL RUN TIME: 0 days 0 hours 0 minutes 52 seconds 833 msec
