                         Program Version 5.0.3 -  RELEASE  -
|  1> ! B3LYP 6-31G
|  2> !TightSCF
|  3> %scf
|  4>  ConvForced true
|  5>  convergence tight
|  6>  MaxIter 500
|  7> end
|  8>
|  9> %tddft
| 10>  nroots 1
| 11> end
| 12>
| 13> # 	15682
| 14> * xyz 0 1
| 15> 		C   -1.175167  -0.342134  -0.006548
| 16> 		O   -1.302848  -1.523391  -0.294652
| 17> 		C    0.003692   0.524691  -0.095541
| 18> 		C    1.204309  -0.030340   0.028207
| 19> 		H   -2.066893   0.129023   0.305751
| 20> 		H   -0.140224   1.664419  -0.121223
| 21> 		H    1.296489  -1.154676   0.226326
| 22> 		H    2.194941   0.686176  -0.002041
| 23> *
| 24>
| 25>                          ****END OF INPUT****

CARTESIAN COORDINATES (ANGSTROEM)
---------------------------------
  C     -1.175167   -0.342134   -0.006548
  O     -1.302848   -1.523391   -0.294652
  C      0.003692    0.524691   -0.095541
  C      1.204309   -0.030340    0.028207
  H     -2.066893    0.129023    0.305751
  H     -0.140224    1.664419   -0.121223
  H      1.296489   -1.154676    0.226326
  H      2.194941    0.686176   -0.002041

 Total Charge           Charge          ....    0
 Multiplicity           Mult            ....    1
 Number of Electrons    NEL             ....   30
 Basis Dimension        Dim             ....   44

ORBITAL ENERGIES
----------------

  NO   OCC          E(Eh)            E(eV)
   0   2.0000     -19.146117      -520.9923
   1   2.0000     -10.271011      -279.4884
   2   2.0000     -10.226953      -278.2895
   3   2.0000     -10.211121      -277.8587
   4   2.0000      -1.060667       -28.8622
   5   2.0000      -0.803950       -21.8766
   6   2.0000      -0.656296       -17.8587
   7   2.0000      -0.539960       -14.6931
   8   2.0000      -0.513350       -13.9690
   9   2.0000      -0.441892       -12.0245
  10   2.0000      -0.423085       -11.5127
  11   2.0000      -0.392965       -10.6931
  12   2.0000      -0.378121       -10.2892
  13   2.0000      -0.291510        -7.9324
  14   2.0000      -0.252568        -6.8727
  15   0.0000      -0.065114        -1.7718
  16   0.0000       0.050236         1.3670
  17   0.0000       0.076201         2.0735
  18   0.0000       0.106980         2.9111
  19   0.0000       0.160189         4.3590

MULLIKEN ATOMIC CHARGES
-----------------------
   0 C :    0.165150
   1 O :   -0.376816
   2 C :   -0.093705
   3 C :   -0.269455
   4 H :    0.103242
   5 H :    0.155706
   6 H :    0.176526
   7 H :    0.139353
Sum of atomic charges:    0.0000000

LOEWDIN ATOMIC CHARGES
----------------------
   0 C :    0.110765
   1 O :   -0.244357
   2 C :   -0.183679
   3 C :   -0.154017
   4 H :    0.075129
   5 H :    0.131636
   6 H :    0.140392
   7 H :    0.124131

  Mayer bond orders larger than 0.100000
B(  0-C ,  1-O ) :   1.8751 B(  0-C ,  2-C ) :   0.9754 B(  0-C ,  4-H ) :   0.8985
B(  2-C ,  3-C ) :   1.8309 B(  2-C ,  5-H ) :   0.9266 B(  3-C ,  6-H ) :   0.9316
B(  3-C ,  7-H ) :   0.9415

-----------------------------------------------------------------------------
         ABSORPTION SPECTRUM VIA TRANSITION ELECTRIC DIPOLE MOMENTS
-----------------------------------------------------------------------------
State   Energy    Wavelength  fosc         T2        TX        TY        TZ
        (cm-1)      (nm)                 (au**2)    (au)      (au)      (au)
-----------------------------------------------------------------------------
   1   27853.0    359.0   0.000226287   0.00267   0.04622   0.01144   0.02018

FINAL SINGLE POINT ENERGY      -191.594711717344

DIPOLE MOMENT
-------------
                                X             Y             Z
Electronic contribution:     -1.95853      -1.61737      -0.43896
Nuclear contribution   :      2.47288       2.64574       0.72791
                        -----------------------------------------
Total Dipole Moment    :      0.51435       1.02837       0.28896
                        -----------------------------------------
Magnitude (a.u.)       :      1.18557
Magnitude (Debye)      :      3.01349

Rotational constants in cm-1:     0.793620     0.199311     0.161371
Rotational constants in MHz : 23792.138708  5975.207700  4837.774137

                             ****ORCA TERMINATED NORMALLY****
TOTAL RUN TIME: 0 days 0 hours 0 minutes 58 seconds 826 msec
