                         Program Version 5.0.3 -  RELEASE  -
|  1> ! B3LYP 6-31G
|  2> !TightSCF
|  3> %scf
|  4>  ConvForced true
|  5>  convergence tight
|  6>  MaxIter 500
|  7> end
|  8>
|  9> %tddft
| 10>  nroots 1
| 11> end
| 12>
| 13> # 	3408
| 14> * xyz 0 1
| 15> 		C   -1.179802  -0.328503  -0.005253
| 16> 		O   -1.611366  -1.340221  -0.702767
| 17> 		C    0.002509   0.424189  -0.225450
| 18> 		C    1.184758   0.062238   0.089079
| 19> 		H   -1.864939   0.016315   0.760694
| 20> 		H   -0.089939   1.477355  -0.573724
| 21> 		H    1.383547  -0.911678   0.677617
| 22> 		H    2.154701   0.662615  -0.013145
| 23> *
| 24>
| 25>                          ****END OF INPUT****

CARTESIAN COORDINATES (ANGSTROEM)
---------------------------------
  C     -1.179802   -0.328503   -0.005253
  O     -1.611366   -1.340221   -0.702767
  C      0.002509    0.424189   -0.225450
  C      1.184758    0.062238    0.089079
  H     -1.864939    0.016315    0.760694
  H     -0.089939    1.477355   -0.573724
  H      1.383547   -0.911678    0.677617
  H      2.154701    0.662615   -0.013145

 Total Charge           Charge          ....    0
 Multiplicity           Mult            ....    1
 Number of Electrons    NEL             ....   30
 Basis Dimension        Dim             ....   44

ORBITAL ENERGIES
----------------

  NO   OCC          E(Eh)            E(eV)
   0   2.0000     -19.153817      -521.2019
   1   2.0000     -10.283148      -279.8187
   2   2.0000     -10.211620      -277.8723
   3   2.0000     -10.205991      -277.7191
   4   2.0000      -1.020327       -27.7645
   5   2.0000      -0.822592       -22.3839
   6   2.0000      -0.670497       -18.2452
   7   2.0000      -0.555703       -15.1214
   8   2.0000      -0.511633       -13.9222
   9   2.0000      -0.466910       -12.7053
  10   2.0000      -0.429463       -11.6863
  11   2.0000      -0.372434       -10.1345
  12   2.0000      -0.354584        -9.6487
  13   2.0000      -0.298068        -8.1108
  14   2.0000      -0.256736        -6.9861
  15   0.0000      -0.059710        -1.6248
  16   0.0000       0.004078         0.1110
  17   0.0000       0.099399         2.7048
  18   0.0000       0.116024         3.1572
  19   0.0000       0.141894         3.8611

MULLIKEN ATOMIC CHARGES
-----------------------
   0 C :    0.147535
   1 O :   -0.386778
   2 C :   -0.090139
   3 C :   -0.269008
   4 H :    0.134300
   5 H :    0.173336
   6 H :    0.142568
   7 H :    0.148187
Sum of atomic charges:    0.0000000

LOEWDIN ATOMIC CHARGES
----------------------
   0 C :    0.133408
   1 O :   -0.262385
   2 C :   -0.169459
   3 C :   -0.180785
   4 H :    0.095618
   5 H :    0.143685
   6 H :    0.116766
   7 H :    0.123151

  Mayer bond orders larger than 0.100000
B(  0-C ,  1-O ) :   1.9031 B(  0-C ,  2-C ) :   0.9573 B(  0-C ,  4-H ) :   0.8946
B(  2-C ,  3-C ) :   1.9286 B(  2-C ,  5-H ) :   0.9112 B(  3-C ,  6-H ) :   0.9497
B(  3-C ,  7-H ) :   0.9385

-----------------------------------------------------------------------------
         ABSORPTION SPECTRUM VIA TRANSITION ELECTRIC DIPOLE MOMENTS
-----------------------------------------------------------------------------
State   Energy    Wavelength  fosc         T2        TX        TY        TZ
        (cm-1)      (nm)                 (au**2)    (au)      (au)      (au)
-----------------------------------------------------------------------------
   1   27575.0    362.6   0.000190395   0.00227   0.04749   0.00070   0.00417

FINAL SINGLE POINT ENERGY      -191.585815682303

DIPOLE MOMENT
-------------
                                X             Y             Z
Electronic contribution:     -2.43802      -1.37529      -0.98863
Nuclear contribution   :      3.08080       2.37698       1.60061
                        -----------------------------------------
Total Dipole Moment    :      0.64278       1.00169       0.61198
                        -----------------------------------------
Magnitude (a.u.)       :      1.33831
Magnitude (Debye)      :      3.40171

Rotational constants in cm-1:     0.972521     0.170470     0.156348
Rotational constants in MHz : 29155.453030  5110.570532  4687.184146

                             ****ORCA TERMINATED NORMALLY****
TOTAL RUN TIME: 0 days 0 hours 0 minutes 59 seconds 541 msec
