                         Program Version 5.0.3 -  RELEASE  -
|  1> ! B3LYP 6-31G
|  2> !TightSCF
|  3> %scf
|  4>  ConvForced true
|  5>  convergence tight
|  6>  MaxIter 500
|  7> end
|  8>
|  9> %tddft
| 10>  nroots 1
| 11> end
| 12>
| 13> # 	8255
| 14> * xyz 0 1
| 15> 		C   -1.143654  -0.430405   0.010172
| 16> 		O   -2.021887  -0.709553  -0.868862
| 17> 		C    0.108706   0.370413  -0.398431
| 18> 		C    1.200443   0.104382   0.161500
| 19> 		H   -1.287874  -0.677702   1.241745
| 20> 		H   -0.045053   1.069355  -1.100938
| 21> 		H    1.191803  -0.573631   0.958286
| 22> 		H    1.989849   0.812873  -0.028287
| 23> *
| 24>
| 25>                          ****END OF INPUT****

CARTESIAN COORDINATES (ANGSTROEM)
---------------------------------
  C     -1.143654   -0.430405    0.010172
  O     -2.021887   -0.709553   -0.868862
  C      0.108706    0.370413   -0.398431
  C      1.200443    0.104382    0.161500
  H     -1.287874   -0.677702    1.241745
  H     -0.045053    1.069355   -1.100938
  H      1.191803   -0.573631    0.958286
  H      1.989849    0.812873   -0.028287

 Total Charge           Charge          ....    0
 Multiplicity           Mult            ....    1
 Number of Electrons    NEL             ....   30
 Basis Dimension        Dim             ....   44

ORBITAL ENERGIES
----------------

  NO   OCC          E(Eh)            E(eV)
   0   2.0000     -19.160207      -521.3757
   1   2.0000     -10.300310      -280.2857
   2   2.0000     -10.195695      -277.4390
   3   2.0000     -10.192322      -277.3472
   4   2.0000      -1.039581       -28.2884
   5   2.0000      -0.825832       -22.4720
   6   2.0000      -0.638033       -17.3618
   7   2.0000      -0.577516       -15.7150
   8   2.0000      -0.489334       -13.3154
   9   2.0000      -0.466011       -12.6808
  10   2.0000      -0.427418       -11.6306
  11   2.0000      -0.393585       -10.7100
  12   2.0000      -0.378048       -10.2872
  13   2.0000      -0.304165        -8.2768
  14   2.0000      -0.257718        -7.0129
  15   0.0000      -0.063796        -1.7360
  16   0.0000       0.029149         0.7932
  17   0.0000       0.087705         2.3866
  18   0.0000       0.120088         3.2678
  19   0.0000       0.140506         3.8234

MULLIKEN ATOMIC CHARGES
-----------------------
   0 C :    0.193204
   1 O :   -0.396121
   2 C :   -0.085731
   3 C :   -0.256010
   4 H :    0.105144
   5 H :    0.156769
   6 H :    0.140145
   7 H :    0.142599
Sum of atomic charges:   -0.0000000

LOEWDIN ATOMIC CHARGES
----------------------
   0 C :    0.130036
   1 O :   -0.249976
   2 C :   -0.151057
   3 C :   -0.188265
   4 H :    0.078053
   5 H :    0.129330
   6 H :    0.123084
   7 H :    0.128795

  Mayer bond orders larger than 0.100000
B(  0-C ,  1-O ) :   1.8275 B(  0-C ,  2-C ) :   0.9606 B(  0-C ,  4-H ) :   0.8470
B(  2-C ,  3-C ) :   1.9044 B(  2-C ,  5-H ) :   0.9366 B(  3-C ,  6-H ) :   0.9497
B(  3-C ,  7-H ) :   0.9435

-----------------------------------------------------------------------------
         ABSORPTION SPECTRUM VIA TRANSITION ELECTRIC DIPOLE MOMENTS
-----------------------------------------------------------------------------
State   Energy    Wavelength  fosc         T2        TX        TY        TZ
        (cm-1)      (nm)                 (au**2)    (au)      (au)      (au)
-----------------------------------------------------------------------------
   1   28256.9    353.9   0.000718535   0.00837  -0.09091   0.00685   0.00779

FINAL SINGLE POINT ENERGY      -191.572870301891

DIPOLE MOMENT
-------------
                                X             Y             Z
Electronic contribution:     -2.66727      -0.79897      -1.39036
Nuclear contribution   :      3.61952       1.26570       2.03639
                        -----------------------------------------
Total Dipole Moment    :      0.95225       0.46673       0.64603
                        -----------------------------------------
Magnitude (a.u.)       :      1.24176
Magnitude (Debye)      :      3.15629

Rotational constants in cm-1:     1.308127     0.157658     0.145867
Rotational constants in MHz : 39216.668037  4726.454698  4372.969545

                             ****ORCA TERMINATED NORMALLY****
TOTAL RUN TIME: 0 days 0 hours 0 minutes 53 seconds 550 msec
