                         Program Version 5.0.3 -  RELEASE  -
|  1> ! B3LYP 6-31G
|  2> !TightSCF
|  3> %scf
|  4>  ConvForced true
|  5>  convergence tight
|  6>  MaxIter 500
|  7> end
|  8>
|  9> %tddft
| 10>  nroots 1
| 11> end
| 12>
| 13> # 	2447
| 14> * xyz 0 1
| 15> 		C   -1.199633  -0.221069   0.059068
| 16> 		O   -1.428696  -1.153870   0.763628
| 17> 		C    0.021523   0.572426   0.104120
| 18> 		C    1.231907  -0.012474  -0.160956
| 19> 		H   -1.851350  -0.225200  -0.826239
| 20> 		H   -0.103361   1.656087   0.403749
| 21> 		H    1.204025  -1.148809  -0.291223
| 22> 		H    2.149559   0.519085  -0.019944
| 23> *
| 24>
| 25>                          ****END OF INPUT****

CARTESIAN COORDINATES (ANGSTROEM)
---------------------------------
  C     -1.199633   -0.221069    0.059068
  O     -1.428696   -1.153870    0.763628
  C      0.021523    0.572426    0.104120
  C      1.231907   -0.012474   -0.160956
  H     -1.851350   -0.225200   -0.826239
  H     -0.103361    1.656087    0.403749
  H      1.204025   -1.148809   -0.291223
  H      2.149559    0.519085   -0.019944

 Total Charge           Charge          ....    0
 Multiplicity           Mult            ....    1
 Number of Electrons    NEL             ....   30
 Basis Dimension        Dim             ....   44

ORBITAL ENERGIES
----------------

  NO   OCC          E(Eh)            E(eV)
   0   2.0000     -19.149810      -521.0928
   1   2.0000     -10.276524      -279.6384
   2   2.0000     -10.211867      -277.8790
   3   2.0000     -10.210574      -277.8439
   4   2.0000      -1.086564       -29.5669
   5   2.0000      -0.793846       -21.6016
   6   2.0000      -0.653371       -17.7791
   7   2.0000      -0.554831       -15.0977
   8   2.0000      -0.506921       -13.7940
   9   2.0000      -0.461067       -12.5463
  10   2.0000      -0.435482       -11.8501
  11   2.0000      -0.397189       -10.8081
  12   2.0000      -0.377915       -10.2836
  13   2.0000      -0.281625        -7.6634
  14   2.0000      -0.251227        -6.8362
  15   0.0000      -0.041345        -1.1251
  16   0.0000      -0.005383        -0.1465
  17   0.0000       0.113844         3.0979
  18   0.0000       0.115587         3.1453
  19   0.0000       0.143955         3.9172

MULLIKEN ATOMIC CHARGES
-----------------------
   0 C :    0.139273
   1 O :   -0.333596
   2 C :   -0.117453
   3 C :   -0.267418
   4 H :    0.114714
   5 H :    0.159517
   6 H :    0.155834
   7 H :    0.149130
Sum of atomic charges:    0.0000000

LOEWDIN ATOMIC CHARGES
----------------------
   0 C :    0.104131
   1 O :   -0.214723
   2 C :   -0.165153
   3 C :   -0.193690
   4 H :    0.080348
   5 H :    0.131612
   6 H :    0.130143
   7 H :    0.127331

  Mayer bond orders larger than 0.100000
B(  0-C ,  1-O ) :   1.9201 B(  0-C ,  2-C ) :   0.9228 B(  0-C ,  4-H ) :   0.8915
B(  2-C ,  3-C ) :   1.9288 B(  2-C ,  5-H ) :   0.9220 B(  3-C ,  6-H ) :   0.9434
B(  3-C ,  7-H ) :   0.9443

-----------------------------------------------------------------------------
         ABSORPTION SPECTRUM VIA TRANSITION ELECTRIC DIPOLE MOMENTS
-----------------------------------------------------------------------------
State   Energy    Wavelength  fosc         T2        TX        TY        TZ
        (cm-1)      (nm)                 (au**2)    (au)      (au)      (au)
-----------------------------------------------------------------------------
   1   31319.8    319.3   0.000218180   0.00229  -0.03374  -0.01761  -0.02907

FINAL SINGLE POINT ENERGY      -191.571182492528

DIPOLE MOMENT
-------------
                                X             Y             Z
Electronic contribution:     -2.22221      -0.89114       0.96931
Nuclear contribution   :      2.68912       1.64733      -1.45011
                        -----------------------------------------
Total Dipole Moment    :      0.46691       0.75619      -0.48080
                        -----------------------------------------
Magnitude (a.u.)       :      1.01045
Magnitude (Debye)      :      2.56836

Rotational constants in cm-1:     0.837194     0.189330     0.165929
Rotational constants in MHz : 25098.455215  5675.967780  4974.431803

                             ****ORCA TERMINATED NORMALLY****
TOTAL RUN TIME: 0 days 0 hours 1 minutes 1 seconds 530 msec
