                         Program Version 5.0.3 -  RELEASE  -
|  1> ! B3LYP 6-31G
|  2> !TightSCF
|  3> %scf
|  4>  ConvForced true
|  5>  convergence tight
|  6>  MaxIter 500
|  7> end
|  8>
|  9> %tddft
| 10>  nroots 1
| 11> end
| 12>
| 13> # 	32343
| 14> * xyz 0 1
| 15> 		C   -0.593094  -0.469084  -0.010284
| 16> 		O   -0.580846  -1.654554  -0.001106
| 17> 		C    0.624832   0.449322  -0.012478
| 18> 		C    1.823405  -0.108520  -0.007492
| 19> 		H   -1.419174   0.315551   0.147838
| 20> 		H    0.477731   1.570868   0.056850
| 21> 		H    2.027811  -1.147412   0.140902
| 22> 		H    2.983536   0.333446   0.032457
| 23> *
| 24>
| 25>                          ****END OF INPUT****

CARTESIAN COORDINATES (ANGSTROEM)
---------------------------------
  C     -0.593094   -0.469084   -0.010284
  O     -0.580846   -1.654554   -0.001106
  C      0.624832    0.449322   -0.012478
  C      1.823405   -0.108520   -0.007492
  H     -1.419174    0.315551    0.147838
  H      0.477731    1.570868    0.056850
  H      2.027811   -1.147412    0.140902
  H      2.983536    0.333446    0.032457

 Total Charge           Charge          ....    0
 Multiplicity           Mult            ....    1
 Number of Electrons    NEL             ....   30
 Basis Dimension        Dim             ....   44

ORBITAL ENERGIES
----------------

  NO   OCC          E(Eh)            E(eV)
   0   2.0000     -19.163293      -521.4597
   1   2.0000     -10.289303      -279.9862
   2   2.0000     -10.215870      -277.9880
   3   2.0000     -10.207498      -277.7602
   4   2.0000      -1.093494       -29.7555
   5   2.0000      -0.794944       -21.6315
   6   2.0000      -0.654030       -17.7971
   7   2.0000      -0.547045       -14.8858
   8   2.0000      -0.497717       -13.5436
   9   2.0000      -0.456174       -12.4131
  10   2.0000      -0.426132       -11.5956
  11   2.0000      -0.415943       -11.3184
  12   2.0000      -0.361792        -9.8449
  13   2.0000      -0.290555        -7.9064
  14   2.0000      -0.258230        -7.0268
  15   0.0000      -0.065132        -1.7723
  16   0.0000       0.059232         1.6118
  17   0.0000       0.074599         2.0299
  18   0.0000       0.110342         3.0026
  19   0.0000       0.142857         3.8873

MULLIKEN ATOMIC CHARGES
-----------------------
   0 C :    0.204031
   1 O :   -0.356660
   2 C :   -0.151202
   3 C :   -0.248144
   4 H :    0.098628
   5 H :    0.148003
   6 H :    0.171897
   7 H :    0.133447
Sum of atomic charges:    0.0000000

LOEWDIN ATOMIC CHARGES
----------------------
   0 C :    0.118160
   1 O :   -0.197431
   2 C :   -0.193158
   3 C :   -0.160771
   4 H :    0.065526
   5 H :    0.127589
   6 H :    0.126745
   7 H :    0.113340

  Mayer bond orders larger than 0.100000
B(  0-C ,  1-O ) :   1.8916 B(  0-C ,  2-C ) :   0.9335 B(  0-C ,  4-H ) :   0.8572
B(  2-C ,  3-C ) :   1.8907 B(  2-C ,  5-H ) :   0.9289 B(  3-C ,  6-H ) :   0.9254
B(  3-C ,  7-H ) :   0.9360

-----------------------------------------------------------------------------
         ABSORPTION SPECTRUM VIA TRANSITION ELECTRIC DIPOLE MOMENTS
-----------------------------------------------------------------------------
State   Energy    Wavelength  fosc         T2        TX        TY        TZ
        (cm-1)      (nm)                 (au**2)    (au)      (au)      (au)
-----------------------------------------------------------------------------
   1   29521.1    338.7   0.000073643   0.00082  -0.00546   0.02426   0.01424

FINAL SINGLE POINT ENERGY      -191.570408448769

DIPOLE MOMENT
-------------
                                X             Y             Z
Electronic contribution:     -2.24115      -1.89987      -0.27293
Nuclear contribution   :      2.66114       2.79144       0.35466
                        -----------------------------------------
Total Dipole Moment    :      0.41999       0.89157       0.08173
                        -----------------------------------------
Magnitude (a.u.)       :      0.98892
Magnitude (Debye)      :      2.51364

Rotational constants in cm-1:     0.739397     0.206052     0.161300
Rotational constants in MHz : 22166.569918  6177.297823  4835.649428

                             ****ORCA TERMINATED NORMALLY****
TOTAL RUN TIME: 0 days 0 hours 1 minutes 0 seconds 237 msec
