                         Program Version 5.0.3 -  RELEASE  -
|  1> ! B3LYP 6-31G
|  2> !TightSCF
|  3> %scf
|  4>  ConvForced true
|  5>  convergence tight
|  6>  MaxIter 500
|  7> end
|  8>
|  9> %tddft
| 10>  nroots 1
| 11> end
| 12>
| 13> # 	2806
| 14> * xyz 0 1
| 15> 		C   -1.205256  -0.283779  -0.037139
| 16> 		O   -1.360331  -1.285727  -0.668815
| 17> 		C    0.011394   0.580093  -0.158450
| 18> 		C    1.255444   0.015047   0.134745
| 19> 		H   -2.004211  -0.134658   0.731229
| 20> 		H   -0.196642   1.448160  -0.507591
| 21> 		H    1.370637  -1.039590   0.513321
| 22> 		H    2.101506   0.663617  -0.042110
| 23> *
| 24>
| 25>                          ****END OF INPUT****

CARTESIAN COORDINATES (ANGSTROEM)
---------------------------------
  C     -1.205256   -0.283779   -0.037139
  O     -1.360331   -1.285727   -0.668815
  C      0.011394    0.580093   -0.158450
  C      1.255444    0.015047    0.134745
  H     -2.004211   -0.134658    0.731229
  H     -0.196642    1.448160   -0.507591
  H      1.370637   -1.039590    0.513321
  H      2.101506    0.663617   -0.042110

 Total Charge           Charge          ....    0
 Multiplicity           Mult            ....    1
 Number of Electrons    NEL             ....   30
 Basis Dimension        Dim             ....   44

ORBITAL ENERGIES
----------------

  NO   OCC          E(Eh)            E(eV)
   0   2.0000     -19.146728      -521.0089
   1   2.0000     -10.276244      -279.6308
   2   2.0000     -10.214361      -277.9469
   3   2.0000     -10.200748      -277.5765
   4   2.0000      -1.080508       -29.4021
   5   2.0000      -0.788710       -21.4619
   6   2.0000      -0.652573       -17.7574
   7   2.0000      -0.564230       -15.3535
   8   2.0000      -0.512366       -13.9422
   9   2.0000      -0.450392       -12.2558
  10   2.0000      -0.436888       -11.8883
  11   2.0000      -0.401402       -10.9227
  12   2.0000      -0.384117       -10.4523
  13   2.0000      -0.277765        -7.5584
  14   2.0000      -0.247076        -6.7233
  15   0.0000      -0.041702        -1.1348
  16   0.0000       0.001046         0.0285
  17   0.0000       0.113535         3.0895
  18   0.0000       0.132367         3.6019
  19   0.0000       0.144011         3.9187

MULLIKEN ATOMIC CHARGES
-----------------------
   0 C :    0.138886
   1 O :   -0.338221
   2 C :   -0.101578
   3 C :   -0.253688
   4 H :    0.109243
   5 H :    0.140121
   6 H :    0.161981
   7 H :    0.143258
Sum of atomic charges:    0.0000000

LOEWDIN ATOMIC CHARGES
----------------------
   0 C :    0.108477
   1 O :   -0.221075
   2 C :   -0.165593
   3 C :   -0.180754
   4 H :    0.076838
   5 H :    0.122472
   6 H :    0.135525
   7 H :    0.124110

  Mayer bond orders larger than 0.100000
B(  0-C ,  1-O ) :   1.9191 B(  0-C ,  2-C ) :   0.9270 B(  0-C ,  4-H ) :   0.8822
B(  2-C ,  3-C ) :   1.9298 B(  2-C ,  5-H ) :   0.9366 B(  3-C ,  6-H ) :   0.9403
B(  3-C ,  7-H ) :   0.9460

-----------------------------------------------------------------------------
         ABSORPTION SPECTRUM VIA TRANSITION ELECTRIC DIPOLE MOMENTS
-----------------------------------------------------------------------------
State   Energy    Wavelength  fosc         T2        TX        TY        TZ
        (cm-1)      (nm)                 (au**2)    (au)      (au)      (au)
-----------------------------------------------------------------------------
   1   31229.8    320.2   0.000342548   0.00361   0.04506   0.03969  -0.00237

FINAL SINGLE POINT ENERGY      -191.561683997470

DIPOLE MOMENT
-------------
                                X             Y             Z
Electronic contribution:     -2.07799      -1.08537      -0.89938
Nuclear contribution   :      2.49929       1.92806       1.36311
                        -----------------------------------------
Total Dipole Moment    :      0.42130       0.84269       0.46373
                        -----------------------------------------
Magnitude (a.u.)       :      1.05007
Magnitude (Debye)      :      2.66908

Rotational constants in cm-1:     0.808544     0.188151     0.163433
Rotational constants in MHz : 24239.550196  5640.627508  4899.608701

                             ****ORCA TERMINATED NORMALLY****
TOTAL RUN TIME: 0 days 0 hours 1 minutes 1 seconds 459 msec
