                         Program Version 5.0.3 -  RELEASE  -
|  1> ! B3LYP 6-31G
|  2> !TightSCF
|  3> %scf
|  4>  ConvForced true
|  5>  convergence tight
|  6>  MaxIter 500
|  7> end
|  8>
|  9> %tddft
| 10>  nroots 1
| 11> end
| 12>
| 13> # 	638
| 14> * xyz 0 1
| 15> 		C   -1.191322  -0.331315   0.135594
| 16> 		O   -2.056283  -0.380538   0.896169
| 17> 		C    0.014579   0.404096   0.325514
| 18> 		C    1.193185   0.055027  -0.320703
| 19> 		H   -1.268135  -0.918457  -0.904980
| 20> 		H    0.001063   1.284428   1.060601
| 21> 		H    1.177239  -0.750931  -0.990070
| 22> 		H    2.110848   0.644930  -0.215018
| 23> *
| 24>
| 25>                          ****END OF INPUT****

CARTESIAN COORDINATES (ANGSTROEM)
---------------------------------
  C     -1.191322   -0.331315    0.135594
  O     -2.056283   -0.380538    0.896169
  C      0.014579    0.404096    0.325514
  C      1.193185    0.055027   -0.320703
  H     -1.268135   -0.918457   -0.904980
  H      0.001063    1.284428    1.060601
  H      1.177239   -0.750931   -0.990070
  H      2.110848    0.644930   -0.215018

 Total Charge           Charge          ....    0
 Multiplicity           Mult            ....    1
 Number of Electrons    NEL             ....   30
 Basis Dimension        Dim             ....   44

ORBITAL ENERGIES
----------------

  NO   OCC          E(Eh)            E(eV)
   0   2.0000     -19.149714      -521.0902
   1   2.0000     -10.278988      -279.7055
   2   2.0000     -10.216946      -278.0172
   3   2.0000     -10.212794      -277.9043
   4   2.0000      -1.109556       -30.1926
   5   2.0000      -0.800761       -21.7898
   6   2.0000      -0.655244       -17.8301
   7   2.0000      -0.561122       -15.2689
   8   2.0000      -0.489090       -13.3088
   9   2.0000      -0.471575       -12.8322
  10   2.0000      -0.433330       -11.7915
  11   2.0000      -0.415668       -11.3109
  12   2.0000      -0.393281       -10.7017
  13   2.0000      -0.286202        -7.7880
  14   2.0000      -0.254482        -6.9248
  15   0.0000      -0.064435        -1.7534
  16   0.0000       0.051934         1.4132
  17   0.0000       0.103718         2.8223
  18   0.0000       0.112490         3.0610
  19   0.0000       0.152199         4.1415

MULLIKEN ATOMIC CHARGES
-----------------------
   0 C :    0.157071
   1 O :   -0.323339
   2 C :   -0.100149
   3 C :   -0.271816
   4 H :    0.074218
   5 H :    0.158955
   6 H :    0.149410
   7 H :    0.155650
Sum of atomic charges:    0.0000000

LOEWDIN ATOMIC CHARGES
----------------------
   0 C :    0.092623
   1 O :   -0.189085
   2 C :   -0.160641
   3 C :   -0.177786
   4 H :    0.048749
   5 H :    0.132780
   6 H :    0.122486
   7 H :    0.130874

  Mayer bond orders larger than 0.100000
B(  0-C ,  1-O ) :   1.8785 B(  0-C ,  2-C ) :   0.9848 B(  0-C ,  4-H ) :   0.8619
B(  2-C ,  3-C ) :   1.8397 B(  2-C ,  5-H ) :   0.9290 B(  3-C ,  6-H ) :   0.9427
B(  3-C ,  7-H ) :   0.9418

-----------------------------------------------------------------------------
         ABSORPTION SPECTRUM VIA TRANSITION ELECTRIC DIPOLE MOMENTS
-----------------------------------------------------------------------------
State   Energy    Wavelength  fosc         T2        TX        TY        TZ
        (cm-1)      (nm)                 (au**2)    (au)      (au)      (au)
-----------------------------------------------------------------------------
   1   29566.8    338.2   0.000127421   0.00142  -0.03024   0.01781   0.01369

FINAL SINGLE POINT ENERGY      -191.585956459227

DIPOLE MOMENT
-------------
                                X             Y             Z
Electronic contribution:     -2.86317      -0.30840       1.42867
Nuclear contribution   :      3.92626       0.52663      -1.97707
                        -----------------------------------------
Total Dipole Moment    :      1.06309       0.21823      -0.54840
                        -----------------------------------------
Magnitude (a.u.)       :      1.21595
Magnitude (Debye)      :      3.09069

Rotational constants in cm-1:     1.495101     0.159638     0.146638
Rotational constants in MHz : 44821.994420  4785.829348  4396.084602

                             ****ORCA TERMINATED NORMALLY****
TOTAL RUN TIME: 0 days 0 hours 1 minutes 1 seconds 639 msec
