                         Program Version 5.0.3 -  RELEASE  -
|  1> ! B3LYP 6-31G
|  2> !TightSCF
|  3> %scf
|  4>  ConvForced true
|  5>  convergence tight
|  6>  MaxIter 500
|  7> end
|  8>
|  9> %tddft
| 10>  nroots 1
| 11> end
| 12>
| 13> # 	9607
| 14> * xyz 0 1
| 15> 		C   -1.189551  -0.343623   0.001210
| 16> 		O   -1.437523  -1.371970   0.667614
| 17> 		C    0.047943   0.491912   0.222725
| 18> 		C    1.253759   0.091239  -0.154549
| 19> 		H   -2.028014   0.067924  -0.770677
| 20> 		H   -0.163181   1.350448   0.568077
| 21> 		H    1.358156  -1.053353  -0.446975
| 22> 		H    2.139491   0.801937  -0.072241
| 23> *
| 24>
| 25>                          ****END OF INPUT****

CARTESIAN COORDINATES (ANGSTROEM)
---------------------------------
  C     -1.189551   -0.343623    0.001210
  O     -1.437523   -1.371970    0.667614
  C      0.047943    0.491912    0.222725
  C      1.253759    0.091239   -0.154549
  H     -2.028014    0.067924   -0.770677
  H     -0.163181    1.350448    0.568077
  H      1.358156   -1.053353   -0.446975
  H      2.139491    0.801937   -0.072241

 Total Charge           Charge          ....    0
 Multiplicity           Mult            ....    1
 Number of Electrons    NEL             ....   30
 Basis Dimension        Dim             ....   44

ORBITAL ENERGIES
----------------

  NO   OCC          E(Eh)            E(eV)
   0   2.0000     -19.157968      -521.3148
   1   2.0000     -10.294983      -280.1407
   2   2.0000     -10.216371      -278.0016
   3   2.0000     -10.196133      -277.4509
   4   2.0000      -1.052179       -28.6313
   5   2.0000      -0.803900       -21.8752
   6   2.0000      -0.649447       -17.6723
   7   2.0000      -0.557976       -15.1833
   8   2.0000      -0.503977       -13.7139
   9   2.0000      -0.448163       -12.1951
  10   2.0000      -0.432117       -11.7585
  11   2.0000      -0.389726       -10.6050
  12   2.0000      -0.375216       -10.2102
  13   2.0000      -0.289488        -7.8774
  14   2.0000      -0.255052        -6.9403
  15   0.0000      -0.048467        -1.3189
  16   0.0000      -0.000248        -0.0068
  17   0.0000       0.095373         2.5952
  18   0.0000       0.099953         2.7199
  19   0.0000       0.137133         3.7316

MULLIKEN ATOMIC CHARGES
-----------------------
   0 C :    0.167231
   1 O :   -0.370351
   2 C :   -0.078214
   3 C :   -0.268967
   4 H :    0.111842
   5 H :    0.139822
   6 H :    0.152413
   7 H :    0.146223
Sum of atomic charges:    0.0000000

LOEWDIN ATOMIC CHARGES
----------------------
   0 C :    0.130746
   1 O :   -0.239015
   2 C :   -0.170649
   3 C :   -0.181170
   4 H :    0.080480
   5 H :    0.121018
   6 H :    0.130626
   7 H :    0.127965

  Mayer bond orders larger than 0.100000
B(  0-C ,  1-O ) :   1.8870 B(  0-C ,  2-C ) :   0.9322 B(  0-C ,  4-H ) :   0.8572
B(  2-C ,  3-C ) :   1.9253 B(  2-C ,  5-H ) :   0.9346 B(  3-C ,  6-H ) :   0.9445
B(  3-C ,  7-H ) :   0.9434

-----------------------------------------------------------------------------
         ABSORPTION SPECTRUM VIA TRANSITION ELECTRIC DIPOLE MOMENTS
-----------------------------------------------------------------------------
State   Energy    Wavelength  fosc         T2        TX        TY        TZ
        (cm-1)      (nm)                 (au**2)    (au)      (au)      (au)
-----------------------------------------------------------------------------
   1   30245.3    330.6   0.000166690   0.00181  -0.02004   0.03685  -0.00739

FINAL SINGLE POINT ENERGY      -191.561969258470

DIPOLE MOMENT
-------------
                                X             Y             Z
Electronic contribution:     -2.10562      -1.34670       0.93362
Nuclear contribution   :      2.57093       2.27719      -1.39220
                        -----------------------------------------
Total Dipole Moment    :      0.46531       0.93049      -0.45858
                        -----------------------------------------
Magnitude (a.u.)       :      1.13693
Magnitude (Debye)      :      2.88986

Rotational constants in cm-1:     0.876576     0.174698     0.156446
Rotational constants in MHz : 26279.095630  5237.305069  4690.144553

                             ****ORCA TERMINATED NORMALLY****
TOTAL RUN TIME: 0 days 0 hours 1 minutes 1 seconds 373 msec
