                         Program Version 5.0.3 -  RELEASE  -
|  1> ! B3LYP 6-31G
|  2> !TightSCF
|  3> %scf
|  4>  ConvForced true
|  5>  convergence tight
|  6>  MaxIter 500
|  7> end
|  8>
|  9> %tddft
| 10>  nroots 1
| 11> end
| 12>
| 13> # 	23539
| 14> * xyz 0 1
| 15> 		C   -0.571245  -0.441390  -0.011616
| 16> 		O   -0.579904  -1.610443   0.019639
| 17> 		C    0.650904   0.405053   0.042147
| 18> 		C    1.831090  -0.129217  -0.050248
| 19> 		H   -1.538734   0.127897  -0.286640
| 20> 		H    0.438375   1.372723   0.073960
| 21> 		H    1.832265  -1.205307  -0.009159
| 22> 		H    2.647174   0.477515   0.161664
| 23> *
| 24>
| 25>                          ****END OF INPUT****

CARTESIAN COORDINATES (ANGSTROEM)
---------------------------------
  C     -0.571245   -0.441390   -0.011616
  O     -0.579904   -1.610443    0.019639
  C      0.650904    0.405053    0.042147
  C      1.831090   -0.129217   -0.050248
  H     -1.538734    0.127897   -0.286640
  H      0.438375    1.372723    0.073960
  H      1.832265   -1.205307   -0.009159
  H      2.647174    0.477515    0.161664

 Total Charge           Charge          ....    0
 Multiplicity           Mult            ....    1
 Number of Electrons    NEL             ....   30
 Basis Dimension        Dim             ....   44

ORBITAL ENERGIES
----------------

  NO   OCC          E(Eh)            E(eV)
   0   2.0000     -19.151873      -521.1490
   1   2.0000     -10.277523      -279.6656
   2   2.0000     -10.193729      -277.3855
   3   2.0000     -10.186175      -277.1799
   4   2.0000      -1.099119       -29.9085
   5   2.0000      -0.811717       -22.0879
   6   2.0000      -0.659743       -17.9525
   7   2.0000      -0.542472       -14.7614
   8   2.0000      -0.529137       -14.3985
   9   2.0000      -0.450229       -12.2514
  10   2.0000      -0.440288       -11.9809
  11   2.0000      -0.414872       -11.2892
  12   2.0000      -0.391792       -10.6612
  13   2.0000      -0.294553        -8.0152
  14   2.0000      -0.254539        -6.9264
  15   0.0000      -0.060313        -1.6412
  16   0.0000       0.067173         1.8279
  17   0.0000       0.112907         3.0724
  18   0.0000       0.135665         3.6916
  19   0.0000       0.172086         4.6827

MULLIKEN ATOMIC CHARGES
-----------------------
   0 C :    0.162589
   1 O :   -0.336371
   2 C :   -0.091210
   3 C :   -0.251617
   4 H :    0.086749
   5 H :    0.119865
   6 H :    0.168227
   7 H :    0.141769
Sum of atomic charges:   -0.0000000

LOEWDIN ATOMIC CHARGES
----------------------
   0 C :    0.108544
   1 O :   -0.205309
   2 C :   -0.181937
   3 C :   -0.160329
   4 H :    0.059259
   5 H :    0.114261
   6 H :    0.138074
   7 H :    0.127438

  Mayer bond orders larger than 0.100000
B(  0-C ,  1-O ) :   1.9024 B(  0-C ,  2-C ) :   0.9697 B(  0-C ,  4-H ) :   0.8689
B(  2-C ,  3-C ) :   1.9030 B(  2-C ,  5-H ) :   0.9351 B(  3-C ,  6-H ) :   0.9286
B(  3-C ,  7-H ) :   0.9447

-----------------------------------------------------------------------------
         ABSORPTION SPECTRUM VIA TRANSITION ELECTRIC DIPOLE MOMENTS
-----------------------------------------------------------------------------
State   Energy    Wavelength  fosc         T2        TX        TY        TZ
        (cm-1)      (nm)                 (au**2)    (au)      (au)      (au)
-----------------------------------------------------------------------------
   1   29608.9    337.7   0.000208519   0.00232  -0.01634  -0.00533   0.04498

FINAL SINGLE POINT ENERGY      -191.580601436914

DIPOLE MOMENT
-------------
                                X             Y             Z
Electronic contribution:     -1.61791      -1.56937       0.09224
Nuclear contribution   :      2.01394       2.51394      -0.05729
                        -----------------------------------------
Total Dipole Moment    :      0.39603       0.94458       0.03495
                        -----------------------------------------
Magnitude (a.u.)       :      1.02484
Magnitude (Debye)      :      2.60493

Rotational constants in cm-1:     0.813262     0.214087     0.170070
Rotational constants in MHz : 24380.969265  6418.168799  5098.558774

                             ****ORCA TERMINATED NORMALLY****
TOTAL RUN TIME: 0 days 0 hours 0 minutes 52 seconds 829 msec
