                         Program Version 5.0.3 -  RELEASE  -
|  1> ! B3LYP 6-31G
|  2> !TightSCF
|  3> %scf
|  4>  ConvForced true
|  5>  convergence tight
|  6>  MaxIter 500
|  7> end
|  8>
|  9> %tddft
| 10>  nroots 1
| 11> end
| 12>
| 13> # 	29332
| 14> * xyz 0 1
| 15> 		C   -0.603108  -0.439705   0.089869
| 16> 		O   -0.575614  -1.619670  -0.054691
| 17> 		C    0.623442   0.421882  -0.052690
| 18> 		C    1.823281  -0.118080   0.033856
| 19> 		H   -1.603236   0.017384   0.143061
| 20> 		H    0.535013   1.393776  -0.233016
| 21> 		H    2.218395  -1.075644   0.224821
| 22> 		H    2.947341   0.257469  -0.137171
| 23> *
| 24>
| 25>                          ****END OF INPUT****

CARTESIAN COORDINATES (ANGSTROEM)
---------------------------------
  C     -0.603108   -0.439705    0.089869
  O     -0.575614   -1.619670   -0.054691
  C      0.623442    0.421882   -0.052690
  C      1.823281   -0.118080    0.033856
  H     -1.603236    0.017384    0.143061
  H      0.535013    1.393776   -0.233016
  H      2.218395   -1.075644    0.224821
  H      2.947341    0.257469   -0.137171

 Total Charge           Charge          ....    0
 Multiplicity           Mult            ....    1
 Number of Electrons    NEL             ....   30
 Basis Dimension        Dim             ....   44

ORBITAL ENERGIES
----------------

  NO   OCC          E(Eh)            E(eV)
   0   2.0000     -19.146217      -520.9951
   1   2.0000     -10.277601      -279.6677
   2   2.0000     -10.210572      -277.8438
   3   2.0000     -10.199191      -277.5341
   4   2.0000      -1.083309       -29.4783
   5   2.0000      -0.797794       -21.7091
   6   2.0000      -0.655242       -17.8300
   7   2.0000      -0.571702       -15.5568
   8   2.0000      -0.516190       -14.0462
   9   2.0000      -0.468306       -12.7433
  10   2.0000      -0.424980       -11.5643
  11   2.0000      -0.407952       -11.1009
  12   2.0000      -0.349507        -9.5106
  13   2.0000      -0.289484        -7.8773
  14   2.0000      -0.252854        -6.8805
  15   0.0000      -0.060380        -1.6430
  16   0.0000       0.056928         1.5491
  17   0.0000       0.088791         2.4161
  18   0.0000       0.129354         3.5199
  19   0.0000       0.164354         4.4723

MULLIKEN ATOMIC CHARGES
-----------------------
   0 C :    0.171148
   1 O :   -0.343308
   2 C :   -0.123660
   3 C :   -0.258814
   4 H :    0.104890
   5 H :    0.133086
   6 H :    0.178629
   7 H :    0.138029
Sum of atomic charges:   -0.0000000

LOEWDIN ATOMIC CHARGES
----------------------
   0 C :    0.116086
   1 O :   -0.218893
   2 C :   -0.171444
   3 C :   -0.169234
   4 H :    0.075888
   5 H :    0.124402
   6 H :    0.128297
   7 H :    0.114896

  Mayer bond orders larger than 0.100000
B(  0-C ,  1-O ) :   1.9049 B(  0-C ,  2-C ) :   0.9513 B(  0-C ,  4-H ) :   0.8835
B(  2-C ,  3-C ) :   1.9251 B(  2-C ,  5-H ) :   0.9351 B(  3-C ,  6-H ) :   0.9235
B(  3-C ,  7-H ) :   0.9404

-----------------------------------------------------------------------------
         ABSORPTION SPECTRUM VIA TRANSITION ELECTRIC DIPOLE MOMENTS
-----------------------------------------------------------------------------
State   Energy    Wavelength  fosc         T2        TX        TY        TZ
        (cm-1)      (nm)                 (au**2)    (au)      (au)      (au)
-----------------------------------------------------------------------------
   1   28982.5    345.0   0.000023303   0.00026   0.01071  -0.01212   0.00179

FINAL SINGLE POINT ENERGY      -191.565961858331

DIPOLE MOMENT
-------------
                                X             Y             Z
Electronic contribution:     -2.28584      -1.42581       0.07025
Nuclear contribution   :      2.68893       2.34325      -0.00135
                        -----------------------------------------
Total Dipole Moment    :      0.40309       0.91745       0.06890
                        -----------------------------------------
Magnitude (a.u.)       :      1.00446
Magnitude (Debye)      :      2.55313

Rotational constants in cm-1:     0.769887     0.207391     0.164454
Rotational constants in MHz : 23080.622708  6217.416174  4930.221156

                             ****ORCA TERMINATED NORMALLY****
TOTAL RUN TIME: 0 days 0 hours 1 minutes 1 seconds 439 msec
