                         Program Version 5.0.3 -  RELEASE  -
|  1> ! B3LYP 6-31G
|  2> !TightSCF
|  3> %scf
|  4>  ConvForced true
|  5>  convergence tight
|  6>  MaxIter 500
|  7> end
|  8>
|  9> %tddft
| 10>  nroots 1
| 11> end
| 12>
| 13> # 	20791
| 14> * xyz 0 1
| 15> 		C   -0.594101  -0.400350  -0.034554
| 16> 		O   -0.596659  -1.645969   0.017769
| 17> 		C    0.606869   0.388546   0.028520
| 18> 		C    1.884032  -0.076821  -0.022966
| 19> 		H   -1.544118  -0.097841  -0.021473
| 20> 		H    0.512906   1.373598   0.032478
| 21> 		H    2.041485  -1.342333  -0.022581
| 22> 		H    2.812633   0.474455   0.081993
| 23> *
| 24>
| 25>                          ****END OF INPUT****

CARTESIAN COORDINATES (ANGSTROEM)
---------------------------------
  C     -0.594101   -0.400350   -0.034554
  O     -0.596659   -1.645969    0.017769
  C      0.606869    0.388546    0.028520
  C      1.884032   -0.076821   -0.022966
  H     -1.544118   -0.097841   -0.021473
  H      0.512906    1.373598    0.032478
  H      2.041485   -1.342333   -0.022581
  H      2.812633    0.474455    0.081993

 Total Charge           Charge          ....    0
 Multiplicity           Mult            ....    1
 Number of Electrons    NEL             ....   30
 Basis Dimension        Dim             ....   44

ORBITAL ENERGIES
----------------

  NO   OCC          E(Eh)            E(eV)
   0   2.0000     -19.135673      -520.7081
   1   2.0000     -10.262379      -279.2535
   2   2.0000     -10.229104      -278.3481
   3   2.0000     -10.199601      -277.5453
   4   2.0000      -1.043908       -28.4062
   5   2.0000      -0.798611       -21.7313
   6   2.0000      -0.664911       -18.0932
   7   2.0000      -0.566366       -15.4116
   8   2.0000      -0.523175       -14.2363
   9   2.0000      -0.456047       -12.4097
  10   2.0000      -0.412604       -11.2275
  11   2.0000      -0.392126       -10.6703
  12   2.0000      -0.360573        -9.8117
  13   2.0000      -0.282530        -7.6880
  14   2.0000      -0.248465        -6.7611
  15   0.0000      -0.076316        -2.0767
  16   0.0000       0.062991         1.7141
  17   0.0000       0.094097         2.5605
  18   0.0000       0.115379         3.1396
  19   0.0000       0.173305         4.7159

MULLIKEN ATOMIC CHARGES
-----------------------
   0 C :    0.167214
   1 O :   -0.392017
   2 C :   -0.084896
   3 C :   -0.249217
   4 H :    0.123463
   5 H :    0.124379
   6 H :    0.153779
   7 H :    0.157294
Sum of atomic charges:   -0.0000000

LOEWDIN ATOMIC CHARGES
----------------------
   0 C :    0.106459
   1 O :   -0.265199
   2 C :   -0.178961
   3 C :   -0.138296
   4 H :    0.098175
   5 H :    0.119599
   6 H :    0.129004
   7 H :    0.129219

  Mayer bond orders larger than 0.100000
B(  0-C ,  1-O ) :   1.8547 B(  0-C ,  2-C ) :   1.0218 B(  0-C ,  4-H ) :   0.9270
B(  1-O ,  3-C ) :   0.1198 B(  2-C ,  3-C ) :   1.8315 B(  2-C ,  5-H ) :   0.9362
B(  3-C ,  6-H ) :   0.9350 B(  3-C ,  7-H ) :   0.9317

-----------------------------------------------------------------------------
         ABSORPTION SPECTRUM VIA TRANSITION ELECTRIC DIPOLE MOMENTS
-----------------------------------------------------------------------------
State   Energy    Wavelength  fosc         T2        TX        TY        TZ
        (cm-1)      (nm)                 (au**2)    (au)      (au)      (au)
-----------------------------------------------------------------------------
   1   24421.0    409.5   0.000042580   0.00057   0.01335   0.00093  -0.01987

FINAL SINGLE POINT ENERGY      -191.589021501814

DIPOLE MOMENT
-------------
                                X             Y             Z
Electronic contribution:     -1.98610      -1.05062      -0.06733
Nuclear contribution   :      2.42929       2.17186       0.06586
                        -----------------------------------------
Total Dipole Moment    :      0.44319       1.12123      -0.00147
                        -----------------------------------------
Magnitude (a.u.)       :      1.20565
Magnitude (Debye)      :      3.06451

Rotational constants in cm-1:     0.780860     0.202507     0.160940
Rotational constants in MHz : 23409.594980  6071.004178  4824.865639

                             ****ORCA TERMINATED NORMALLY****
TOTAL RUN TIME: 0 days 0 hours 1 minutes 0 seconds 316 msec
