                         Program Version 5.0.3 -  RELEASE  -
|  1> ! B3LYP 6-31G
|  2> !TightSCF
|  3> %scf
|  4>  ConvForced true
|  5>  convergence tight
|  6>  MaxIter 500
|  7> end
|  8>
|  9> %tddft
| 10>  nroots 1
| 11> end
| 12>
| 13> # 	1053
| 14> * xyz 0 1
| 15> 		C   -1.198014  -0.321853  -0.021969
| 16> 		O   -1.829779  -0.965395   0.836631
| 17> 		C    0.055710   0.361932   0.343866
| 18> 		C    1.273517   0.012123  -0.194567
| 19> 		H   -1.464315  -0.390053  -1.157018
| 20> 		H   -0.013139   1.248495   1.088932
| 21> 		H    1.250648  -0.628854  -0.924529
| 22> 		H    1.951267   0.621844   0.077108
| 23> *
| 24>
| 25>                          ****END OF INPUT****

CARTESIAN COORDINATES (ANGSTROEM)
---------------------------------
  C     -1.198014   -0.321853   -0.021969
  O     -1.829779   -0.965395    0.836631
  C      0.055710    0.361932    0.343866
  C      1.273517    0.012123   -0.194567
  H     -1.464315   -0.390053   -1.157018
  H     -0.013139    1.248495    1.088932
  H      1.250648   -0.628854   -0.924529
  H      1.951267    0.621844    0.077108

 Total Charge           Charge          ....    0
 Multiplicity           Mult            ....    1
 Number of Electrons    NEL             ....   30
 Basis Dimension        Dim             ....   44

ORBITAL ENERGIES
----------------

  NO   OCC          E(Eh)            E(eV)
   0   2.0000     -19.157867      -521.3121
   1   2.0000     -10.290761      -280.0259
   2   2.0000     -10.216014      -277.9919
   3   2.0000     -10.185247      -277.1547
   4   2.0000      -1.056487       -28.7485
   5   2.0000      -0.803635       -21.8680
   6   2.0000      -0.664506       -18.0821
   7   2.0000      -0.564517       -15.3613
   8   2.0000      -0.508854       -13.8466
   9   2.0000      -0.461682       -12.5630
  10   2.0000      -0.429506       -11.6875
  11   2.0000      -0.414171       -11.2702
  12   2.0000      -0.369675       -10.0594
  13   2.0000      -0.281882        -7.6704
  14   2.0000      -0.258592        -7.0366
  15   0.0000      -0.061302        -1.6681
  16   0.0000       0.002414         0.0657
  17   0.0000       0.102401         2.7865
  18   0.0000       0.129478         3.5233
  19   0.0000       0.156567         4.2604

MULLIKEN ATOMIC CHARGES
-----------------------
   0 C :    0.167031
   1 O :   -0.366640
   2 C :   -0.146885
   3 C :   -0.201854
   4 H :    0.119634
   5 H :    0.161463
   6 H :    0.136062
   7 H :    0.131190
Sum of atomic charges:    0.0000000

LOEWDIN ATOMIC CHARGES
----------------------
   0 C :    0.117664
   1 O :   -0.230921
   2 C :   -0.143967
   3 C :   -0.206675
   4 H :    0.083752
   5 H :    0.133184
   6 H :    0.122244
   7 H :    0.124719

  Mayer bond orders larger than 0.100000
B(  0-C ,  1-O ) :   1.8666 B(  0-C ,  2-C ) :   0.9571 B(  0-C ,  4-H ) :   0.8663
B(  2-C ,  3-C ) :   1.9262 B(  2-C ,  5-H ) :   0.9270 B(  3-C ,  6-H ) :   0.9542
B(  3-C ,  7-H ) :   0.9515

-----------------------------------------------------------------------------
         ABSORPTION SPECTRUM VIA TRANSITION ELECTRIC DIPOLE MOMENTS
-----------------------------------------------------------------------------
State   Energy    Wavelength  fosc         T2        TX        TY        TZ
        (cm-1)      (nm)                 (au**2)    (au)      (au)      (au)
-----------------------------------------------------------------------------
   1   29103.9    343.6   0.001097359   0.01241  -0.09481  -0.01023   0.05762

FINAL SINGLE POINT ENERGY      -191.560369758977

DIPOLE MOMENT
-------------
                                X             Y             Z
Electronic contribution:     -2.59412      -1.06290       1.12012
Nuclear contribution   :      3.33532       1.72263      -1.78678
                        -----------------------------------------
Total Dipole Moment    :      0.74120       0.65973      -0.66666
                        -----------------------------------------
Magnitude (a.u.)       :      1.19543
Magnitude (Debye)      :      3.03854

Rotational constants in cm-1:     1.111638     0.158280     0.153785
Rotational constants in MHz : 33326.067402  4745.123664  4610.371419

                             ****ORCA TERMINATED NORMALLY****
TOTAL RUN TIME: 0 days 0 hours 0 minutes 55 seconds 837 msec
