                         Program Version 5.0.3 -  RELEASE  -
|  1> ! B3LYP 6-31G
|  2> !TightSCF
|  3> %scf
|  4>  ConvForced true
|  5>  convergence tight
|  6>  MaxIter 500
|  7> end
|  8>
|  9> %tddft
| 10>  nroots 1
| 11> end
| 12>
| 13> # 	3180
| 14> * xyz 0 1
| 15> 		C   -1.193716  -0.348781   0.077277
| 16> 		O   -1.205024  -1.552261  -0.073181
| 17> 		C   -0.034342   0.543551  -0.087639
| 18> 		C    1.242944  -0.037920   0.015594
| 19> 		H   -2.110407   0.121283   0.157496
| 20> 		H   -0.175039   1.632649  -0.318685
| 21> 		H    1.515901  -1.103697   0.245957
| 22> 		H    2.009156   0.725035  -0.003969
| 23> *
| 24>
| 25>                          ****END OF INPUT****

CARTESIAN COORDINATES (ANGSTROEM)
---------------------------------
  C     -1.193716   -0.348781    0.077277
  O     -1.205024   -1.552261   -0.073181
  C     -0.034342    0.543551   -0.087639
  C      1.242944   -0.037920    0.015594
  H     -2.110407    0.121283    0.157496
  H     -0.175039    1.632649   -0.318685
  H      1.515901   -1.103697    0.245957
  H      2.009156    0.725035   -0.003969

 Total Charge           Charge          ....    0
 Multiplicity           Mult            ....    1
 Number of Electrons    NEL             ....   30
 Basis Dimension        Dim             ....   44

ORBITAL ENERGIES
----------------

  NO   OCC          E(Eh)            E(eV)
   0   2.0000     -19.141659      -520.8710
   1   2.0000     -10.265178      -279.3297
   2   2.0000     -10.219625      -278.0901
   3   2.0000     -10.214030      -277.9379
   4   2.0000      -1.062787       -28.9199
   5   2.0000      -0.786005       -21.3883
   6   2.0000      -0.662295       -18.0220
   7   2.0000      -0.552131       -15.0242
   8   2.0000      -0.512218       -13.9382
   9   2.0000      -0.441046       -12.0015
  10   2.0000      -0.414249       -11.2723
  11   2.0000      -0.395457       -10.7609
  12   2.0000      -0.393018       -10.6946
  13   2.0000      -0.277615        -7.5543
  14   2.0000      -0.249420        -6.7871
  15   0.0000      -0.071023        -1.9326
  16   0.0000       0.047589         1.2950
  17   0.0000       0.100113         2.7242
  18   0.0000       0.118032         3.2118
  19   0.0000       0.168973         4.5980

MULLIKEN ATOMIC CHARGES
-----------------------
   0 C :    0.182374
   1 O :   -0.374652
   2 C :   -0.139745
   3 C :   -0.240664
   4 H :    0.099181
   5 H :    0.153268
   6 H :    0.182829
   7 H :    0.137409
Sum of atomic charges:   -0.0000000

LOEWDIN ATOMIC CHARGES
----------------------
   0 C :    0.105781
   1 O :   -0.240450
   2 C :   -0.179181
   3 C :   -0.158105
   4 H :    0.073444
   5 H :    0.130763
   6 H :    0.146578
   7 H :    0.121170

  Mayer bond orders larger than 0.100000
B(  0-C ,  1-O ) :   1.8714 B(  0-C ,  2-C ) :   0.9915 B(  0-C ,  4-H ) :   0.8995
B(  1-O ,  3-C ) :   0.1072 B(  2-C ,  3-C ) :   1.8389 B(  2-C ,  5-H ) :   0.9294
B(  3-C ,  6-H ) :   0.9308 B(  3-C ,  7-H ) :   0.9420

-----------------------------------------------------------------------------
         ABSORPTION SPECTRUM VIA TRANSITION ELECTRIC DIPOLE MOMENTS
-----------------------------------------------------------------------------
State   Energy    Wavelength  fosc         T2        TX        TY        TZ
        (cm-1)      (nm)                 (au**2)    (au)      (au)      (au)
-----------------------------------------------------------------------------
   1   26521.5    377.1   0.000002098   0.00003  -0.00404  -0.00007   0.00312

FINAL SINGLE POINT ENERGY      -191.603091449748

DIPOLE MOMENT
-------------
                                X             Y             Z
Electronic contribution:     -1.87758      -1.65691      -0.02733
Nuclear contribution   :      2.34473       2.71642       0.14370
                        -----------------------------------------
Total Dipole Moment    :      0.46715       1.05951       0.11638
                        -----------------------------------------
Magnitude (a.u.)       :      1.16375
Magnitude (Debye)      :      2.95803

Rotational constants in cm-1:     0.727136     0.206756     0.162267
Rotational constants in MHz : 21798.980708  6198.384092  4864.644967

                             ****ORCA TERMINATED NORMALLY****
TOTAL RUN TIME: 0 days 0 hours 1 minutes 1 seconds 147 msec
