                         Program Version 5.0.3 -  RELEASE  -
|  1> ! B3LYP 6-31G
|  2> !TightSCF
|  3> %scf
|  4>  ConvForced true
|  5>  convergence tight
|  6>  MaxIter 500
|  7> end
|  8>
|  9> %tddft
| 10>  nroots 1
| 11> end
| 12>
| 13> # 	90
| 14> * xyz 0 1
| 15> 		C   -1.211771  -0.392166  -0.045080
| 16> 		O   -1.668435  -1.173897  -0.768059
| 17> 		C   -0.037657   0.463823  -0.259335
| 18> 		C    1.169597   0.015058   0.161009
| 19> 		H   -1.481438  -0.168875   0.968425
| 20> 		H   -0.013023   1.442621  -0.827687
| 21> 		H    1.266862  -0.891989   0.740771
| 22> 		H    1.996123   0.686402   0.058448
| 23> *
| 24>
| 25>                          ****END OF INPUT****

CARTESIAN COORDINATES (ANGSTROEM)
---------------------------------
  C     -1.211771   -0.392166   -0.045080
  O     -1.668435   -1.173897   -0.768059
  C     -0.037657    0.463823   -0.259335
  C      1.169597    0.015058    0.161009
  H     -1.481438   -0.168875    0.968425
  H     -0.013023    1.442621   -0.827687
  H      1.266862   -0.891989    0.740771
  H      1.996123    0.686402    0.058448

 Total Charge           Charge          ....    0
 Multiplicity           Mult            ....    1
 Number of Electrons    NEL             ....   30
 Basis Dimension        Dim             ....   44

ORBITAL ENERGIES
----------------

  NO   OCC          E(Eh)            E(eV)
   0   2.0000     -19.162045      -521.4258
   1   2.0000     -10.280736      -279.7530
   2   2.0000     -10.202228      -277.6167
   3   2.0000     -10.195747      -277.4404
   4   2.0000      -1.111261       -30.2389
   5   2.0000      -0.800868       -21.7927
   6   2.0000      -0.659314       -17.9408
   7   2.0000      -0.562739       -15.3129
   8   2.0000      -0.504194       -13.7198
   9   2.0000      -0.464043       -12.6272
  10   2.0000      -0.447558       -12.1787
  11   2.0000      -0.405394       -11.0313
  12   2.0000      -0.387330       -10.5398
  13   2.0000      -0.279607        -7.6085
  14   2.0000      -0.256745        -6.9864
  15   0.0000      -0.032168        -0.8753
  16   0.0000      -0.000592        -0.0161
  17   0.0000       0.115875         3.1531
  18   0.0000       0.135792         3.6951
  19   0.0000       0.144885         3.9425

MULLIKEN ATOMIC CHARGES
-----------------------
   0 C :    0.151035
   1 O :   -0.303589
   2 C :   -0.144782
   3 C :   -0.264361
   4 H :    0.113054
   5 H :    0.164978
   6 H :    0.143426
   7 H :    0.140241
Sum of atomic charges:   -0.0000000

LOEWDIN ATOMIC CHARGES
----------------------
   0 C :    0.112826
   1 O :   -0.170912
   2 C :   -0.178456
   3 C :   -0.214501
   4 H :    0.072065
   5 H :    0.138204
   6 H :    0.119165
   7 H :    0.121608

  Mayer bond orders larger than 0.100000
B(  0-C ,  1-O ) :   1.9736 B(  0-C ,  2-C ) :   0.9145 B(  0-C ,  4-H ) :   0.8649
B(  2-C ,  3-C ) :   1.9382 B(  2-C ,  5-H ) :   0.9234 B(  3-C ,  6-H ) :   0.9499
B(  3-C ,  7-H ) :   0.9483

-----------------------------------------------------------------------------
         ABSORPTION SPECTRUM VIA TRANSITION ELECTRIC DIPOLE MOMENTS
-----------------------------------------------------------------------------
State   Energy    Wavelength  fosc         T2        TX        TY        TZ
        (cm-1)      (nm)                 (au**2)    (au)      (au)      (au)
-----------------------------------------------------------------------------
   1   34489.3    289.9   0.000022056   0.00021   0.00608  -0.01316  -0.00054

FINAL SINGLE POINT ENERGY      -191.551115745526

DIPOLE MOMENT
-------------
                                X             Y             Z
Electronic contribution:     -2.83981      -1.39296      -1.21370
Nuclear contribution   :      3.37294       2.10451       1.74833
                        -----------------------------------------
Total Dipole Moment    :      0.53313       0.71155       0.53463
                        -----------------------------------------
Magnitude (a.u.)       :      1.03747
Magnitude (Debye)      :      2.63705

Rotational constants in cm-1:     1.022715     0.171691     0.162537
Rotational constants in MHz : 30660.227749  5147.177703  4872.723535

                             ****ORCA TERMINATED NORMALLY****
TOTAL RUN TIME: 0 days 0 hours 1 minutes 0 seconds 158 msec
