                         Program Version 5.0.3 -  RELEASE  -
|  1> ! B3LYP 6-31G
|  2> !TightSCF
|  3> %scf
|  4>  ConvForced true
|  5>  convergence tight
|  6>  MaxIter 500
|  7> end
|  8>
|  9> %tddft
| 10>  nroots 1
| 11> end
| 12>
| 13> # 	28268
| 14> * xyz 0 1
| 15> 		C   -0.610480  -0.451414  -0.014214
| 16> 		O   -0.568010  -1.647625   0.001709
| 17> 		C    0.636725   0.445839   0.006943
| 18> 		C    1.837344  -0.135656  -0.034929
| 19> 		H   -1.491216   0.185968   0.126444
| 20> 		H    0.551957   1.524859  -0.001910
| 21> 		H    1.860613  -1.110121   0.188792
| 22> 		H    2.850656   0.481767   0.166802
| 23> *
| 24>
| 25>                          ****END OF INPUT****

CARTESIAN COORDINATES (ANGSTROEM)
---------------------------------
  C     -0.610480   -0.451414   -0.014214
  O     -0.568010   -1.647625    0.001709
  C      0.636725    0.445839    0.006943
  C      1.837344   -0.135656   -0.034929
  H     -1.491216    0.185968    0.126444
  H      0.551957    1.524859   -0.001910
  H      1.860613   -1.110121    0.188792
  H      2.850656    0.481767    0.166802

 Total Charge           Charge          ....    0
 Multiplicity           Mult            ....    1
 Number of Electrons    NEL             ....   30
 Basis Dimension        Dim             ....   44

ORBITAL ENERGIES
----------------

  NO   OCC          E(Eh)            E(eV)
   0   2.0000     -19.158563      -521.3310
   1   2.0000     -10.284677      -279.8603
   2   2.0000     -10.203319      -277.6464
   3   2.0000     -10.201356      -277.5930
   4   2.0000      -1.084638       -29.5145
   5   2.0000      -0.795361       -21.6429
   6   2.0000      -0.654805       -17.8182
   7   2.0000      -0.552299       -15.0288
   8   2.0000      -0.508809       -13.8454
   9   2.0000      -0.449355       -12.2276
  10   2.0000      -0.421144       -11.4599
  11   2.0000      -0.410616       -11.1734
  12   2.0000      -0.382829       -10.4173
  13   2.0000      -0.287055        -7.8112
  14   2.0000      -0.260327        -7.0839
  15   0.0000      -0.067556        -1.8383
  16   0.0000       0.052347         1.4244
  17   0.0000       0.092775         2.5245
  18   0.0000       0.131356         3.5744
  19   0.0000       0.157687         4.2909

MULLIKEN ATOMIC CHARGES
-----------------------
   0 C :    0.202283
   1 O :   -0.365283
   2 C :   -0.142074
   3 C :   -0.234432
   4 H :    0.109689
   5 H :    0.137848
   6 H :    0.158415
   7 H :    0.133554
Sum of atomic charges:   -0.0000000

LOEWDIN ATOMIC CHARGES
----------------------
   0 C :    0.119743
   1 O :   -0.214241
   2 C :   -0.185676
   3 C :   -0.161826
   4 H :    0.074362
   5 H :    0.121093
   6 H :    0.124848
   7 H :    0.121698

  Mayer bond orders larger than 0.100000
B(  0-C ,  1-O ) :   1.8716 B(  0-C ,  2-C ) :   0.9512 B(  0-C ,  4-H ) :   0.8710
B(  2-C ,  3-C ) :   1.8829 B(  2-C ,  5-H ) :   0.9334 B(  3-C ,  6-H ) :   0.9342
B(  3-C ,  7-H ) :   0.9441

-----------------------------------------------------------------------------
         ABSORPTION SPECTRUM VIA TRANSITION ELECTRIC DIPOLE MOMENTS
-----------------------------------------------------------------------------
State   Energy    Wavelength  fosc         T2        TX        TY        TZ
        (cm-1)      (nm)                 (au**2)    (au)      (au)      (au)
-----------------------------------------------------------------------------
   1   29180.4    342.7   0.000194130   0.00219   0.04339  -0.00989  -0.01447

FINAL SINGLE POINT ENERGY      -191.583724009691

DIPOLE MOMENT
-------------
                                X             Y             Z
Electronic contribution:     -2.08698      -1.83195      -0.33234
Nuclear contribution   :      2.38142       2.80327       0.45017
                        -----------------------------------------
Total Dipole Moment    :      0.29443       0.97132       0.11783
                        -----------------------------------------
Magnitude (a.u.)       :      1.02178
Magnitude (Debye)      :      2.59715

Rotational constants in cm-1:     0.755382     0.207296     0.162966
Rotational constants in MHz : 22645.773014  6214.580943  4885.597575

                             ****ORCA TERMINATED NORMALLY****
TOTAL RUN TIME: 0 days 0 hours 1 minutes 1 seconds 57 msec
