                         Program Version 5.0.3 -  RELEASE  -
|  1> ! B3LYP 6-31G
|  2> !TightSCF
|  3> %scf
|  4>  ConvForced true
|  5>  convergence tight
|  6>  MaxIter 500
|  7> end
|  8>
|  9> %tddft
| 10>  nroots 1
| 11> end
| 12>
| 13> # 	8742
| 14> * xyz 0 1
| 15> 		C   -1.175504  -0.339784  -0.053614
| 16> 		O   -1.284633  -1.507028   0.188901
| 17> 		C   -0.016544   0.576680   0.038997
| 18> 		C    1.195827   0.017151  -0.070442
| 19> 		H   -2.086017   0.088661  -0.319982
| 20> 		H   -0.176020   1.599832   0.179258
| 21> 		H    1.338290  -1.116624  -0.045721
| 22> 		H    2.159984   0.621160   0.038053
| 23> *
| 24>
| 25>                          ****END OF INPUT****

CARTESIAN COORDINATES (ANGSTROEM)
---------------------------------
  C     -1.175504   -0.339784   -0.053614
  O     -1.284633   -1.507028    0.188901
  C     -0.016544    0.576680    0.038997
  C      1.195827    0.017151   -0.070442
  H     -2.086017    0.088661   -0.319982
  H     -0.176020    1.599832    0.179258
  H      1.338290   -1.116624   -0.045721
  H      2.159984    0.621160    0.038053

 Total Charge           Charge          ....    0
 Multiplicity           Mult            ....    1
 Number of Electrons    NEL             ....   30
 Basis Dimension        Dim             ....   44

ORBITAL ENERGIES
----------------

  NO   OCC          E(Eh)            E(eV)
   0   2.0000     -19.144552      -520.9497
   1   2.0000     -10.267697      -279.3983
   2   2.0000     -10.217972      -278.0452
   3   2.0000     -10.203074      -277.6398
   4   2.0000      -1.075801       -29.2740
   5   2.0000      -0.801262       -21.8035
   6   2.0000      -0.655557       -17.8386
   7   2.0000      -0.552874       -15.0445
   8   2.0000      -0.521195       -14.1824
   9   2.0000      -0.447422       -12.1750
  10   2.0000      -0.427785       -11.6406
  11   2.0000      -0.399188       -10.8625
  12   2.0000      -0.383838       -10.4448
  13   2.0000      -0.289022        -7.8647
  14   2.0000      -0.249700        -6.7947
  15   0.0000      -0.061490        -1.6732
  16   0.0000       0.051271         1.3951
  17   0.0000       0.105343         2.8665
  18   0.0000       0.120237         3.2718
  19   0.0000       0.171807         4.6751

MULLIKEN ATOMIC CHARGES
-----------------------
   0 C :    0.161566
   1 O :   -0.358224
   2 C :   -0.096035
   3 C :   -0.266816
   4 H :    0.094872
   5 H :    0.150067
   6 H :    0.173227
   7 H :    0.141343
Sum of atomic charges:    0.0000000

LOEWDIN ATOMIC CHARGES
----------------------
   0 C :    0.110718
   1 O :   -0.231033
   2 C :   -0.180888
   3 C :   -0.156136
   4 H :    0.069993
   5 H :    0.130183
   6 H :    0.136491
   7 H :    0.120673

  Mayer bond orders larger than 0.100000
B(  0-C ,  1-O ) :   1.8983 B(  0-C ,  2-C ) :   0.9582 B(  0-C ,  4-H ) :   0.9042
B(  2-C ,  3-C ) :   1.8573 B(  2-C ,  5-H ) :   0.9337 B(  3-C ,  6-H ) :   0.9307
B(  3-C ,  7-H ) :   0.9399

-----------------------------------------------------------------------------
         ABSORPTION SPECTRUM VIA TRANSITION ELECTRIC DIPOLE MOMENTS
-----------------------------------------------------------------------------
State   Energy    Wavelength  fosc         T2        TX        TY        TZ
        (cm-1)      (nm)                 (au**2)    (au)      (au)      (au)
-----------------------------------------------------------------------------
   1   28287.9    353.5   0.000264220   0.00307   0.05399  -0.00086  -0.01261

FINAL SINGLE POINT ENERGY      -191.595094547978

DIPOLE MOMENT
-------------
                                X             Y             Z
Electronic contribution:     -1.95209      -1.42203       0.13976
Nuclear contribution   :      2.43517       2.43137      -0.26081
                        -----------------------------------------
Total Dipole Moment    :      0.48308       1.00934      -0.12105
                        -----------------------------------------
Magnitude (a.u.)       :      1.12552
Magnitude (Debye)      :      2.86084

Rotational constants in cm-1:     0.800136     0.201630     0.162618
Rotational constants in MHz : 23987.475937  6044.721430  4875.178062

                             ****ORCA TERMINATED NORMALLY****
TOTAL RUN TIME: 0 days 0 hours 1 minutes 1 seconds 220 msec
