                         Program Version 5.0.3 -  RELEASE  -
|  1> ! B3LYP 6-31G
|  2> !TightSCF
|  3> %scf
|  4>  ConvForced true
|  5>  convergence tight
|  6>  MaxIter 500
|  7> end
|  8>
|  9> %tddft
| 10>  nroots 1
| 11> end
| 12>
| 13> # 	25222
| 14> * xyz 0 1
| 15> 		C   -0.585966  -0.459599   0.056183
| 16> 		O   -0.639415  -1.681207  -0.037125
| 17> 		C    0.679856   0.433827   0.005308
| 18> 		C    1.861996  -0.049833  -0.032250
| 19> 		H   -1.490646   0.040163   0.102589
| 20> 		H    0.458300   1.492478  -0.333239
| 21> 		H    2.123440  -1.261552   0.296862
| 22> 		H    2.751395   0.560188   0.162520
| 23> *
| 24>
| 25>                          ****END OF INPUT****

CARTESIAN COORDINATES (ANGSTROEM)
---------------------------------
  C     -0.585966   -0.459599    0.056183
  O     -0.639415   -1.681207   -0.037125
  C      0.679856    0.433827    0.005308
  C      1.861996   -0.049833   -0.032250
  H     -1.490646    0.040163    0.102589
  H      0.458300    1.492478   -0.333239
  H      2.123440   -1.261552    0.296862
  H      2.751395    0.560188    0.162520

 Total Charge           Charge          ....    0
 Multiplicity           Mult            ....    1
 Number of Electrons    NEL             ....   30
 Basis Dimension        Dim             ....   44

ORBITAL ENERGIES
----------------

  NO   OCC          E(Eh)            E(eV)
   0   2.0000     -19.153217      -521.1855
   1   2.0000     -10.277956      -279.6774
   2   2.0000     -10.215586      -277.9802
   3   2.0000     -10.209137      -277.8047
   4   2.0000      -1.062133       -28.9021
   5   2.0000      -0.803780       -21.8720
   6   2.0000      -0.655284       -17.8312
   7   2.0000      -0.549001       -14.9391
   8   2.0000      -0.500710       -13.6250
   9   2.0000      -0.449903       -12.2425
  10   2.0000      -0.427135       -11.6229
  11   2.0000      -0.398167       -10.8347
  12   2.0000      -0.355574        -9.6757
  13   2.0000      -0.298517        -8.1231
  14   2.0000      -0.255631        -6.9561
  15   0.0000      -0.065791        -1.7903
  16   0.0000       0.045389         1.2351
  17   0.0000       0.076546         2.0829
  18   0.0000       0.114175         3.1069
  19   0.0000       0.157200         4.2776

MULLIKEN ATOMIC CHARGES
-----------------------
   0 C :    0.196501
   1 O :   -0.368531
   2 C :   -0.116168
   3 C :   -0.255001
   4 H :    0.110188
   5 H :    0.142994
   6 H :    0.142815
   7 H :    0.147204
Sum of atomic charges:   -0.0000000

LOEWDIN ATOMIC CHARGES
----------------------
   0 C :    0.123497
   1 O :   -0.233382
   2 C :   -0.179281
   3 C :   -0.162479
   4 H :    0.079622
   5 H :    0.124943
   6 H :    0.122556
   7 H :    0.124524

  Mayer bond orders larger than 0.100000
B(  0-C ,  1-O ) :   1.8954 B(  0-C ,  2-C ) :   0.9339 B(  0-C ,  4-H ) :   0.8960
B(  2-C ,  3-C ) :   1.8870 B(  2-C ,  5-H ) :   0.9250 B(  3-C ,  6-H ) :   0.9320
B(  3-C ,  7-H ) :   0.9300

-----------------------------------------------------------------------------
         ABSORPTION SPECTRUM VIA TRANSITION ELECTRIC DIPOLE MOMENTS
-----------------------------------------------------------------------------
State   Energy    Wavelength  fosc         T2        TX        TY        TZ
        (cm-1)      (nm)                 (au**2)    (au)      (au)      (au)
-----------------------------------------------------------------------------
   1   28202.7    354.6   0.000276638   0.00323   0.05506   0.00689  -0.01224

FINAL SINGLE POINT ENERGY      -191.574232274981

DIPOLE MOMENT
-------------
                                X             Y             Z
Electronic contribution:     -2.09132      -1.50743      -0.11570
Nuclear contribution   :      2.44398       2.56725       0.21486
                        -----------------------------------------
Total Dipole Moment    :      0.35266       1.05983       0.09916
                        -----------------------------------------
Magnitude (a.u.)       :      1.12136
Magnitude (Debye)      :      2.85026

Rotational constants in cm-1:     0.790637     0.192017     0.155380
Rotational constants in MHz : 23702.689914  5756.531415  4658.164483

                             ****ORCA TERMINATED NORMALLY****
TOTAL RUN TIME: 0 days 0 hours 1 minutes 1 seconds 667 msec
