                         Program Version 5.0.3 -  RELEASE  -
|  1> ! B3LYP 6-31G
|  2> !TightSCF
|  3> %scf
|  4>  ConvForced true
|  5>  convergence tight
|  6>  MaxIter 500
|  7> end
|  8>
|  9> %tddft
| 10>  nroots 1
| 11> end
| 12>
| 13> # 	23587
| 14> * xyz 0 1
| 15> 		C   -0.560108  -0.481600   0.014351
| 16> 		O   -0.653669  -1.642870  -0.002092
| 17> 		C    0.634659   0.364707  -0.051063
| 18> 		C    1.921972  -0.046429   0.027546
| 19> 		H   -1.403546   0.317080   0.047596
| 20> 		H    0.373695   1.428039   0.173154
| 21> 		H    1.975692  -1.090953  -0.045867
| 22> 		H    2.585303   0.620875  -0.026654
| 23> *
| 24>
| 25>                          ****END OF INPUT****

CARTESIAN COORDINATES (ANGSTROEM)
---------------------------------
  C     -0.560108   -0.481600    0.014351
  O     -0.653669   -1.642870   -0.002092
  C      0.634659    0.364707   -0.051063
  C      1.921972   -0.046429    0.027546
  H     -1.403546    0.317080    0.047596
  H      0.373695    1.428039    0.173154
  H      1.975692   -1.090953   -0.045867
  H      2.585303    0.620875   -0.026654

 Total Charge           Charge          ....    0
 Multiplicity           Mult            ....    1
 Number of Electrons    NEL             ....   30
 Basis Dimension        Dim             ....   44

ORBITAL ENERGIES
----------------

  NO   OCC          E(Eh)            E(eV)
   0   2.0000     -19.158311      -521.3241
   1   2.0000     -10.279670      -279.7240
   2   2.0000     -10.201207      -277.5890
   3   2.0000     -10.196165      -277.4518
   4   2.0000      -1.103108       -30.0171
   5   2.0000      -0.807079       -21.9617
   6   2.0000      -0.679367       -18.4865
   7   2.0000      -0.534624       -14.5479
   8   2.0000      -0.526605       -14.3297
   9   2.0000      -0.453597       -12.3430
  10   2.0000      -0.445602       -12.1255
  11   2.0000      -0.422799       -11.5049
  12   2.0000      -0.384391       -10.4598
  13   2.0000      -0.290627        -7.9084
  14   2.0000      -0.256286        -6.9739
  15   0.0000      -0.070722        -1.9244
  16   0.0000       0.068283         1.8581
  17   0.0000       0.097737         2.6596
  18   0.0000       0.134559         3.6615
  19   0.0000       0.172229         4.6866

MULLIKEN ATOMIC CHARGES
-----------------------
   0 C :    0.180581
   1 O :   -0.336016
   2 C :   -0.141798
   3 C :   -0.202315
   4 H :    0.074261
   5 H :    0.124241
   6 H :    0.171368
   7 H :    0.129679
Sum of atomic charges:    0.0000000

LOEWDIN ATOMIC CHARGES
----------------------
   0 C :    0.100272
   1 O :   -0.190133
   2 C :   -0.181232
   3 C :   -0.157772
   4 H :    0.051174
   5 H :    0.113096
   6 H :    0.141387
   7 H :    0.123208

  Mayer bond orders larger than 0.100000
B(  0-C ,  1-O ) :   1.9109 B(  0-C ,  2-C ) :   0.9766 B(  0-C ,  4-H ) :   0.8571
B(  2-C ,  3-C ) :   1.8870 B(  2-C ,  5-H ) :   0.9346 B(  3-C ,  6-H ) :   0.9404
B(  3-C ,  7-H ) :   0.9470

-----------------------------------------------------------------------------
         ABSORPTION SPECTRUM VIA TRANSITION ELECTRIC DIPOLE MOMENTS
-----------------------------------------------------------------------------
State   Energy    Wavelength  fosc         T2        TX        TY        TZ
        (cm-1)      (nm)                 (au**2)    (au)      (au)      (au)
-----------------------------------------------------------------------------
   1   28388.2    352.3   0.000548261   0.00636  -0.07392  -0.01250  -0.02716

FINAL SINGLE POINT ENERGY      -191.568833909414

DIPOLE MOMENT
-------------
                                X             Y             Z
Electronic contribution:     -1.57931      -2.06810      -0.10065
Nuclear contribution   :      2.15529       2.98367       0.13864
                        -----------------------------------------
Total Dipole Moment    :      0.57598       0.91557       0.03799
                        -----------------------------------------
Magnitude (a.u.)       :      1.08234
Magnitude (Debye)      :      2.75109

Rotational constants in cm-1:     0.853655     0.195600     0.159372
Rotational constants in MHz : 25591.927693  5863.933520  4777.852931

                             ****ORCA TERMINATED NORMALLY****
TOTAL RUN TIME: 0 days 0 hours 1 minutes 1 seconds 561 msec
