                         Program Version 5.0.3 -  RELEASE  -
|  1> ! B3LYP 6-31G
|  2> !TightSCF
|  3> %scf
|  4>  ConvForced true
|  5>  convergence tight
|  6>  MaxIter 500
|  7> end
|  8>
|  9> %tddft
| 10>  nroots 1
| 11> end
| 12>
| 13> # 	26828
| 14> * xyz 0 1
| 15> 		C   -0.603536  -0.436041  -0.020281
| 16> 		O   -0.574100  -1.631729   0.012136
| 17> 		C    0.643112   0.433396   0.028811
| 18> 		C    1.860690  -0.135918  -0.014255
| 19> 		H   -1.595131   0.001572  -0.154869
| 20> 		H    0.452002   1.424952   0.104303
| 21> 		H    1.807430  -1.150836   0.041999
| 22> 		H    2.746619   0.495463  -0.115614
| 23> *
| 24>
| 25>                          ****END OF INPUT****

CARTESIAN COORDINATES (ANGSTROEM)
---------------------------------
  C     -0.603536   -0.436041   -0.020281
  O     -0.574100   -1.631729    0.012136
  C      0.643112    0.433396    0.028811
  C      1.860690   -0.135918   -0.014255
  H     -1.595131    0.001572   -0.154869
  H      0.452002    1.424952    0.104303
  H      1.807430   -1.150836    0.041999
  H      2.746619    0.495463   -0.115614

 Total Charge           Charge          ....    0
 Multiplicity           Mult            ....    1
 Number of Electrons    NEL             ....   30
 Basis Dimension        Dim             ....   44

ORBITAL ENERGIES
----------------

  NO   OCC          E(Eh)            E(eV)
   0   2.0000     -19.146452      -521.0014
   1   2.0000     -10.275487      -279.6102
   2   2.0000     -10.199761      -277.5496
   3   2.0000     -10.195965      -277.4463
   4   2.0000      -1.079008       -29.3613
   5   2.0000      -0.797147       -21.6915
   6   2.0000      -0.654904       -17.8208
   7   2.0000      -0.553277       -15.0554
   8   2.0000      -0.524094       -14.2613
   9   2.0000      -0.443162       -12.0590
  10   2.0000      -0.432671       -11.7736
  11   2.0000      -0.407436       -11.0869
  12   2.0000      -0.392578       -10.6826
  13   2.0000      -0.283817        -7.7231
  14   2.0000      -0.253581        -6.9003
  15   0.0000      -0.063045        -1.7155
  16   0.0000       0.058082         1.5805
  17   0.0000       0.113752         3.0953
  18   0.0000       0.139153         3.7865
  19   0.0000       0.170475         4.6389

MULLIKEN ATOMIC CHARGES
-----------------------
   0 C :    0.167187
   1 O :   -0.362072
   2 C :   -0.109985
   3 C :   -0.247933
   4 H :    0.111065
   5 H :    0.121343
   6 H :    0.165796
   7 H :    0.154598
Sum of atomic charges:    0.0000000

LOEWDIN ATOMIC CHARGES
----------------------
   0 C :    0.108599
   1 O :   -0.233274
   2 C :   -0.177578
   3 C :   -0.161043
   4 H :    0.079319
   5 H :    0.114534
   6 H :    0.135787
   7 H :    0.133656

  Mayer bond orders larger than 0.100000
B(  0-C ,  1-O ) :   1.8720 B(  0-C ,  2-C ) :   0.9659 B(  0-C ,  4-H ) :   0.8872
B(  2-C ,  3-C ) :   1.8939 B(  2-C ,  5-H ) :   0.9363 B(  3-C ,  6-H ) :   0.9305
B(  3-C ,  7-H ) :   0.9438

-----------------------------------------------------------------------------
         ABSORPTION SPECTRUM VIA TRANSITION ELECTRIC DIPOLE MOMENTS
-----------------------------------------------------------------------------
State   Energy    Wavelength  fosc         T2        TX        TY        TZ
        (cm-1)      (nm)                 (au**2)    (au)      (au)      (au)
-----------------------------------------------------------------------------
   1   28673.9    348.7   0.000048977   0.00056   0.01221   0.00202   0.02023

FINAL SINGLE POINT ENERGY      -191.594685404962

DIPOLE MOMENT
-------------
                                X             Y             Z
Electronic contribution:     -1.70162      -1.51483       0.08538
Nuclear contribution   :      2.04396       2.51327      -0.11634
                        -----------------------------------------
Total Dipole Moment    :      0.34234       0.99844      -0.03096
                        -----------------------------------------
Magnitude (a.u.)       :      1.05595
Magnitude (Debye)      :      2.68401

Rotational constants in cm-1:     0.778964     0.207715     0.164211
Rotational constants in MHz : 23352.758538  6227.126468  4922.912087

                             ****ORCA TERMINATED NORMALLY****
TOTAL RUN TIME: 0 days 0 hours 0 minutes 43 seconds 981 msec
