                         Program Version 5.0.3 -  RELEASE  -
|  1> ! B3LYP 6-31G
|  2> !TightSCF
|  3> %scf
|  4>  ConvForced true
|  5>  convergence tight
|  6>  MaxIter 500
|  7> end
|  8>
|  9> %tddft
| 10>  nroots 1
| 11> end
| 12>
| 13> # 	20062
| 14> * xyz 0 1
| 15> 		C   -0.613733  -0.437942  -0.010912
| 16> 		O   -0.543317  -1.620063   0.016538
| 17> 		C    0.619357   0.427761  -0.020359
| 18> 		C    1.850351  -0.132831   0.001028
| 19> 		H   -1.534824   0.061831  -0.039533
| 20> 		H    0.539686   1.514287   0.166458
| 21> 		H    1.636640  -1.249270  -0.148034
| 22> 		H    2.802384   0.304597   0.136421
| 23> *
| 24>
| 25>                          ****END OF INPUT****

CARTESIAN COORDINATES (ANGSTROEM)
---------------------------------
  C     -0.613733   -0.437942   -0.010912
  O     -0.543317   -1.620063    0.016538
  C      0.619357    0.427761   -0.020359
  C      1.850351   -0.132831    0.001028
  H     -1.534824    0.061831   -0.039533
  H      0.539686    1.514287    0.166458
  H      1.636640   -1.249270   -0.148034
  H      2.802384    0.304597    0.136421

 Total Charge           Charge          ....    0
 Multiplicity           Mult            ....    1
 Number of Electrons    NEL             ....   30
 Basis Dimension        Dim             ....   44

ORBITAL ENERGIES
----------------

  NO   OCC          E(Eh)            E(eV)
   0   2.0000     -19.152413      -521.1636
   1   2.0000     -10.276750      -279.6446
   2   2.0000     -10.204031      -277.6658
   3   2.0000     -10.200210      -277.5618
   4   2.0000      -1.091778       -29.7088
   5   2.0000      -0.789598       -21.4861
   6   2.0000      -0.656076       -17.8527
   7   2.0000      -0.553451       -15.0602
   8   2.0000      -0.514238       -13.9931
   9   2.0000      -0.445706       -12.1283
  10   2.0000      -0.441230       -12.0065
  11   2.0000      -0.414280       -11.2731
  12   2.0000      -0.359554        -9.7840
  13   2.0000      -0.281693        -7.6653
  14   2.0000      -0.262231        -7.1357
  15   0.0000      -0.064020        -1.7421
  16   0.0000       0.060881         1.6567
  17   0.0000       0.115726         3.1491
  18   0.0000       0.132134         3.5956
  19   0.0000       0.161436         4.3929

MULLIKEN ATOMIC CHARGES
-----------------------
   0 C :    0.186558
   1 O :   -0.355488
   2 C :   -0.138326
   3 C :   -0.265798
   4 H :    0.116363
   5 H :    0.127025
   6 H :    0.172784
   7 H :    0.156884
Sum of atomic charges:   -0.0000000

LOEWDIN ATOMIC CHARGES
----------------------
   0 C :    0.113051
   1 O :   -0.216517
   2 C :   -0.190387
   3 C :   -0.173938
   4 H :    0.081145
   5 H :    0.113180
   6 H :    0.141243
   7 H :    0.132224

  Mayer bond orders larger than 0.100000
B(  0-C ,  1-O ) :   1.8680 B(  0-C ,  2-C ) :   0.9640 B(  0-C ,  4-H ) :   0.8871
B(  2-C ,  3-C ) :   1.8716 B(  2-C ,  5-H ) :   0.9344 B(  3-C ,  6-H ) :   0.9225
B(  3-C ,  7-H ) :   0.9397

-----------------------------------------------------------------------------
         ABSORPTION SPECTRUM VIA TRANSITION ELECTRIC DIPOLE MOMENTS
-----------------------------------------------------------------------------
State   Energy    Wavelength  fosc         T2        TX        TY        TZ
        (cm-1)      (nm)                 (au**2)    (au)      (au)      (au)
-----------------------------------------------------------------------------
   1   30258.0    330.5   0.000280328   0.00305  -0.05069  -0.01261  -0.01794

FINAL SINGLE POINT ENERGY      -191.585422041179

DIPOLE MOMENT
-------------
                                X             Y             Z
Electronic contribution:     -1.79996      -1.44078      -0.07414
Nuclear contribution   :      2.07577       2.38289       0.10725
                        -----------------------------------------
Total Dipole Moment    :      0.27581       0.94211       0.03311
                        -----------------------------------------
Magnitude (a.u.)       :      0.98221
Magnitude (Debye)      :      2.49657

Rotational constants in cm-1:     0.760757     0.214066     0.167327
Rotational constants in MHz : 22806.929678  6417.532540  5016.327988

                             ****ORCA TERMINATED NORMALLY****
TOTAL RUN TIME: 0 days 0 hours 0 minutes 58 seconds 642 msec
