                         Program Version 5.0.3 -  RELEASE  -
|  1> ! B3LYP 6-31G
|  2> !TightSCF
|  3> %scf
|  4>  ConvForced true
|  5>  convergence tight
|  6>  MaxIter 500
|  7> end
|  8>
|  9> %tddft
| 10>  nroots 1
| 11> end
| 12>
| 13> # 	23203
| 14> * xyz 0 1
| 15> 		C   -0.569907  -0.487899  -0.066862
| 16> 		O   -0.592882  -1.627210   0.042546
| 17> 		C    0.642498   0.468241   0.025060
| 18> 		C    1.832632  -0.134829  -0.003805
| 19> 		H   -1.593285   0.102480  -0.060677
| 20> 		H    0.651004   1.460685   0.149509
| 21> 		H    1.939562  -1.240978  -0.327341
| 22> 		H    2.711124   0.577104   0.126399
| 23> *
| 24>
| 25>                          ****END OF INPUT****

CARTESIAN COORDINATES (ANGSTROEM)
---------------------------------
  C     -0.569907   -0.487899   -0.066862
  O     -0.592882   -1.627210    0.042546
  C      0.642498    0.468241    0.025060
  C      1.832632   -0.134829   -0.003805
  H     -1.593285    0.102480   -0.060677
  H      0.651004    1.460685    0.149509
  H      1.939562   -1.240978   -0.327341
  H      2.711124    0.577104    0.126399

 Total Charge           Charge          ....    0
 Multiplicity           Mult            ....    1
 Number of Electrons    NEL             ....   30
 Basis Dimension        Dim             ....   44

ORBITAL ENERGIES
----------------

  NO   OCC          E(Eh)            E(eV)
   0   2.0000     -19.158303      -521.3239
   1   2.0000     -10.287519      -279.9376
   2   2.0000     -10.212291      -277.8906
   3   2.0000     -10.194816      -277.4150
   4   2.0000      -1.119127       -30.4530
   5   2.0000      -0.797991       -21.7144
   6   2.0000      -0.631315       -17.1789
   7   2.0000      -0.547494       -14.8981
   8   2.0000      -0.518525       -14.1098
   9   2.0000      -0.448981       -12.2174
  10   2.0000      -0.428141       -11.6503
  11   2.0000      -0.419674       -11.4199
  12   2.0000      -0.390901       -10.6370
  13   2.0000      -0.288794        -7.8585
  14   2.0000      -0.252861        -6.8807
  15   0.0000      -0.054262        -1.4765
  16   0.0000       0.056495         1.5373
  17   0.0000       0.098816         2.6889
  18   0.0000       0.113871         3.0986
  19   0.0000       0.153172         4.1680

MULLIKEN ATOMIC CHARGES
-----------------------
   0 C :    0.178135
   1 O :   -0.309316
   2 C :   -0.118918
   3 C :   -0.260556
   4 H :    0.066893
   5 H :    0.137030
   6 H :    0.171373
   7 H :    0.135359
Sum of atomic charges:    0.0000000

LOEWDIN ATOMIC CHARGES
----------------------
   0 C :    0.120539
   1 O :   -0.183068
   2 C :   -0.201180
   3 C :   -0.165149
   4 H :    0.042658
   5 H :    0.125982
   6 H :    0.138507
   7 H :    0.121712

  Mayer bond orders larger than 0.100000
B(  0-C ,  1-O ) :   1.9305 B(  0-C ,  2-C ) :   0.9187 B(  0-C ,  4-H ) :   0.8623
B(  2-C ,  3-C ) :   1.8627 B(  2-C ,  5-H ) :   0.9432 B(  3-C ,  6-H ) :   0.9342
B(  3-C ,  7-H ) :   0.9448

-----------------------------------------------------------------------------
         ABSORPTION SPECTRUM VIA TRANSITION ELECTRIC DIPOLE MOMENTS
-----------------------------------------------------------------------------
State   Energy    Wavelength  fosc         T2        TX        TY        TZ
        (cm-1)      (nm)                 (au**2)    (au)      (au)      (au)
-----------------------------------------------------------------------------
   1   31018.6    322.4   0.000137271   0.00146  -0.02912   0.00830   0.02324

FINAL SINGLE POINT ENERGY      -191.562112124030

DIPOLE MOMENT
-------------
                                X             Y             Z
Electronic contribution:     -1.86758      -1.73128       0.01887
Nuclear contribution   :      2.31882       2.63287      -0.10589
                        -----------------------------------------
Total Dipole Moment    :      0.45124       0.90158      -0.08702
                        -----------------------------------------
Magnitude (a.u.)       :      1.01195
Magnitude (Debye)      :      2.57217

Rotational constants in cm-1:     0.785571     0.205757     0.163812
Rotational constants in MHz : 23550.825670  6168.445583  4910.959912

                             ****ORCA TERMINATED NORMALLY****
TOTAL RUN TIME: 0 days 0 hours 1 minutes 0 seconds 715 msec
