                         Program Version 5.0.3 -  RELEASE  -
|  1> ! B3LYP 6-31G
|  2> !TightSCF
|  3> %scf
|  4>  ConvForced true
|  5>  convergence tight
|  6>  MaxIter 500
|  7> end
|  8>
|  9> %tddft
| 10>  nroots 1
| 11> end
| 12>
| 13> # 	5186
| 14> * xyz 0 1
| 15> 		C   -1.187578  -0.291123   0.076673
| 16> 		O   -1.288410  -1.411115   0.541371
| 17> 		C    0.005332   0.497074   0.122346
| 18> 		C    1.200322   0.010414  -0.155746
| 19> 		H   -2.063965   0.117622  -0.433004
| 20> 		H   -0.153869   1.698188   0.086409
| 21> 		H    1.269726  -1.155491  -0.147985
| 22> 		H    2.244701   0.503342  -0.119655
| 23> *
| 24>
| 25>                          ****END OF INPUT****

CARTESIAN COORDINATES (ANGSTROEM)
---------------------------------
  C     -1.187578   -0.291123    0.076673
  O     -1.288410   -1.411115    0.541371
  C      0.005332    0.497074    0.122346
  C      1.200322    0.010414   -0.155746
  H     -2.063965    0.117622   -0.433004
  H     -0.153869    1.698188    0.086409
  H      1.269726   -1.155491   -0.147985
  H      2.244701    0.503342   -0.119655

 Total Charge           Charge          ....    0
 Multiplicity           Mult            ....    1
 Number of Electrons    NEL             ....   30
 Basis Dimension        Dim             ....   44

ORBITAL ENERGIES
----------------

  NO   OCC          E(Eh)            E(eV)
   0   2.0000     -19.147987      -521.0432
   1   2.0000     -10.276212      -279.6299
   2   2.0000     -10.221612      -278.1442
   3   2.0000     -10.215035      -277.9652
   4   2.0000      -1.068060       -29.0634
   5   2.0000      -0.806562       -21.9477
   6   2.0000      -0.662140       -18.0177
   7   2.0000      -0.543197       -14.7812
   8   2.0000      -0.505553       -13.7568
   9   2.0000      -0.456429       -12.4201
  10   2.0000      -0.432177       -11.7601
  11   2.0000      -0.391540       -10.6543
  12   2.0000      -0.359875        -9.7927
  13   2.0000      -0.293719        -7.9925
  14   2.0000      -0.256915        -6.9910
  15   0.0000      -0.063721        -1.7339
  16   0.0000       0.038743         1.0543
  17   0.0000       0.081597         2.2204
  18   0.0000       0.110271         3.0006
  19   0.0000       0.148191         4.0325

MULLIKEN ATOMIC CHARGES
-----------------------
   0 C :    0.158163
   1 O :   -0.368757
   2 C :   -0.082323
   3 C :   -0.280074
   4 H :    0.118839
   5 H :    0.136166
   6 H :    0.159426
   7 H :    0.158562
Sum of atomic charges:    0.0000000

LOEWDIN ATOMIC CHARGES
----------------------
   0 C :    0.107758
   1 O :   -0.235391
   2 C :   -0.165067
   3 C :   -0.169968
   4 H :    0.083577
   5 H :    0.120034
   6 H :    0.127402
   7 H :    0.131655

  Mayer bond orders larger than 0.100000
B(  0-C ,  1-O ) :   1.8709 B(  0-C ,  2-C ) :   0.9756 B(  0-C ,  4-H ) :   0.8858
B(  2-C ,  3-C ) :   1.8702 B(  2-C ,  5-H ) :   0.9187 B(  3-C ,  6-H ) :   0.9336
B(  3-C ,  7-H ) :   0.9336

-----------------------------------------------------------------------------
         ABSORPTION SPECTRUM VIA TRANSITION ELECTRIC DIPOLE MOMENTS
-----------------------------------------------------------------------------
State   Energy    Wavelength  fosc         T2        TX        TY        TZ
        (cm-1)      (nm)                 (au**2)    (au)      (au)      (au)
-----------------------------------------------------------------------------
   1   28908.4    345.9   0.000197231   0.00225   0.03699   0.01993  -0.02192

FINAL SINGLE POINT ENERGY      -191.585184368556

DIPOLE MOMENT
-------------
                                X             Y             Z
Electronic contribution:     -1.99871      -1.41061       0.73877
Nuclear contribution   :      2.48017       2.33452      -1.14362
                        -----------------------------------------
Total Dipole Moment    :      0.48146       0.92392      -0.40485
                        -----------------------------------------
Magnitude (a.u.)       :      1.11774
Magnitude (Debye)      :      2.84106

Rotational constants in cm-1:     0.807770     0.200439     0.165093
Rotational constants in MHz : 24216.338825  6009.005953  4949.356560

                             ****ORCA TERMINATED NORMALLY****
TOTAL RUN TIME: 0 days 0 hours 1 minutes 1 seconds 701 msec
