                         Program Version 5.0.3 -  RELEASE  -
|  1> ! B3LYP 6-31G
|  2> !TightSCF
|  3> %scf
|  4>  ConvForced true
|  5>  convergence tight
|  6>  MaxIter 500
|  7> end
|  8>
|  9> %tddft
| 10>  nroots 1
| 11> end
| 12>
| 13> # 	10278
| 14> * xyz 0 1
| 15> 		C   -1.190151  -0.389519   0.034317
| 16> 		O   -2.117519  -0.512435   0.752081
| 17> 		C   -0.007661   0.394505   0.280712
| 18> 		C    1.127811   0.133280  -0.288056
| 19> 		H   -1.040031  -0.886215  -0.995421
| 20> 		H   -0.097136   1.247864   1.320016
| 21> 		H    1.201373  -0.625729  -1.202395
| 22> 		H    2.104843   0.657982   0.052237
| 23> *
| 24>
| 25>                          ****END OF INPUT****

CARTESIAN COORDINATES (ANGSTROEM)
---------------------------------
  C     -1.190151   -0.389519    0.034317
  O     -2.117519   -0.512435    0.752081
  C     -0.007661    0.394505    0.280712
  C      1.127811    0.133280   -0.288056
  H     -1.040031   -0.886215   -0.995421
  H     -0.097136    1.247864    1.320016
  H      1.201373   -0.625729   -1.202395
  H      2.104843    0.657982    0.052237

 Total Charge           Charge          ....    0
 Multiplicity           Mult            ....    1
 Number of Electrons    NEL             ....   30
 Basis Dimension        Dim             ....   44

ORBITAL ENERGIES
----------------

  NO   OCC          E(Eh)            E(eV)
   0   2.0000     -19.156017      -521.2617
   1   2.0000     -10.282361      -279.7973
   2   2.0000     -10.228425      -278.3296
   3   2.0000     -10.220502      -278.1140
   4   2.0000      -1.094021       -29.7698
   5   2.0000      -0.819002       -22.2862
   6   2.0000      -0.650900       -17.7119
   7   2.0000      -0.548915       -14.9367
   8   2.0000      -0.480745       -13.0817
   9   2.0000      -0.465225       -12.6594
  10   2.0000      -0.429131       -11.6772
  11   2.0000      -0.414365       -11.2754
  12   2.0000      -0.360850        -9.8192
  13   2.0000      -0.302748        -8.2382
  14   2.0000      -0.259232        -7.0541
  15   0.0000      -0.059652        -1.6232
  16   0.0000       0.041809         1.1377
  17   0.0000       0.063781         1.7356
  18   0.0000       0.083712         2.2779
  19   0.0000       0.143865         3.9148

MULLIKEN ATOMIC CHARGES
-----------------------
   0 C :    0.173269
   1 O :   -0.348645
   2 C :   -0.038120
   3 C :   -0.312995
   4 H :    0.088167
   5 H :    0.127629
   6 H :    0.151015
   7 H :    0.159680
Sum of atomic charges:    0.0000000

LOEWDIN ATOMIC CHARGES
----------------------
   0 C :    0.100955
   1 O :   -0.195678
   2 C :   -0.156710
   3 C :   -0.181622
   4 H :    0.058975
   5 H :    0.112896
   6 H :    0.125780
   7 H :    0.135404

  Mayer bond orders larger than 0.100000
B(  0-C ,  1-O ) :   1.8732 B(  0-C ,  2-C ) :   0.9722 B(  0-C ,  4-H ) :   0.8587
B(  2-C ,  3-C ) :   1.8178 B(  2-C ,  5-H ) :   0.9144 B(  3-C ,  6-H ) :   0.9303
B(  3-C ,  7-H ) :   0.9354

-----------------------------------------------------------------------------
         ABSORPTION SPECTRUM VIA TRANSITION ELECTRIC DIPOLE MOMENTS
-----------------------------------------------------------------------------
State   Energy    Wavelength  fosc         T2        TX        TY        TZ
        (cm-1)      (nm)                 (au**2)    (au)      (au)      (au)
-----------------------------------------------------------------------------
   1   30837.1    324.3   0.000226644   0.00242   0.03512   0.00309   0.03430

FINAL SINGLE POINT ENERGY      -191.556350055620

DIPOLE MOMENT
-------------
                                X             Y             Z
Electronic contribution:     -3.07984      -0.56932       1.02079
Nuclear contribution   :      4.18982       0.77462      -1.53784
                        -----------------------------------------
Total Dipole Moment    :      1.10998       0.20530      -0.51705
                        -----------------------------------------
Magnitude (a.u.)       :      1.24159
Magnitude (Debye)      :      3.15588

Rotational constants in cm-1:     1.432938     0.160989     0.146814
Rotational constants in MHz : 42958.405313  4826.314941  4401.359135

                             ****ORCA TERMINATED NORMALLY****
TOTAL RUN TIME: 0 days 0 hours 1 minutes 0 seconds 928 msec
