                         Program Version 5.0.3 -  RELEASE  -
|  1> ! B3LYP 6-31G
|  2> !TightSCF
|  3> %scf
|  4>  ConvForced true
|  5>  convergence tight
|  6>  MaxIter 500
|  7> end
|  8>
|  9> %tddft
| 10>  nroots 1
| 11> end
| 12>
| 13> # 	29909
| 14> * xyz 0 1
| 15> 		C   -0.577519  -0.455668  -0.050513
| 16> 		O   -0.631646  -1.656483   0.039368
| 17> 		C    0.628390   0.412721  -0.023796
| 18> 		C    1.905727  -0.082797  -0.021321
| 19> 		H   -1.465627   0.117959  -0.007601
| 20> 		H    0.543739   1.327557   0.411844
| 21> 		H    1.935749  -1.039479  -0.093812
| 22> 		H    2.650363   0.603694   0.236825
| 23> *
| 24>
| 25>                          ****END OF INPUT****

CARTESIAN COORDINATES (ANGSTROEM)
---------------------------------
  C     -0.577519   -0.455668   -0.050513
  O     -0.631646   -1.656483    0.039368
  C      0.628390    0.412721   -0.023796
  C      1.905727   -0.082797   -0.021321
  H     -1.465627    0.117959   -0.007601
  H      0.543739    1.327557    0.411844
  H      1.935749   -1.039479   -0.093812
  H      2.650363    0.603694    0.236825

 Total Charge           Charge          ....    0
 Multiplicity           Mult            ....    1
 Number of Electrons    NEL             ....   30
 Basis Dimension        Dim             ....   44

ORBITAL ENERGIES
----------------

  NO   OCC          E(Eh)            E(eV)
   0   2.0000     -19.150402      -521.1089
   1   2.0000     -10.273272      -279.5500
   2   2.0000     -10.195640      -277.4375
   3   2.0000     -10.194930      -277.4182
   4   2.0000      -1.073019       -29.1983
   5   2.0000      -0.803878       -21.8746
   6   2.0000      -0.671692       -18.2777
   7   2.0000      -0.560914       -15.2633
   8   2.0000      -0.529378       -14.4051
   9   2.0000      -0.446611       -12.1529
  10   2.0000      -0.430824       -11.7233
  11   2.0000      -0.410991       -11.1836
  12   2.0000      -0.391593       -10.6558
  13   2.0000      -0.283058        -7.7024
  14   2.0000      -0.255484        -6.9521
  15   0.0000      -0.071298        -1.9401
  16   0.0000       0.047767         1.2998
  17   0.0000       0.112409         3.0588
  18   0.0000       0.149582         4.0703
  19   0.0000       0.187911         5.1133

MULLIKEN ATOMIC CHARGES
-----------------------
   0 C :    0.178329
   1 O :   -0.364239
   2 C :   -0.131780
   3 C :   -0.211710
   4 H :    0.100962
   5 H :    0.124855
   6 H :    0.153350
   7 H :    0.150232
Sum of atomic charges:   -0.0000000

LOEWDIN ATOMIC CHARGES
----------------------
   0 C :    0.113999
   1 O :   -0.227562
   2 C :   -0.183399
   3 C :   -0.153248
   4 H :    0.071532
   5 H :    0.119114
   6 H :    0.127634
   7 H :    0.131931

  Mayer bond orders larger than 0.100000
B(  0-C ,  1-O ) :   1.8828 B(  0-C ,  2-C ) :   0.9802 B(  0-C ,  4-H ) :   0.8882
B(  2-C ,  3-C ) :   1.8804 B(  2-C ,  5-H ) :   0.9425 B(  3-C ,  6-H ) :   0.9490
B(  3-C ,  7-H ) :   0.9450

-----------------------------------------------------------------------------
         ABSORPTION SPECTRUM VIA TRANSITION ELECTRIC DIPOLE MOMENTS
-----------------------------------------------------------------------------
State   Energy    Wavelength  fosc         T2        TX        TY        TZ
        (cm-1)      (nm)                 (au**2)    (au)      (au)      (au)
-----------------------------------------------------------------------------
   1   27663.3    361.5   0.000307343   0.00366  -0.05208  -0.02880  -0.01075

FINAL SINGLE POINT ENERGY      -191.579461466125

DIPOLE MOMENT
-------------
                                X             Y             Z
Electronic contribution:     -1.81558      -1.72793      -0.39007
Nuclear contribution   :      2.28000       2.73684       0.51180
                        -----------------------------------------
Total Dipole Moment    :      0.46442       1.00891       0.12172
                        -----------------------------------------
Magnitude (a.u.)       :      1.11732
Magnitude (Debye)      :      2.83999

Rotational constants in cm-1:     0.823878     0.196512     0.159580
Rotational constants in MHz : 24699.242365  5891.275111  4784.084914

                             ****ORCA TERMINATED NORMALLY****
TOTAL RUN TIME: 0 days 0 hours 1 minutes 1 seconds 15 msec
