                         Program Version 5.0.3 -  RELEASE  -
|  1> ! B3LYP 6-31G
|  2> !TightSCF
|  3> %scf
|  4>  ConvForced true
|  5>  convergence tight
|  6>  MaxIter 500
|  7> end
|  8>
|  9> %tddft
| 10>  nroots 1
| 11> end
| 12>
| 13> # 	13022
| 14> * xyz 0 1
| 15> 		C   -1.231275  -0.312042  -0.042350
| 16> 		O   -1.226958  -1.572805   0.051660
| 17> 		C    0.025706   0.510943   0.031949
| 18> 		C    1.222628  -0.051197  -0.062706
| 19> 		H   -2.177192   0.159821  -0.100964
| 20> 		H   -0.247701   1.711978   0.111992
| 21> 		H    1.554412  -1.081322  -0.127499
| 22> 		H    2.118507   0.608897   0.187584
| 23> *
| 24>
| 25>                          ****END OF INPUT****

CARTESIAN COORDINATES (ANGSTROEM)
---------------------------------
  C     -1.231275   -0.312042   -0.042350
  O     -1.226958   -1.572805    0.051660
  C      0.025706    0.510943    0.031949
  C      1.222628   -0.051197   -0.062706
  H     -2.177192    0.159821   -0.100964
  H     -0.247701    1.711978    0.111992
  H      1.554412   -1.081322   -0.127499
  H      2.118507    0.608897    0.187584

 Total Charge           Charge          ....    0
 Multiplicity           Mult            ....    1
 Number of Electrons    NEL             ....   30
 Basis Dimension        Dim             ....   44

ORBITAL ENERGIES
----------------

  NO   OCC          E(Eh)            E(eV)
   0   2.0000     -19.145959      -520.9880
   1   2.0000     -10.275271      -279.6043
   2   2.0000     -10.223709      -278.2013
   3   2.0000     -10.214781      -277.9583
   4   2.0000      -1.035745       -28.1840
   5   2.0000      -0.794908       -21.6306
   6   2.0000      -0.661265       -17.9939
   7   2.0000      -0.554101       -15.0779
   8   2.0000      -0.496537       -13.5115
   9   2.0000      -0.453138       -12.3305
  10   2.0000      -0.415288       -11.3006
  11   2.0000      -0.385715       -10.4958
  12   2.0000      -0.366677        -9.9778
  13   2.0000      -0.288021        -7.8374
  14   2.0000      -0.253325        -6.8933
  15   0.0000      -0.073692        -2.0053
  16   0.0000       0.052147         1.4190
  17   0.0000       0.067539         1.8378
  18   0.0000       0.122438         3.3317
  19   0.0000       0.153184         4.1683

MULLIKEN ATOMIC CHARGES
-----------------------
   0 C :    0.186262
   1 O :   -0.398727
   2 C :   -0.101030
   3 C :   -0.269530
   4 H :    0.120656
   5 H :    0.138285
   6 H :    0.186082
   7 H :    0.138001
Sum of atomic charges:   -0.0000000

LOEWDIN ATOMIC CHARGES
----------------------
   0 C :    0.112731
   1 O :   -0.264606
   2 C :   -0.159443
   3 C :   -0.163580
   4 H :    0.088910
   5 H :    0.121383
   6 H :    0.143272
   7 H :    0.121334

  Mayer bond orders larger than 0.100000
B(  0-C ,  1-O ) :   1.8519 B(  0-C ,  2-C ) :   0.9802 B(  0-C ,  4-H ) :   0.8945
B(  1-O ,  3-C ) :   0.1013 B(  2-C ,  3-C ) :   1.8787 B(  2-C ,  5-H ) :   0.9211
B(  3-C ,  6-H ) :   0.9250 B(  3-C ,  7-H ) :   0.9391

-----------------------------------------------------------------------------
         ABSORPTION SPECTRUM VIA TRANSITION ELECTRIC DIPOLE MOMENTS
-----------------------------------------------------------------------------
State   Energy    Wavelength  fosc         T2        TX        TY        TZ
        (cm-1)      (nm)                 (au**2)    (au)      (au)      (au)
-----------------------------------------------------------------------------
   1   25819.6    387.3   0.000041792   0.00053   0.01338   0.01193  -0.01455

FINAL SINGLE POINT ENERGY      -191.602818697812

DIPOLE MOMENT
-------------
                                X             Y             Z
Electronic contribution:     -1.94661      -1.72997      -0.09302
Nuclear contribution   :      2.37356       2.76656       0.06613
                        -----------------------------------------
Total Dipole Moment    :      0.42694       1.03659      -0.02689
                        -----------------------------------------
Magnitude (a.u.)       :      1.12139
Magnitude (Debye)      :      2.85036

Rotational constants in cm-1:     0.717248     0.203398     0.159017
Rotational constants in MHz : 21502.543054  6097.725410  4767.215520

                             ****ORCA TERMINATED NORMALLY****
TOTAL RUN TIME: 0 days 0 hours 1 minutes 0 seconds 598 msec
