                         Program Version 5.0.3 -  RELEASE  -
|  1> ! B3LYP 6-31G
|  2> !TightSCF
|  3> %scf
|  4>  ConvForced true
|  5>  convergence tight
|  6>  MaxIter 500
|  7> end
|  8>
|  9> %tddft
| 10>  nroots 1
| 11> end
| 12>
| 13> # 	14
| 14> * xyz 0 1
| 15> 		C   -1.190907  -0.418127  -0.032339
| 16> 		O   -1.715959  -1.106730  -0.911725
| 17> 		C    0.061259   0.399063  -0.223832
| 18> 		C    1.223018   0.152031   0.220185
| 19> 		H   -1.715665  -0.297517   1.027614
| 20> 		H   -0.090864   1.342302  -0.792773
| 21> 		H    1.335024  -0.823454   0.783060
| 22> 		H    2.087452   0.764349  -0.115434
| 23> *
| 24>
| 25>                          ****END OF INPUT****

CARTESIAN COORDINATES (ANGSTROEM)
---------------------------------
  C     -1.190907   -0.418127   -0.032339
  O     -1.715959   -1.106730   -0.911725
  C      0.061259    0.399063   -0.223832
  C      1.223018    0.152031    0.220185
  H     -1.715665   -0.297517    1.027614
  H     -0.090864    1.342302   -0.792773
  H      1.335024   -0.823454    0.783060
  H      2.087452    0.764349   -0.115434

 Total Charge           Charge          ....    0
 Multiplicity           Mult            ....    1
 Number of Electrons    NEL             ....   30
 Basis Dimension        Dim             ....   44

ORBITAL ENERGIES
----------------

  NO   OCC          E(Eh)            E(eV)
   0   2.0000     -19.163442      -521.4638
   1   2.0000     -10.296920      -280.1934
   2   2.0000     -10.202404      -277.6215
   3   2.0000     -10.199779      -277.5501
   4   2.0000      -1.065671       -28.9984
   5   2.0000      -0.813214       -22.1287
   6   2.0000      -0.648360       -17.6428
   7   2.0000      -0.550536       -14.9808
   8   2.0000      -0.497100       -13.5268
   9   2.0000      -0.464957       -12.6521
  10   2.0000      -0.437416       -11.9027
  11   2.0000      -0.393114       -10.6972
  12   2.0000      -0.368375       -10.0240
  13   2.0000      -0.298954        -8.1349
  14   2.0000      -0.259769        -7.0687
  15   0.0000      -0.048484        -1.3193
  16   0.0000       0.009500         0.2585
  17   0.0000       0.108320         2.9475
  18   0.0000       0.110768         3.0142
  19   0.0000       0.120369         3.2754

MULLIKEN ATOMIC CHARGES
-----------------------
   0 C :    0.179426
   1 O :   -0.355192
   2 C :   -0.117921
   3 C :   -0.267738
   4 H :    0.111928
   5 H :    0.162558
   6 H :    0.138251
   7 H :    0.148689
Sum of atomic charges:    0.0000000

LOEWDIN ATOMIC CHARGES
----------------------
   0 C :    0.132698
   1 O :   -0.221306
   2 C :   -0.170924
   3 C :   -0.201521
   4 H :    0.077514
   5 H :    0.132704
   6 H :    0.120437
   7 H :    0.130398

  Mayer bond orders larger than 0.100000
B(  0-C ,  1-O ) :   1.9069 B(  0-C ,  2-C ) :   0.9111 B(  0-C ,  4-H ) :   0.8622
B(  2-C ,  3-C ) :   1.9506 B(  2-C ,  5-H ) :   0.9220 B(  3-C ,  6-H ) :   0.9542
B(  3-C ,  7-H ) :   0.9436

-----------------------------------------------------------------------------
         ABSORPTION SPECTRUM VIA TRANSITION ELECTRIC DIPOLE MOMENTS
-----------------------------------------------------------------------------
State   Energy    Wavelength  fosc         T2        TX        TY        TZ
        (cm-1)      (nm)                 (au**2)    (au)      (au)      (au)
-----------------------------------------------------------------------------
   1   31019.0    322.4   0.000378053   0.00401  -0.06295  -0.00581  -0.00405

FINAL SINGLE POINT ENERGY      -191.574947814238

DIPOLE MOMENT
-------------
                                X             Y             Z
Electronic contribution:     -2.51600      -1.26638      -1.21026
Nuclear contribution   :      3.15072       1.92416       1.78133
                        -----------------------------------------
Total Dipole Moment    :      0.63473       0.65779       0.57107
                        -----------------------------------------
Magnitude (a.u.)       :      1.07781
Magnitude (Debye)      :      2.73958

Rotational constants in cm-1:     1.132786     0.154910     0.153683
Rotational constants in MHz : 33960.079836  4644.094605  4607.285882

                             ****ORCA TERMINATED NORMALLY****
TOTAL RUN TIME: 0 days 0 hours 0 minutes 51 seconds 999 msec
