                         Program Version 5.0.3 -  RELEASE  -
|  1> ! B3LYP 6-31G
|  2> !TightSCF
|  3> %scf
|  4>  ConvForced true
|  5>  convergence tight
|  6>  MaxIter 500
|  7> end
|  8>
|  9> %tddft
| 10>  nroots 1
| 11> end
| 12>
| 13> # 	24840
| 14> * xyz 0 1
| 15> 		C   -0.602569  -0.473232  -0.021067
| 16> 		O   -0.593063  -1.646852  -0.010448
| 17> 		C    0.609078   0.437049   0.021699
| 18> 		C    1.869472  -0.095876   0.001565
| 19> 		H   -1.617521   0.129482   0.244732
| 20> 		H    0.693553   1.538233  -0.177118
| 21> 		H    2.085395  -1.188241   0.169176
| 22> 		H    2.883360   0.482878  -0.117078
| 23> *
| 24>
| 25>                          ****END OF INPUT****

CARTESIAN COORDINATES (ANGSTROEM)
---------------------------------
  C     -0.602569   -0.473232   -0.021067
  O     -0.593063   -1.646852   -0.010448
  C      0.609078    0.437049    0.021699
  C      1.869472   -0.095876    0.001565
  H     -1.617521    0.129482    0.244732
  H      0.693553    1.538233   -0.177118
  H      2.085395   -1.188241    0.169176
  H      2.883360    0.482878   -0.117078

 Total Charge           Charge          ....    0
 Multiplicity           Mult            ....    1
 Number of Electrons    NEL             ....   30
 Basis Dimension        Dim             ....   44

ORBITAL ENERGIES
----------------

  NO   OCC          E(Eh)            E(eV)
   0   2.0000     -19.159815      -521.3651
   1   2.0000     -10.294454      -280.1263
   2   2.0000     -10.221890      -278.1518
   3   2.0000     -10.213114      -277.9130
   4   2.0000      -1.101378       -29.9700
   5   2.0000      -0.787625       -21.4324
   6   2.0000      -0.640782       -17.4366
   7   2.0000      -0.541394       -14.7321
   8   2.0000      -0.506849       -13.7921
   9   2.0000      -0.448329       -12.1997
  10   2.0000      -0.428433       -11.6582
  11   2.0000      -0.411973       -11.2104
  12   2.0000      -0.370558       -10.0834
  13   2.0000      -0.285808        -7.7772
  14   2.0000      -0.259086        -7.0501
  15   0.0000      -0.068751        -1.8708
  16   0.0000       0.051577         1.4035
  17   0.0000       0.087789         2.3889
  18   0.0000       0.112854         3.0709
  19   0.0000       0.132473         3.6048

MULLIKEN ATOMIC CHARGES
-----------------------
   0 C :    0.184700
   1 O :   -0.331322
   2 C :   -0.140462
   3 C :   -0.254974
   4 H :    0.080088
   5 H :    0.150314
   6 H :    0.165494
   7 H :    0.146162
Sum of atomic charges:   -0.0000000

LOEWDIN ATOMIC CHARGES
----------------------
   0 C :    0.121834
   1 O :   -0.196744
   2 C :   -0.198400
   3 C :   -0.162867
   4 H :    0.054447
   5 H :    0.134120
   6 H :    0.125725
   7 H :    0.121885

  Mayer bond orders larger than 0.100000
B(  0-C ,  1-O ) :   1.8962 B(  0-C ,  2-C ) :   0.9340 B(  0-C ,  4-H ) :   0.8615
B(  2-C ,  3-C ) :   1.8446 B(  2-C ,  5-H ) :   0.9353 B(  3-C ,  6-H ) :   0.9347
B(  3-C ,  7-H ) :   0.9392

-----------------------------------------------------------------------------
         ABSORPTION SPECTRUM VIA TRANSITION ELECTRIC DIPOLE MOMENTS
-----------------------------------------------------------------------------
State   Energy    Wavelength  fosc         T2        TX        TY        TZ
        (cm-1)      (nm)                 (au**2)    (au)      (au)      (au)
-----------------------------------------------------------------------------
   1   29230.4    342.1   0.000758588   0.00854  -0.08589  -0.00244   0.03406

FINAL SINGLE POINT ENERGY      -191.578542488462

DIPOLE MOMENT
-------------
                                X             Y             Z
Electronic contribution:     -2.11540      -1.79462      -0.14331
Nuclear contribution   :      2.63541       2.69048       0.11351
                        -----------------------------------------
Total Dipole Moment    :      0.52001       0.89587      -0.02980
                        -----------------------------------------
Magnitude (a.u.)       :      1.03628
Magnitude (Debye)      :      2.63402

Rotational constants in cm-1:     0.759635     0.198887     0.158055
Rotational constants in MHz : 22773.292685  5962.494601  4738.371531

                             ****ORCA TERMINATED NORMALLY****
TOTAL RUN TIME: 0 days 0 hours 1 minutes 1 seconds 770 msec
