                         Program Version 5.0.3 -  RELEASE  -
|  1> ! B3LYP 6-31G
|  2> !TightSCF
|  3> %scf
|  4>  ConvForced true
|  5>  convergence tight
|  6>  MaxIter 500
|  7> end
|  8>
|  9> %tddft
| 10>  nroots 1
| 11> end
| 12>
| 13> # 	2471
| 14> * xyz 0 1
| 15> 		C   -1.188384  -0.466098   0.061200
| 16> 		O   -1.645202  -1.289950  -0.647327
| 17> 		C    0.064619   0.408134  -0.272895
| 18> 		C    1.237220   0.035193   0.146657
| 19> 		H   -1.664365  -0.056302   0.882550
| 20> 		H   -0.261180   1.417713  -0.629087
| 21> 		H    1.541630  -0.871727   0.526565
| 22> 		H    1.954374   0.787741   0.028318
| 23> *
| 24>
| 25>                          ****END OF INPUT****

CARTESIAN COORDINATES (ANGSTROEM)
---------------------------------
  C     -1.188384   -0.466098    0.061200
  O     -1.645202   -1.289950   -0.647327
  C      0.064619    0.408134   -0.272895
  C      1.237220    0.035193    0.146657
  H     -1.664365   -0.056302    0.882550
  H     -0.261180    1.417713   -0.629087
  H      1.541630   -0.871727    0.526565
  H      1.954374    0.787741    0.028318

 Total Charge           Charge          ....    0
 Multiplicity           Mult            ....    1
 Number of Electrons    NEL             ....   30
 Basis Dimension        Dim             ....   44

ORBITAL ENERGIES
----------------

  NO   OCC          E(Eh)            E(eV)
   0   2.0000     -19.156966      -521.2875
   1   2.0000     -10.276383      -279.6346
   2   2.0000     -10.200609      -277.5727
   3   2.0000     -10.182677      -277.0847
   4   2.0000      -1.093650       -29.7597
   5   2.0000      -0.799192       -21.7471
   6   2.0000      -0.656641       -17.8681
   7   2.0000      -0.565837       -15.3972
   8   2.0000      -0.504306       -13.7229
   9   2.0000      -0.462953       -12.5976
  10   2.0000      -0.447818       -12.1857
  11   2.0000      -0.394838       -10.7441
  12   2.0000      -0.391214       -10.6455
  13   2.0000      -0.288507        -7.8507
  14   2.0000      -0.248009        -6.7487
  15   0.0000      -0.027674        -0.7531
  16   0.0000       0.005888         0.1602
  17   0.0000       0.111120         3.0237
  18   0.0000       0.143841         3.9141
  19   0.0000       0.153106         4.1662

MULLIKEN ATOMIC CHARGES
-----------------------
   0 C :    0.165270
   1 O :   -0.323586
   2 C :   -0.134020
   3 C :   -0.263769
   4 H :    0.115984
   5 H :    0.154643
   6 H :    0.152759
   7 H :    0.132718
Sum of atomic charges:    0.0000000

LOEWDIN ATOMIC CHARGES
----------------------
   0 C :    0.116616
   1 O :   -0.192807
   2 C :   -0.156504
   3 C :   -0.216548
   4 H :    0.074778
   5 H :    0.129843
   6 H :    0.125577
   7 H :    0.119046

  Mayer bond orders larger than 0.100000
B(  0-C ,  1-O ) :   1.9480 B(  0-C ,  2-C ) :   0.9000 B(  0-C ,  4-H ) :   0.8694
B(  2-C ,  3-C ) :   1.9753 B(  2-C ,  5-H ) :   0.9215 B(  3-C ,  6-H ) :   0.9447
B(  3-C ,  7-H ) :   0.9491

-----------------------------------------------------------------------------
         ABSORPTION SPECTRUM VIA TRANSITION ELECTRIC DIPOLE MOMENTS
-----------------------------------------------------------------------------
State   Energy    Wavelength  fosc         T2        TX        TY        TZ
        (cm-1)      (nm)                 (au**2)    (au)      (au)      (au)
-----------------------------------------------------------------------------
   1   32868.8    304.2   0.000798346   0.00800  -0.07663  -0.03218   0.03298

FINAL SINGLE POINT ENERGY      -191.555406273742

DIPOLE MOMENT
-------------
                                X             Y             Z
Electronic contribution:     -2.54383      -1.73476      -0.86898
Nuclear contribution   :      3.01989       2.49809       1.44250
                        -----------------------------------------
Total Dipole Moment    :      0.47606       0.76333       0.57352
                        -----------------------------------------
Magnitude (a.u.)       :      1.06688
Magnitude (Debye)      :      2.71179

Rotational constants in cm-1:     1.036536     0.165237     0.155557
Rotational constants in MHz : 31074.582227  4953.678507  4663.489608

                             ****ORCA TERMINATED NORMALLY****
TOTAL RUN TIME: 0 days 0 hours 1 minutes 1 seconds 136 msec
