                         Program Version 5.0.3 -  RELEASE  -
|  1> ! B3LYP 6-31G
|  2> !TightSCF
|  3> %scf
|  4>  ConvForced true
|  5>  convergence tight
|  6>  MaxIter 500
|  7> end
|  8>
|  9> %tddft
| 10>  nroots 1
| 11> end
| 12>
| 13> # 	264
| 14> * xyz 0 1
| 15> 		C   -1.186180  -0.341245   0.029623
| 16> 		O   -1.359612  -1.479646  -0.369416
| 17> 		C    0.006206   0.408312  -0.157714
| 18> 		C    1.260990   0.018233   0.067688
| 19> 		H   -2.029253   0.158970   0.538027
| 20> 		H   -0.247473   1.525167  -0.296831
| 21> 		H    1.532642  -0.979261   0.374050
| 22> 		H    2.075940   0.660709  -0.158684
| 23> *
| 24>
| 25>                          ****END OF INPUT****

CARTESIAN COORDINATES (ANGSTROEM)
---------------------------------
  C     -1.186180   -0.341245    0.029623
  O     -1.359612   -1.479646   -0.369416
  C      0.006206    0.408312   -0.157714
  C      1.260990    0.018233    0.067688
  H     -2.029253    0.158970    0.538027
  H     -0.247473    1.525167   -0.296831
  H      1.532642   -0.979261    0.374050
  H      2.075940    0.660709   -0.158684

 Total Charge           Charge          ....    0
 Multiplicity           Mult            ....    1
 Number of Electrons    NEL             ....   30
 Basis Dimension        Dim             ....   44

ORBITAL ENERGIES
----------------

  NO   OCC          E(Eh)            E(eV)
   0   2.0000     -19.145108      -520.9649
   1   2.0000     -10.272525      -279.5296
   2   2.0000     -10.209479      -277.8140
   3   2.0000     -10.208192      -277.7790
   4   2.0000      -1.063207       -28.9313
   5   2.0000      -0.805667       -21.9233
   6   2.0000      -0.675268       -18.3750
   7   2.0000      -0.548453       -14.9242
   8   2.0000      -0.511395       -13.9158
   9   2.0000      -0.460357       -12.5270
  10   2.0000      -0.435625       -11.8540
  11   2.0000      -0.394263       -10.7285
  12   2.0000      -0.375498       -10.2178
  13   2.0000      -0.289175        -7.8689
  14   2.0000      -0.252706        -6.8765
  15   0.0000      -0.062774        -1.7082
  16   0.0000       0.039300         1.0694
  17   0.0000       0.093076         2.5327
  18   0.0000       0.131586         3.5806
  19   0.0000       0.153770         4.1843

MULLIKEN ATOMIC CHARGES
-----------------------
   0 C :    0.154697
   1 O :   -0.365420
   2 C :   -0.095961
   3 C :   -0.257904
   4 H :    0.110177
   5 H :    0.140792
   6 H :    0.165050
   7 H :    0.148569
Sum of atomic charges:   -0.0000000

LOEWDIN ATOMIC CHARGES
----------------------
   0 C :    0.103735
   1 O :   -0.235072
   2 C :   -0.161190
   3 C :   -0.168180
   4 H :    0.078470
   5 H :    0.124834
   6 H :    0.131285
   7 H :    0.126119

  Mayer bond orders larger than 0.100000
B(  0-C ,  1-O ) :   1.8893 B(  0-C ,  2-C ) :   0.9861 B(  0-C ,  4-H ) :   0.8818
B(  2-C ,  3-C ) :   1.9009 B(  2-C ,  5-H ) :   0.9201 B(  3-C ,  6-H ) :   0.9402
B(  3-C ,  7-H ) :   0.9410

-----------------------------------------------------------------------------
         ABSORPTION SPECTRUM VIA TRANSITION ELECTRIC DIPOLE MOMENTS
-----------------------------------------------------------------------------
State   Energy    Wavelength  fosc         T2        TX        TY        TZ
        (cm-1)      (nm)                 (au**2)    (au)      (au)      (au)
-----------------------------------------------------------------------------
   1   28270.9    353.7   0.000266408   0.00310  -0.05148  -0.01740  -0.01223

FINAL SINGLE POINT ENERGY      -191.601134220680

DIPOLE MOMENT
-------------
                                X             Y             Z
Electronic contribution:     -1.96207      -1.69988      -0.49866
Nuclear contribution   :      2.53556       2.68874       0.83787
                        -----------------------------------------
Total Dipole Moment    :      0.57350       0.98886       0.33921
                        -----------------------------------------
Magnitude (a.u.)       :      1.19240
Magnitude (Debye)      :      3.03084

Rotational constants in cm-1:     0.860856     0.190662     0.161123
Rotational constants in MHz : 25807.799023  5715.906655  4830.339899

                             ****ORCA TERMINATED NORMALLY****
TOTAL RUN TIME: 0 days 0 hours 0 minutes 52 seconds 632 msec
