                         Program Version 5.0.3 -  RELEASE  -
|  1> ! B3LYP 6-31G
|  2> !TightSCF
|  3> %scf
|  4>  ConvForced true
|  5>  convergence tight
|  6>  MaxIter 500
|  7> end
|  8>
|  9> %tddft
| 10>  nroots 1
| 11> end
| 12>
| 13> # 	24535
| 14> * xyz 0 1
| 15> 		C   -0.587380  -0.436009  -0.016189
| 16> 		O   -0.555042  -1.610072   0.005312
| 17> 		C    0.634847   0.431874   0.058710
| 18> 		C    1.819388  -0.157318   0.013408
| 19> 		H   -1.578991   0.055595  -0.159585
| 20> 		H    0.484738   1.521877  -0.209641
| 21> 		H    1.929720  -1.395878  -0.203625
| 22> 		H    2.711503   0.551949  -0.191702
| 23> *
| 24>
| 25>                          ****END OF INPUT****

CARTESIAN COORDINATES (ANGSTROEM)
---------------------------------
  C     -0.587380   -0.436009   -0.016189
  O     -0.555042   -1.610072    0.005312
  C      0.634847    0.431874    0.058710
  C      1.819388   -0.157318    0.013408
  H     -1.578991    0.055595   -0.159585
  H      0.484738    1.521877   -0.209641
  H      1.929720   -1.395878   -0.203625
  H      2.711503    0.551949   -0.191702

 Total Charge           Charge          ....    0
 Multiplicity           Mult            ....    1
 Number of Electrons    NEL             ....   30
 Basis Dimension        Dim             ....   44

ORBITAL ENERGIES
----------------

  NO   OCC          E(Eh)            E(eV)
   0   2.0000     -19.148122      -521.0469
   1   2.0000     -10.276550      -279.6391
   2   2.0000     -10.224329      -278.2181
   3   2.0000     -10.205007      -277.6924
   4   2.0000      -1.094089       -29.7717
   5   2.0000      -0.795861       -21.6565
   6   2.0000      -0.642372       -17.4798
   7   2.0000      -0.532682       -14.4950
   8   2.0000      -0.507182       -13.8011
   9   2.0000      -0.442026       -12.0281
  10   2.0000      -0.423051       -11.5118
  11   2.0000      -0.415997       -11.3198
  12   2.0000      -0.366817        -9.9816
  13   2.0000      -0.288581        -7.8527
  14   2.0000      -0.254416        -6.9230
  15   0.0000      -0.062534        -1.7016
  16   0.0000       0.054131         1.4730
  17   0.0000       0.087003         2.3675
  18   0.0000       0.092850         2.5266
  19   0.0000       0.153055         4.1648

MULLIKEN ATOMIC CHARGES
-----------------------
   0 C :    0.170392
   1 O :   -0.341797
   2 C :   -0.118789
   3 C :   -0.261302
   4 H :    0.097965
   5 H :    0.142890
   6 H :    0.172507
   7 H :    0.138134
Sum of atomic charges:    0.0000000

LOEWDIN ATOMIC CHARGES
----------------------
   0 C :    0.106582
   1 O :   -0.215041
   2 C :   -0.195723
   3 C :   -0.159227
   4 H :    0.069008
   5 H :    0.124894
   6 H :    0.145552
   7 H :    0.123954

  Mayer bond orders larger than 0.100000
B(  0-C ,  1-O ) :   1.8996 B(  0-C ,  2-C ) :   0.9529 B(  0-C ,  4-H ) :   0.8782
B(  2-C ,  3-C ) :   1.8431 B(  2-C ,  5-H ) :   0.9292 B(  3-C ,  6-H ) :   0.9221
B(  3-C ,  7-H ) :   0.9385

-----------------------------------------------------------------------------
         ABSORPTION SPECTRUM VIA TRANSITION ELECTRIC DIPOLE MOMENTS
-----------------------------------------------------------------------------
State   Energy    Wavelength  fosc         T2        TX        TY        TZ
        (cm-1)      (nm)                 (au**2)    (au)      (au)      (au)
-----------------------------------------------------------------------------
   1   29307.5    341.2   0.000242295   0.00272   0.03035   0.03071  -0.02929

FINAL SINGLE POINT ENERGY      -191.573517360387

DIPOLE MOMENT
-------------
                                X             Y             Z
Electronic contribution:     -1.82202      -1.55053       0.49906
Nuclear contribution   :      2.16915       2.47605      -0.71627
                        -----------------------------------------
Total Dipole Moment    :      0.34713       0.92552      -0.21721
                        -----------------------------------------
Magnitude (a.u.)       :      1.01206
Magnitude (Debye)      :      2.57245

Rotational constants in cm-1:     0.745724     0.215883     0.168071
Rotational constants in MHz : 22356.230873  6472.024178  5038.635868

                             ****ORCA TERMINATED NORMALLY****
TOTAL RUN TIME: 0 days 0 hours 1 minutes 0 seconds 867 msec
