                         Program Version 5.0.3 -  RELEASE  -
|  1> ! B3LYP 6-31G
|  2> !TightSCF
|  3> %scf
|  4>  ConvForced true
|  5>  convergence tight
|  6>  MaxIter 500
|  7> end
|  8>
|  9> %tddft
| 10>  nroots 1
| 11> end
| 12>
| 13> # 	7140
| 14> * xyz 0 1
| 15> 		C   -1.216876  -0.324441   0.002232
| 16> 		O   -1.197512  -1.656005   0.080362
| 17> 		C    0.045272   0.584909   0.090027
| 18> 		C    1.163471  -0.080412  -0.026590
| 19> 		H   -2.189152   0.174803  -0.340339
| 20> 		H   -0.098253   1.757648   0.130327
| 21> 		H    1.372288  -0.956992   0.001703
| 22> 		H    2.179155   0.532231   0.106809
| 23> *
| 24>
| 25>                          ****END OF INPUT****

CARTESIAN COORDINATES (ANGSTROEM)
---------------------------------
  C     -1.216876   -0.324441    0.002232
  O     -1.197512   -1.656005    0.080362
  C      0.045272    0.584909    0.090027
  C      1.163471   -0.080412   -0.026590
  H     -2.189152    0.174803   -0.340339
  H     -0.098253    1.757648    0.130327
  H      1.372288   -0.956992    0.001703
  H      2.179155    0.532231    0.106809

 Total Charge           Charge          ....    0
 Multiplicity           Mult            ....    1
 Number of Electrons    NEL             ....   30
 Basis Dimension        Dim             ....   44

ORBITAL ENERGIES
----------------

  NO   OCC          E(Eh)            E(eV)
   0   2.0000     -19.154429      -521.2185
   1   2.0000     -10.294049      -280.1153
   2   2.0000     -10.227150      -278.2949
   3   2.0000     -10.201700      -277.6024
   4   2.0000      -1.002061       -27.2675
   5   2.0000      -0.807089       -21.9620
   6   2.0000      -0.659217       -17.9382
   7   2.0000      -0.570404       -15.5215
   8   2.0000      -0.494240       -13.4489
   9   2.0000      -0.461536       -12.5590
  10   2.0000      -0.409351       -11.1390
  11   2.0000      -0.371756       -10.1160
  12   2.0000      -0.364951        -9.9308
  13   2.0000      -0.292617        -7.9625
  14   2.0000      -0.256536        -6.9807
  15   0.0000      -0.079638        -2.1671
  16   0.0000       0.034279         0.9328
  17   0.0000       0.071938         1.9575
  18   0.0000       0.120070         3.2673
  19   0.0000       0.135249         3.6803

MULLIKEN ATOMIC CHARGES
-----------------------
   0 C :    0.187632
   1 O :   -0.426121
   2 C :   -0.114953
   3 C :   -0.208444
   4 H :    0.127155
   5 H :    0.157160
   6 H :    0.155517
   7 H :    0.122054
Sum of atomic charges:    0.0000000

LOEWDIN ATOMIC CHARGES
----------------------
   0 C :    0.131144
   1 O :   -0.293366
   2 C :   -0.150979
   3 C :   -0.147125
   4 H :    0.092967
   5 H :    0.134711
   6 H :    0.118921
   7 H :    0.113728

  Mayer bond orders larger than 0.100000
B(  0-C ,  1-O ) :   1.8107 B(  0-C ,  2-C ) :   0.9594 B(  0-C ,  4-H ) :   0.8812
B(  2-C ,  3-C ) :   1.8893 B(  2-C ,  5-H ) :   0.9216 B(  3-C ,  6-H ) :   0.9370
B(  3-C ,  7-H ) :   0.9478

-----------------------------------------------------------------------------
         ABSORPTION SPECTRUM VIA TRANSITION ELECTRIC DIPOLE MOMENTS
-----------------------------------------------------------------------------
State   Energy    Wavelength  fosc         T2        TX        TY        TZ
        (cm-1)      (nm)                 (au**2)    (au)      (au)      (au)
-----------------------------------------------------------------------------
   1   24808.5    403.1   0.000070127   0.00093  -0.01572   0.00080  -0.02613

FINAL SINGLE POINT ENERGY      -191.561016446322

DIPOLE MOMENT
-------------
                                X             Y             Z
Electronic contribution:     -1.95364      -1.77369       0.15492
Nuclear contribution   :      2.37660       2.92295      -0.22656
                        -----------------------------------------
Total Dipole Moment    :      0.42297       1.14927      -0.07164
                        -----------------------------------------
Magnitude (a.u.)       :      1.22672
Magnitude (Debye)      :      3.11808

Rotational constants in cm-1:     0.681207     0.203137     0.157295
Rotational constants in MHz : 20422.071763  6089.898159  4715.592342

                             ****ORCA TERMINATED NORMALLY****
TOTAL RUN TIME: 0 days 0 hours 1 minutes 0 seconds 237 msec
