                         Program Version 5.0.3 -  RELEASE  -
|  1> ! B3LYP 6-31G
|  2> !TightSCF
|  3> %scf
|  4>  ConvForced true
|  5>  convergence tight
|  6>  MaxIter 500
|  7> end
|  8>
|  9> %tddft
| 10>  nroots 1
| 11> end
| 12>
| 13> # 	2451
| 14> * xyz 0 1
| 15> 		C   -1.213983  -0.276359   0.039551
| 16> 		O   -1.684227  -0.851969   0.904330
| 17> 		C    0.010811   0.517276   0.103631
| 18> 		C    1.223813  -0.004045  -0.195244
| 19> 		H   -1.522352  -0.495326  -0.920535
| 20> 		H   -0.072193   1.578205   0.572502
| 21> 		H    1.215295  -1.058983  -0.492938
| 22> 		H    2.134526   0.563744  -0.105810
| 23> *
| 24>
| 25>                          ****END OF INPUT****

CARTESIAN COORDINATES (ANGSTROEM)
---------------------------------
  C     -1.213983   -0.276359    0.039551
  O     -1.684227   -0.851969    0.904330
  C      0.010811    0.517276    0.103631
  C      1.223813   -0.004045   -0.195244
  H     -1.522352   -0.495326   -0.920535
  H     -0.072193    1.578205    0.572502
  H      1.215295   -1.058983   -0.492938
  H      2.134526    0.563744   -0.105810

 Total Charge           Charge          ....    0
 Multiplicity           Mult            ....    1
 Number of Electrons    NEL             ....   30
 Basis Dimension        Dim             ....   44

ORBITAL ENERGIES
----------------

  NO   OCC          E(Eh)            E(eV)
   0   2.0000     -19.153187      -521.1847
   1   2.0000     -10.270996      -279.4880
   2   2.0000     -10.205075      -277.6942
   3   2.0000     -10.201508      -277.5971
   4   2.0000      -1.121004       -30.5041
   5   2.0000      -0.795920       -21.6581
   6   2.0000      -0.654628       -17.8133
   7   2.0000      -0.572120       -15.5682
   8   2.0000      -0.501318       -13.6416
   9   2.0000      -0.470560       -12.8046
  10   2.0000      -0.443092       -12.0571
  11   2.0000      -0.413461       -11.2509
  12   2.0000      -0.380476       -10.3533
  13   2.0000      -0.280361        -7.6290
  14   2.0000      -0.253452        -6.8968
  15   0.0000      -0.030589        -0.8324
  16   0.0000       0.003344         0.0910
  17   0.0000       0.113219         3.0808
  18   0.0000       0.127492         3.4692
  19   0.0000       0.158405         4.3104

MULLIKEN ATOMIC CHARGES
-----------------------
   0 C :    0.132120
   1 O :   -0.285082
   2 C :   -0.124790
   3 C :   -0.273128
   4 H :    0.102690
   5 H :    0.155810
   6 H :    0.141689
   7 H :    0.150691
Sum of atomic charges:    0.0000000

LOEWDIN ATOMIC CHARGES
----------------------
   0 C :    0.102256
   1 O :   -0.172422
   2 C :   -0.168028
   3 C :   -0.207908
   4 H :    0.067582
   5 H :    0.130066
   6 H :    0.120130
   7 H :    0.128324

  Mayer bond orders larger than 0.100000
B(  0-C ,  1-O ) :   1.9768 B(  0-C ,  2-C ) :   0.9067 B(  0-C ,  4-H ) :   0.8882
B(  2-C ,  3-C ) :   1.9444 B(  2-C ,  5-H ) :   0.9235 B(  3-C ,  6-H ) :   0.9500
B(  3-C ,  7-H ) :   0.9455

-----------------------------------------------------------------------------
         ABSORPTION SPECTRUM VIA TRANSITION ELECTRIC DIPOLE MOMENTS
-----------------------------------------------------------------------------
State   Energy    Wavelength  fosc         T2        TX        TY        TZ
        (cm-1)      (nm)                 (au**2)    (au)      (au)      (au)
-----------------------------------------------------------------------------
   1   34453.6    290.2   0.000275021   0.00263   0.00648   0.01235  -0.04933

FINAL SINGLE POINT ENERGY      -191.544343657738

DIPOLE MOMENT
-------------
                                X             Y             Z
Electronic contribution:     -2.73318      -0.74619       1.15099
Nuclear contribution   :      3.29706       1.22369      -1.74099
                        -----------------------------------------
Total Dipole Moment    :      0.56388       0.47750      -0.59000
                        -----------------------------------------
Magnitude (a.u.)       :      0.94555
Magnitude (Debye)      :      2.40340

Rotational constants in cm-1:     1.053312     0.171416     0.163646
Rotational constants in MHz : 31577.499188  5138.930640  4905.973097

                             ****ORCA TERMINATED NORMALLY****
TOTAL RUN TIME: 0 days 0 hours 1 minutes 0 seconds 859 msec
