                         Program Version 5.0.3 -  RELEASE  -
|  1> ! B3LYP 6-31G
|  2> !TightSCF
|  3> %scf
|  4>  ConvForced true
|  5>  convergence tight
|  6>  MaxIter 500
|  7> end
|  8>
|  9> %tddft
| 10>  nroots 1
| 11> end
| 12>
| 13> # 	27876
| 14> * xyz 0 1
| 15> 		C   -0.539244  -0.453943  -0.015785
| 16> 		O   -0.665583  -1.669908  -0.004146
| 17> 		C    0.663594   0.375852   0.080913
| 18> 		C    1.889914  -0.041909  -0.041392
| 19> 		H   -1.393488   0.227435  -0.091087
| 20> 		H    0.412339   1.369057  -0.245031
| 21> 		H    1.941769  -1.087112   0.199232
| 22> 		H    2.570926   0.662747  -0.097306
| 23> *
| 24>
| 25>                          ****END OF INPUT****

CARTESIAN COORDINATES (ANGSTROEM)
---------------------------------
  C     -0.539244   -0.453943   -0.015785
  O     -0.665583   -1.669908   -0.004146
  C      0.663594    0.375852    0.080913
  C      1.889914   -0.041909   -0.041392
  H     -1.393488    0.227435   -0.091087
  H      0.412339    1.369057   -0.245031
  H      1.941769   -1.087112    0.199232
  H      2.570926    0.662747   -0.097306

 Total Charge           Charge          ....    0
 Multiplicity           Mult            ....    1
 Number of Electrons    NEL             ....   30
 Basis Dimension        Dim             ....   44

ORBITAL ENERGIES
----------------

  NO   OCC          E(Eh)            E(eV)
   0   2.0000     -19.152313      -521.1609
   1   2.0000     -10.274845      -279.5927
   2   2.0000     -10.197294      -277.4825
   3   2.0000     -10.194821      -277.4152
   4   2.0000      -1.062244       -28.9051
   5   2.0000      -0.821562       -22.3558
   6   2.0000      -0.680801       -18.5255
   7   2.0000      -0.538385       -14.6502
   8   2.0000      -0.533928       -14.5289
   9   2.0000      -0.442604       -12.0439
  10   2.0000      -0.440935       -11.9985
  11   2.0000      -0.403508       -10.9800
  12   2.0000      -0.380609       -10.3569
  13   2.0000      -0.298360        -8.1188
  14   2.0000      -0.256456        -6.9785
  15   0.0000      -0.072429        -1.9709
  16   0.0000       0.060339         1.6419
  17   0.0000       0.103574         2.8184
  18   0.0000       0.129891         3.5345
  19   0.0000       0.176154         4.7934

MULLIKEN ATOMIC CHARGES
-----------------------
   0 C :    0.181178
   1 O :   -0.378266
   2 C :   -0.122789
   3 C :   -0.212851
   4 H :    0.098154
   5 H :    0.120762
   6 H :    0.173980
   7 H :    0.139833
Sum of atomic charges:    0.0000000

LOEWDIN ATOMIC CHARGES
----------------------
   0 C :    0.111106
   1 O :   -0.234427
   2 C :   -0.182306
   3 C :   -0.150960
   4 H :    0.069903
   5 H :    0.113113
   6 H :    0.144633
   7 H :    0.128939

  Mayer bond orders larger than 0.100000
B(  0-C ,  1-O ) :   1.8756 B(  0-C ,  2-C ) :   0.9938 B(  0-C ,  4-H ) :   0.8816
B(  2-C ,  3-C ) :   1.8817 B(  2-C ,  5-H ) :   0.9356 B(  3-C ,  6-H ) :   0.9392
B(  3-C ,  7-H ) :   0.9451

-----------------------------------------------------------------------------
         ABSORPTION SPECTRUM VIA TRANSITION ELECTRIC DIPOLE MOMENTS
-----------------------------------------------------------------------------
State   Energy    Wavelength  fosc         T2        TX        TY        TZ
        (cm-1)      (nm)                 (au**2)    (au)      (au)      (au)
-----------------------------------------------------------------------------
   1   27357.7    365.5   0.000647918   0.00780   0.08339   0.01422  -0.02532

FINAL SINGLE POINT ENERGY      -191.587025767391

DIPOLE MOMENT
-------------
                                X             Y             Z
Electronic contribution:     -1.59519      -1.84330       0.16459
Nuclear contribution   :      2.15395       2.88779      -0.21861
                        -----------------------------------------
Total Dipole Moment    :      0.55877       1.04450      -0.05402
                        -----------------------------------------
Magnitude (a.u.)       :      1.18580
Magnitude (Debye)      :      3.01406

Rotational constants in cm-1:     0.869685     0.194652     0.159718
Rotational constants in MHz : 26072.489363  5835.530845  4788.231980

                             ****ORCA TERMINATED NORMALLY****
TOTAL RUN TIME: 0 days 0 hours 0 minutes 54 seconds 270 msec
