                         Program Version 5.0.3 -  RELEASE  -
|  1> ! B3LYP 6-31G
|  2> !TightSCF
|  3> %scf
|  4>  ConvForced true
|  5>  convergence tight
|  6>  MaxIter 500
|  7> end
|  8>
|  9> %tddft
| 10>  nroots 1
| 11> end
| 12>
| 13> # 	29264
| 14> * xyz 0 1
| 15> 		C   -0.600911  -0.408195   0.022007
| 16> 		O   -0.561214  -1.627314  -0.020425
| 17> 		C    0.641180   0.416543   0.001375
| 18> 		C    1.829507  -0.154460   0.004527
| 19> 		H   -1.512959   0.113733   0.051139
| 20> 		H    0.469752   1.402348  -0.110903
| 21> 		H    2.024354  -1.117169   0.174988
| 22> 		H    2.589258   0.440003  -0.139495
| 23> *
| 24>
| 25>                          ****END OF INPUT****

CARTESIAN COORDINATES (ANGSTROEM)
---------------------------------
  C     -0.600911   -0.408195    0.022007
  O     -0.561214   -1.627314   -0.020425
  C      0.641180    0.416543    0.001375
  C      1.829507   -0.154460    0.004527
  H     -1.512959    0.113733    0.051139
  H      0.469752    1.402348   -0.110903
  H      2.024354   -1.117169    0.174988
  H      2.589258    0.440003   -0.139495

 Total Charge           Charge          ....    0
 Multiplicity           Mult            ....    1
 Number of Electrons    NEL             ....   30
 Basis Dimension        Dim             ....   44

ORBITAL ENERGIES
----------------

  NO   OCC          E(Eh)            E(eV)
   0   2.0000     -19.143745      -520.9278
   1   2.0000     -10.268296      -279.4146
   2   2.0000     -10.190226      -277.2901
   3   2.0000     -10.183544      -277.1083
   4   2.0000      -1.059771       -28.8378
   5   2.0000      -0.805575       -21.9208
   6   2.0000      -0.673729       -18.3331
   7   2.0000      -0.565696       -15.3934
   8   2.0000      -0.525404       -14.2970
   9   2.0000      -0.456039       -12.4094
  10   2.0000      -0.429582       -11.6895
  11   2.0000      -0.397928       -10.8282
  12   2.0000      -0.394346       -10.7307
  13   2.0000      -0.285673        -7.7736
  14   2.0000      -0.252148        -6.8613
  15   0.0000      -0.065492        -1.7821
  16   0.0000       0.063759         1.7350
  17   0.0000       0.124507         3.3880
  18   0.0000       0.154183         4.1955
  19   0.0000       0.179764         4.8916

MULLIKEN ATOMIC CHARGES
-----------------------
   0 C :    0.185351
   1 O :   -0.380840
   2 C :   -0.111478
   3 C :   -0.215386
   4 H :    0.108736
   5 H :    0.120068
   6 H :    0.164791
   7 H :    0.128758
Sum of atomic charges:    0.0000000

LOEWDIN ATOMIC CHARGES
----------------------
   0 C :    0.114619
   1 O :   -0.241224
   2 C :   -0.168785
   3 C :   -0.149522
   4 H :    0.078709
   5 H :    0.115691
   6 H :    0.132748
   7 H :    0.117763

  Mayer bond orders larger than 0.100000
B(  0-C ,  1-O ) :   1.8733 B(  0-C ,  2-C ) :   0.9990 B(  0-C ,  4-H ) :   0.8862
B(  2-C ,  3-C ) :   1.9164 B(  2-C ,  5-H ) :   0.9335 B(  3-C ,  6-H ) :   0.9365
B(  3-C ,  7-H ) :   0.9437

-----------------------------------------------------------------------------
         ABSORPTION SPECTRUM VIA TRANSITION ELECTRIC DIPOLE MOMENTS
-----------------------------------------------------------------------------
State   Energy    Wavelength  fosc         T2        TX        TY        TZ
        (cm-1)      (nm)                 (au**2)    (au)      (au)      (au)
-----------------------------------------------------------------------------
   1   27503.9    363.6   0.000034024   0.00041  -0.01820  -0.00441   0.00753

FINAL SINGLE POINT ENERGY      -191.590734084877

DIPOLE MOMENT
-------------
                                X             Y             Z
Electronic contribution:     -1.80371      -1.52609       0.03547
Nuclear contribution   :      2.19373       2.57367      -0.02200
                        -----------------------------------------
Total Dipole Moment    :      0.39002       1.04758       0.01347
                        -----------------------------------------
Magnitude (a.u.)       :      1.11791
Magnitude (Debye)      :      2.84149

Rotational constants in cm-1:     0.764303     0.215927     0.168626
Rotational constants in MHz : 22913.220692  6473.337566  5055.279538

                             ****ORCA TERMINATED NORMALLY****
TOTAL RUN TIME: 0 days 0 hours 1 minutes 1 seconds 691 msec
