                         Program Version 5.0.3 -  RELEASE  -
|  1> ! B3LYP 6-31G
|  2> !TightSCF
|  3> %scf
|  4>  ConvForced true
|  5>  convergence tight
|  6>  MaxIter 500
|  7> end
|  8>
|  9> %tddft
| 10>  nroots 1
| 11> end
| 12>
| 13> # 	5396
| 14> * xyz 0 1
| 15> 		C   -1.196364  -0.358261   0.015131
| 16> 		O   -2.108449  -0.523297   0.707192
| 17> 		C   -0.070822   0.486141   0.340356
| 18> 		C    1.197267   0.041097  -0.257056
| 19> 		H   -1.059556  -0.877975  -0.939217
| 20> 		H   -0.063604   1.365689   1.055057
| 21> 		H    1.339871  -0.697440  -0.924649
| 22> 		H    1.988366   0.595016  -0.006044
| 23> *
| 24>
| 25>                          ****END OF INPUT****

CARTESIAN COORDINATES (ANGSTROEM)
---------------------------------
  C     -1.196364   -0.358261    0.015131
  O     -2.108449   -0.523297    0.707192
  C     -0.070822    0.486141    0.340356
  C      1.197267    0.041097   -0.257056
  H     -1.059556   -0.877975   -0.939217
  H     -0.063604    1.365689    1.055057
  H      1.339871   -0.697440   -0.924649
  H      1.988366    0.595016   -0.006044

 Total Charge           Charge          ....    0
 Multiplicity           Mult            ....    1
 Number of Electrons    NEL             ....   30
 Basis Dimension        Dim             ....   44

ORBITAL ENERGIES
----------------

  NO   OCC          E(Eh)            E(eV)
   0   2.0000     -19.143346      -520.9169
   1   2.0000     -10.269779      -279.4549
   2   2.0000     -10.219739      -278.0932
   3   2.0000     -10.209703      -277.8201
   4   2.0000      -1.101028       -29.9605
   5   2.0000      -0.789821       -21.4921
   6   2.0000      -0.663940       -18.0667
   7   2.0000      -0.577031       -15.7018
   8   2.0000      -0.494896       -13.4668
   9   2.0000      -0.462348       -12.5811
  10   2.0000      -0.429604       -11.6901
  11   2.0000      -0.419344       -11.4109
  12   2.0000      -0.397861       -10.8263
  13   2.0000      -0.273508        -7.4425
  14   2.0000      -0.252147        -6.8613
  15   0.0000      -0.067237        -1.8296
  16   0.0000       0.042502         1.1565
  17   0.0000       0.110964         3.0195
  18   0.0000       0.129837         3.5330
  19   0.0000       0.159900         4.3511

MULLIKEN ATOMIC CHARGES
-----------------------
   0 C :    0.157382
   1 O :   -0.333758
   2 C :   -0.114129
   3 C :   -0.261170
   4 H :    0.095900
   5 H :    0.161621
   6 H :    0.152976
   7 H :    0.141178
Sum of atomic charges:    0.0000000

LOEWDIN ATOMIC CHARGES
----------------------
   0 C :    0.087968
   1 O :   -0.199320
   2 C :   -0.147036
   3 C :   -0.187699
   4 H :    0.065516
   5 H :    0.137546
   6 H :    0.124186
   7 H :    0.118840

  Mayer bond orders larger than 0.100000
B(  0-C ,  1-O ) :   1.8739 B(  0-C ,  2-C ) :   0.9900 B(  0-C ,  4-H ) :   0.8765
B(  1-O ,  3-C ) :   0.1027 B(  2-C ,  3-C ) :   1.8305 B(  2-C ,  5-H ) :   0.9289
B(  3-C ,  6-H ) :   0.9429 B(  3-C ,  7-H ) :   0.9476

-----------------------------------------------------------------------------
         ABSORPTION SPECTRUM VIA TRANSITION ELECTRIC DIPOLE MOMENTS
-----------------------------------------------------------------------------
State   Energy    Wavelength  fosc         T2        TX        TY        TZ
        (cm-1)      (nm)                 (au**2)    (au)      (au)      (au)
-----------------------------------------------------------------------------
   1   28894.6    346.1   0.000326846   0.00372  -0.04745  -0.02369   0.03018

FINAL SINGLE POINT ENERGY      -191.568158193049

DIPOLE MOMENT
-------------
                                X             Y             Z
Electronic contribution:     -3.09785      -0.47012       1.03724
Nuclear contribution   :      4.21150       0.75386      -1.53859
                        -----------------------------------------
Total Dipole Moment    :      1.11364       0.28373      -0.50136
                        -----------------------------------------
Magnitude (a.u.)       :      1.25382
Magnitude (Debye)      :      3.18696

Rotational constants in cm-1:     1.337165     0.160692     0.146883
Rotational constants in MHz : 40087.203544  4817.416485  4403.452310

                             ****ORCA TERMINATED NORMALLY****
TOTAL RUN TIME: 0 days 0 hours 1 minutes 1 seconds 108 msec
