                         Program Version 5.0.3 -  RELEASE  -
|  1> ! B3LYP 6-31G
|  2> !TightSCF
|  3> %scf
|  4>  ConvForced true
|  5>  convergence tight
|  6>  MaxIter 500
|  7> end
|  8>
|  9> %tddft
| 10>  nroots 1
| 11> end
| 12>
| 13> # 	1516
| 14> * xyz 0 1
| 15> 		C   -1.193928  -0.335468  -0.037705
| 16> 		O   -2.111406  -0.348332  -0.814616
| 17> 		C    0.017538   0.357435  -0.341088
| 18> 		C    1.188653   0.048973   0.239377
| 19> 		H   -1.380405  -0.870791   0.956189
| 20> 		H    0.062933   1.060985  -1.184955
| 21> 		H    1.166350  -0.511176   1.140620
| 22> 		H    2.220962   0.580253   0.061527
| 23> *
| 24>
| 25>                          ****END OF INPUT****

CARTESIAN COORDINATES (ANGSTROEM)
---------------------------------
  C     -1.193928   -0.335468   -0.037705
  O     -2.111406   -0.348332   -0.814616
  C      0.017538    0.357435   -0.341088
  C      1.188653    0.048973    0.239377
  H     -1.380405   -0.870791    0.956189
  H      0.062933    1.060985   -1.184955
  H      1.166350   -0.511176    1.140620
  H      2.220962    0.580253    0.061527

 Total Charge           Charge          ....    0
 Multiplicity           Mult            ....    1
 Number of Electrons    NEL             ....   30
 Basis Dimension        Dim             ....   44

ORBITAL ENERGIES
----------------

  NO   OCC          E(Eh)            E(eV)
   0   2.0000     -19.144299      -520.9428
   1   2.0000     -10.277706      -279.6706
   2   2.0000     -10.219013      -278.0735
   3   2.0000     -10.207646      -277.7642
   4   2.0000      -1.075748       -29.2726
   5   2.0000      -0.809642       -22.0315
   6   2.0000      -0.648617       -17.6498
   7   2.0000      -0.574107       -15.6222
   8   2.0000      -0.494352       -13.4520
   9   2.0000      -0.467500       -12.7213
  10   2.0000      -0.420463       -11.4414
  11   2.0000      -0.401627       -10.9288
  12   2.0000      -0.383762       -10.4427
  13   2.0000      -0.291726        -7.9383
  14   2.0000      -0.254142        -6.9156
  15   0.0000      -0.066025        -1.7966
  16   0.0000       0.050408         1.3717
  17   0.0000       0.094128         2.5613
  18   0.0000       0.111487         3.0337
  19   0.0000       0.148663         4.0453

MULLIKEN ATOMIC CHARGES
-----------------------
   0 C :    0.169775
   1 O :   -0.366514
   2 C :   -0.098719
   3 C :   -0.272404
   4 H :    0.110199
   5 H :    0.163537
   6 H :    0.142135
   7 H :    0.151992
Sum of atomic charges:    0.0000000

LOEWDIN ATOMIC CHARGES
----------------------
   0 C :    0.101677
   1 O :   -0.228579
   2 C :   -0.156650
   3 C :   -0.176541
   4 H :    0.079278
   5 H :    0.136505
   6 H :    0.116220
   7 H :    0.128090

  Mayer bond orders larger than 0.100000
B(  0-C ,  1-O ) :   1.8277 B(  0-C ,  2-C ) :   1.0069 B(  0-C ,  4-H ) :   0.8841
B(  1-O ,  3-C ) :   0.1066 B(  2-C ,  3-C ) :   1.8248 B(  2-C ,  5-H ) :   0.9335
B(  3-C ,  6-H ) :   0.9452 B(  3-C ,  7-H ) :   0.9393

-----------------------------------------------------------------------------
         ABSORPTION SPECTRUM VIA TRANSITION ELECTRIC DIPOLE MOMENTS
-----------------------------------------------------------------------------
State   Energy    Wavelength  fosc         T2        TX        TY        TZ
        (cm-1)      (nm)                 (au**2)    (au)      (au)      (au)
-----------------------------------------------------------------------------
   1   28366.3    352.5   0.000454704   0.00528   0.07240  -0.00486   0.00345

FINAL SINGLE POINT ENERGY      -191.598378111849

DIPOLE MOMENT
-------------
                                X             Y             Z
Electronic contribution:     -2.93042      -0.35657      -1.19874
Nuclear contribution   :      4.03058       0.53777       1.82357
                        -----------------------------------------
Total Dipole Moment    :      1.10016       0.18120       0.62483
                        -----------------------------------------
Magnitude (a.u.)       :      1.27812
Magnitude (Debye)      :      3.24873

Rotational constants in cm-1:     1.529614     0.159543     0.146310
Rotational constants in MHz : 45856.664016  4782.980692  4386.251852

                             ****ORCA TERMINATED NORMALLY****
TOTAL RUN TIME: 0 days 0 hours 0 minutes 58 seconds 621 msec
