                         Program Version 5.0.3 -  RELEASE  -
|  1> ! B3LYP 6-31G
|  2> !TightSCF
|  3> %scf
|  4>  ConvForced true
|  5>  convergence tight
|  6>  MaxIter 500
|  7> end
|  8>
|  9> %tddft
| 10>  nroots 1
| 11> end
| 12>
| 13> # 	29679
| 14> * xyz 0 1
| 15> 		C   -0.573597  -0.457042  -0.021373
| 16> 		O   -0.594339  -1.653141   0.026003
| 17> 		C    0.634604   0.462033   0.057439
| 18> 		C    1.836246  -0.118172  -0.031796
| 19> 		H   -1.449497   0.079505  -0.272687
| 20> 		H    0.575252   1.541382  -0.105590
| 21> 		H    1.972188  -1.239607  -0.302241
| 22> 		H    2.722211   0.447880   0.233845
| 23> *
| 24>
| 25>                          ****END OF INPUT****

CARTESIAN COORDINATES (ANGSTROEM)
---------------------------------
  C     -0.573597   -0.457042   -0.021373
  O     -0.594339   -1.653141    0.026003
  C      0.634604    0.462033    0.057439
  C      1.836246   -0.118172   -0.031796
  H     -1.449497    0.079505   -0.272687
  H      0.575252    1.541382   -0.105590
  H      1.972188   -1.239607   -0.302241
  H      2.722211    0.447880    0.233845

 Total Charge           Charge          ....    0
 Multiplicity           Mult            ....    1
 Number of Electrons    NEL             ....   30
 Basis Dimension        Dim             ....   44

ORBITAL ENERGIES
----------------

  NO   OCC          E(Eh)            E(eV)
   0   2.0000     -19.150730      -521.1178
   1   2.0000     -10.274051      -279.5711
   2   2.0000     -10.211902      -277.8800
   3   2.0000     -10.203377      -277.6480
   4   2.0000      -1.077890       -29.3309
   5   2.0000      -0.795926       -21.6583
   6   2.0000      -0.652876       -17.7657
   7   2.0000      -0.547687       -14.9033
   8   2.0000      -0.513920       -13.9845
   9   2.0000      -0.441582       -12.0161
  10   2.0000      -0.427809       -11.6413
  11   2.0000      -0.405599       -11.0369
  12   2.0000      -0.384500       -10.4628
  13   2.0000      -0.282076        -7.6757
  14   2.0000      -0.253507        -6.8983
  15   0.0000      -0.066427        -1.8076
  16   0.0000       0.051570         1.4033
  17   0.0000       0.111390         3.0311
  18   0.0000       0.116234         3.1629
  19   0.0000       0.162326         4.4171

MULLIKEN ATOMIC CHARGES
-----------------------
   0 C :    0.190425
   1 O :   -0.361963
   2 C :   -0.131983
   3 C :   -0.257070
   4 H :    0.097562
   5 H :    0.147356
   6 H :    0.172811
   7 H :    0.142862
Sum of atomic charges:   -0.0000000

LOEWDIN ATOMIC CHARGES
----------------------
   0 C :    0.117799
   1 O :   -0.222287
   2 C :   -0.193721
   3 C :   -0.158491
   4 H :    0.068092
   5 H :    0.130536
   6 H :    0.136725
   7 H :    0.121346

  Mayer bond orders larger than 0.100000
B(  0-C ,  1-O ) :   1.8842 B(  0-C ,  2-C ) :   0.9594 B(  0-C ,  4-H ) :   0.8876
B(  2-C ,  3-C ) :   1.8541 B(  2-C ,  5-H ) :   0.9325 B(  3-C ,  6-H ) :   0.9329
B(  3-C ,  7-H ) :   0.9403

-----------------------------------------------------------------------------
         ABSORPTION SPECTRUM VIA TRANSITION ELECTRIC DIPOLE MOMENTS
-----------------------------------------------------------------------------
State   Energy    Wavelength  fosc         T2        TX        TY        TZ
        (cm-1)      (nm)                 (au**2)    (au)      (au)      (au)
-----------------------------------------------------------------------------
   1   28392.0    352.2   0.000348318   0.00404   0.05739   0.01737  -0.02106

FINAL SINGLE POINT ENERGY      -191.592586766936

DIPOLE MOMENT
-------------
                                X             Y             Z
Electronic contribution:     -1.97853      -1.55732       0.29438
Nuclear contribution   :      2.42407       2.56598      -0.41982
                        -----------------------------------------
Total Dipole Moment    :      0.44554       1.00866      -0.12544
                        -----------------------------------------
Magnitude (a.u.)       :      1.10979
Magnitude (Debye)      :      2.82087

Rotational constants in cm-1:     0.759474     0.205348     0.162581
Rotational constants in MHz : 22768.468636  6156.168577  4874.069656

                             ****ORCA TERMINATED NORMALLY****
TOTAL RUN TIME: 0 days 0 hours 1 minutes 0 seconds 951 msec
