                         Program Version 5.0.3 -  RELEASE  -
|  1> ! B3LYP 6-31G
|  2> !TightSCF
|  3> %scf
|  4>  ConvForced true
|  5>  convergence tight
|  6>  MaxIter 500
|  7> end
|  8>
|  9> %tddft
| 10>  nroots 1
| 11> end
| 12>
| 13> # 	23384
| 14> * xyz 0 1
| 15> 		C   -0.584710  -0.438699   0.036686
| 16> 		O   -0.580007  -1.656018  -0.015040
| 17> 		C    0.633700   0.452501  -0.068308
| 18> 		C    1.851284  -0.150393   0.042956
| 19> 		H   -1.549445   0.125341   0.190213
| 20> 		H    0.647422   1.511969  -0.039719
| 21> 		H    1.840745  -1.069594  -0.169622
| 22> 		H    2.611328   0.577928   0.127109
| 23> *
| 24>
| 25>                          ****END OF INPUT****

CARTESIAN COORDINATES (ANGSTROEM)
---------------------------------
  C     -0.584710   -0.438699    0.036686
  O     -0.580007   -1.656018   -0.015040
  C      0.633700    0.452501   -0.068308
  C      1.851284   -0.150393    0.042956
  H     -1.549445    0.125341    0.190213
  H      0.647422    1.511969   -0.039719
  H      1.840745   -1.069594   -0.169622
  H      2.611328    0.577928    0.127109

 Total Charge           Charge          ....    0
 Multiplicity           Mult            ....    1
 Number of Electrons    NEL             ....   30
 Basis Dimension        Dim             ....   44

ORBITAL ENERGIES
----------------

  NO   OCC          E(Eh)            E(eV)
   0   2.0000     -19.152590      -521.1685
   1   2.0000     -10.284187      -279.8470
   2   2.0000     -10.202567      -277.6260
   3   2.0000     -10.192453      -277.3507
   4   2.0000      -1.067506       -29.0483
   5   2.0000      -0.804098       -21.8806
   6   2.0000      -0.657336       -17.8870
   7   2.0000      -0.559095       -15.2137
   8   2.0000      -0.524801       -14.2806
   9   2.0000      -0.447285       -12.1712
  10   2.0000      -0.416516       -11.3340
  11   2.0000      -0.407754       -11.0956
  12   2.0000      -0.396159       -10.7800
  13   2.0000      -0.282824        -7.6960
  14   2.0000      -0.257693        -7.0122
  15   0.0000      -0.070067        -1.9066
  16   0.0000       0.049337         1.3425
  17   0.0000       0.103875         2.8266
  18   0.0000       0.132523         3.6061
  19   0.0000       0.176502         4.8029

MULLIKEN ATOMIC CHARGES
-----------------------
   0 C :    0.195935
   1 O :   -0.383369
   2 C :   -0.153109
   3 C :   -0.202919
   4 H :    0.104587
   5 H :    0.138158
   6 H :    0.151928
   7 H :    0.148789
Sum of atomic charges:    0.0000000

LOEWDIN ATOMIC CHARGES
----------------------
   0 C :    0.121360
   1 O :   -0.239139
   2 C :   -0.181297
   3 C :   -0.158582
   4 H :    0.073372
   5 H :    0.122380
   6 H :    0.128794
   7 H :    0.133112

  Mayer bond orders larger than 0.100000
B(  0-C ,  1-O ) :   1.8467 B(  0-C ,  2-C ) :   0.9720 B(  0-C ,  4-H ) :   0.8759
B(  2-C ,  3-C ) :   1.8756 B(  2-C ,  5-H ) :   0.9382 B(  3-C ,  6-H ) :   0.9461
B(  3-C ,  7-H ) :   0.9469

-----------------------------------------------------------------------------
         ABSORPTION SPECTRUM VIA TRANSITION ELECTRIC DIPOLE MOMENTS
-----------------------------------------------------------------------------
State   Energy    Wavelength  fosc         T2        TX        TY        TZ
        (cm-1)      (nm)                 (au**2)    (au)      (au)      (au)
-----------------------------------------------------------------------------
   1   28242.6    354.1   0.000230802   0.00269   0.04832   0.00408   0.01841

FINAL SINGLE POINT ENERGY      -191.578942835894

DIPOLE MOMENT
-------------
                                X             Y             Z
Electronic contribution:     -1.73942      -1.79938      -0.07739
Nuclear contribution   :      2.17132       2.86341       0.10079
                        -----------------------------------------
Total Dipole Moment    :      0.43190       1.06403       0.02340
                        -----------------------------------------
Magnitude (a.u.)       :      1.14858
Magnitude (Debye)      :      2.91947

Rotational constants in cm-1:     0.760606     0.207296     0.163472
Rotational constants in MHz : 22802.384514  6214.571461  4900.767255

                             ****ORCA TERMINATED NORMALLY****
TOTAL RUN TIME: 0 days 0 hours 0 minutes 58 seconds 241 msec
