                         Program Version 5.0.3 -  RELEASE  -
|  1> ! B3LYP 6-31G
|  2> !TightSCF
|  3> %scf
|  4>  ConvForced true
|  5>  convergence tight
|  6>  MaxIter 500
|  7> end
|  8>
|  9> %tddft
| 10>  nroots 1
| 11> end
| 12>
| 13> # 	27079
| 14> * xyz 0 1
| 15> 		C   -0.603588  -0.407017  -0.060314
| 16> 		O   -0.558676  -1.624267   0.031821
| 17> 		C    0.586003   0.423534  -0.002489
| 18> 		C    1.881684  -0.167166   0.003750
| 19> 		H   -1.642580  -0.002685   0.116032
| 20> 		H    0.573861   1.516104   0.175100
| 21> 		H    2.135603  -1.244212  -0.187339
| 22> 		H    2.561741   0.572113   0.109927
| 23> *
| 24>
| 25>                          ****END OF INPUT****

CARTESIAN COORDINATES (ANGSTROEM)
---------------------------------
  C     -0.603588   -0.407017   -0.060314
  O     -0.558676   -1.624267    0.031821
  C      0.586003    0.423534   -0.002489
  C      1.881684   -0.167166    0.003750
  H     -1.642580   -0.002685    0.116032
  H      0.573861    1.516104    0.175100
  H      2.135603   -1.244212   -0.187339
  H      2.561741    0.572113    0.109927

 Total Charge           Charge          ....    0
 Multiplicity           Mult            ....    1
 Number of Electrons    NEL             ....   30
 Basis Dimension        Dim             ....   44

ORBITAL ENERGIES
----------------

  NO   OCC          E(Eh)            E(eV)
   0   2.0000     -19.140121      -520.8292
   1   2.0000     -10.273860      -279.5659
   2   2.0000     -10.215929      -277.9896
   3   2.0000     -10.214523      -277.9513
   4   2.0000      -1.059461       -28.8294
   5   2.0000      -0.787598       -21.4316
   6   2.0000      -0.661816       -18.0089
   7   2.0000      -0.542932       -14.7739
   8   2.0000      -0.518237       -14.1020
   9   2.0000      -0.437517       -11.9054
  10   2.0000      -0.416647       -11.3375
  11   2.0000      -0.398195       -10.8354
  12   2.0000      -0.390928       -10.6377
  13   2.0000      -0.275102        -7.4859
  14   2.0000      -0.249085        -6.7779
  15   0.0000      -0.077925        -2.1205
  16   0.0000       0.051259         1.3948
  17   0.0000       0.101744         2.7686
  18   0.0000       0.124491         3.3876
  19   0.0000       0.146706         3.9921

MULLIKEN ATOMIC CHARGES
-----------------------
   0 C :    0.173105
   1 O :   -0.378956
   2 C :   -0.155455
   3 C :   -0.213491
   4 H :    0.107673
   5 H :    0.147318
   6 H :    0.185830
   7 H :    0.133975
Sum of atomic charges:   -0.0000000

LOEWDIN ATOMIC CHARGES
----------------------
   0 C :    0.101851
   1 O :   -0.248937
   2 C :   -0.177779
   3 C :   -0.151871
   4 H :    0.080922
   5 H :    0.126726
   6 H :    0.148899
   7 H :    0.120188

  Mayer bond orders larger than 0.100000
B(  0-C ,  1-O ) :   1.8394 B(  0-C ,  2-C ) :   1.0099 B(  0-C ,  4-H ) :   0.8941
B(  1-O ,  3-C ) :   0.1211 B(  2-C ,  3-C ) :   1.8412 B(  2-C ,  5-H ) :   0.9309
B(  3-C ,  6-H ) :   0.9322 B(  3-C ,  7-H ) :   0.9399

-----------------------------------------------------------------------------
         ABSORPTION SPECTRUM VIA TRANSITION ELECTRIC DIPOLE MOMENTS
-----------------------------------------------------------------------------
State   Energy    Wavelength  fosc         T2        TX        TY        TZ
        (cm-1)      (nm)                 (au**2)    (au)      (au)      (au)
-----------------------------------------------------------------------------
   1   24934.5    401.1   0.000106975   0.00141   0.02202   0.01023   0.02869

FINAL SINGLE POINT ENERGY      -191.604001911495

DIPOLE MOMENT
-------------
                                X             Y             Z
Electronic contribution:     -1.74399      -1.54649      -0.21347
Nuclear contribution   :      2.24630       2.57619       0.19995
                        -----------------------------------------
Total Dipole Moment    :      0.50231       1.02971      -0.01352
                        -----------------------------------------
Magnitude (a.u.)       :      1.14577
Magnitude (Debye)      :      2.91232

Rotational constants in cm-1:     0.714691     0.211447     0.163654
Rotational constants in MHz : 21425.909553  6339.030006  4906.213555

                             ****ORCA TERMINATED NORMALLY****
TOTAL RUN TIME: 0 days 0 hours 1 minutes 1 seconds 692 msec
