                         Program Version 5.0.3 -  RELEASE  -
|  1> ! B3LYP 6-31G
|  2> !TightSCF
|  3> %scf
|  4>  ConvForced true
|  5>  convergence tight
|  6>  MaxIter 500
|  7> end
|  8>
|  9> %tddft
| 10>  nroots 1
| 11> end
| 12>
| 13> # 	21049
| 14> * xyz 0 1
| 15> 		C   -0.604635  -0.455015  -0.050507
| 16> 		O   -0.611083  -1.647880   0.017316
| 17> 		C    0.668278   0.379233   0.041467
| 18> 		C    1.894189  -0.062244  -0.019719
| 19> 		H   -1.540767   0.201545   0.067289
| 20> 		H    0.506393   1.496298  -0.026071
| 21> 		H    1.896995  -1.328809   0.013596
| 22> 		H    2.496486   0.675625   0.011874
| 23> *
| 24>
| 25>                          ****END OF INPUT****

CARTESIAN COORDINATES (ANGSTROEM)
---------------------------------
  C     -0.604635   -0.455015   -0.050507
  O     -0.611083   -1.647880    0.017316
  C      0.668278    0.379233    0.041467
  C      1.894189   -0.062244   -0.019719
  H     -1.540767    0.201545    0.067289
  H      0.506393    1.496298   -0.026071
  H      1.896995   -1.328809    0.013596
  H      2.496486    0.675625    0.011874

 Total Charge           Charge          ....    0
 Multiplicity           Mult            ....    1
 Number of Electrons    NEL             ....   30
 Basis Dimension        Dim             ....   44

ORBITAL ENERGIES
----------------

  NO   OCC          E(Eh)            E(eV)
   0   2.0000     -19.159441      -521.3549
   1   2.0000     -10.286556      -279.9114
   2   2.0000     -10.202853      -277.6337
   3   2.0000     -10.199099      -277.5316
   4   2.0000      -1.086877       -29.5754
   5   2.0000      -0.807561       -21.9749
   6   2.0000      -0.657245       -17.8845
   7   2.0000      -0.536606       -14.6018
   8   2.0000      -0.509397       -13.8614
   9   2.0000      -0.443254       -12.0616
  10   2.0000      -0.436256       -11.8711
  11   2.0000      -0.412173       -11.2158
  12   2.0000      -0.366366        -9.9693
  13   2.0000      -0.293688        -7.9917
  14   2.0000      -0.260045        -7.0762
  15   0.0000      -0.064816        -1.7637
  16   0.0000       0.063424         1.7258
  17   0.0000       0.080184         2.1819
  18   0.0000       0.101925         2.7735
  19   0.0000       0.144963         3.9446

MULLIKEN ATOMIC CHARGES
-----------------------
   0 C :    0.201406
   1 O :   -0.358453
   2 C :   -0.154725
   3 C :   -0.208194
   4 H :    0.101738
   5 H :    0.125798
   6 H :    0.178854
   7 H :    0.113576
Sum of atomic charges:   -0.0000000

LOEWDIN ATOMIC CHARGES
----------------------
   0 C :    0.116746
   1 O :   -0.212196
   2 C :   -0.191317
   3 C :   -0.172244
   4 H :    0.071367
   5 H :    0.108946
   6 H :    0.153026
   7 H :    0.125673

  Mayer bond orders larger than 0.100000
B(  0-C ,  1-O ) :   1.8725 B(  0-C ,  2-C ) :   0.9617 B(  0-C ,  4-H ) :   0.8661
B(  2-C ,  3-C ) :   1.8846 B(  2-C ,  5-H ) :   0.9323 B(  3-C ,  6-H ) :   0.9235
B(  3-C ,  7-H ) :   0.9536

-----------------------------------------------------------------------------
         ABSORPTION SPECTRUM VIA TRANSITION ELECTRIC DIPOLE MOMENTS
-----------------------------------------------------------------------------
State   Energy    Wavelength  fosc         T2        TX        TY        TZ
        (cm-1)      (nm)                 (au**2)    (au)      (au)      (au)
-----------------------------------------------------------------------------
   1   29513.2    338.8   0.000637399   0.00711   0.07452  -0.00454  -0.03920

FINAL SINGLE POINT ENERGY      -191.553225049116

DIPOLE MOMENT
-------------
                                X             Y             Z
Electronic contribution:     -1.65242      -1.79453      -0.09579
Nuclear contribution   :      1.99161       2.76803       0.06290
                        -----------------------------------------
Total Dipole Moment    :      0.33920       0.97351      -0.03289
                        -----------------------------------------
Magnitude (a.u.)       :      1.03143
Magnitude (Debye)      :      2.62170

Rotational constants in cm-1:     0.806050     0.199160     0.159902
Rotational constants in MHz : 24164.764495  5970.654702  4793.726942

                             ****ORCA TERMINATED NORMALLY****
TOTAL RUN TIME: 0 days 0 hours 0 minutes 59 seconds 355 msec
