                         Program Version 5.0.3 -  RELEASE  -
|  1> ! B3LYP 6-31G
|  2> !TightSCF
|  3> %scf
|  4>  ConvForced true
|  5>  convergence tight
|  6>  MaxIter 500
|  7> end
|  8>
|  9> %tddft
| 10>  nroots 1
| 11> end
| 12>
| 13> # 	18895
| 14> * xyz 0 1
| 15> 		C   -1.243937  -0.349987  -0.016033
| 16> 		O   -2.069366  -0.645079  -0.814612
| 17> 		C   -0.011188   0.371467  -0.333093
| 18> 		C    1.155906   0.149425   0.267090
| 19> 		H   -1.274536  -0.801932   1.089844
| 20> 		H    0.077957   1.146897  -1.291263
| 21> 		H    1.319934  -0.504469   1.059947
| 22> 		H    2.033615   0.630468   0.090005
| 23> *
| 24>
| 25>                          ****END OF INPUT****

CARTESIAN COORDINATES (ANGSTROEM)
---------------------------------
  C     -1.243937   -0.349987   -0.016033
  O     -2.069366   -0.645079   -0.814612
  C     -0.011188    0.371467   -0.333093
  C      1.155906    0.149425    0.267090
  H     -1.274536   -0.801932    1.089844
  H      0.077957    1.146897   -1.291263
  H      1.319934   -0.504469    1.059947
  H      2.033615    0.630468    0.090005

 Total Charge           Charge          ....    0
 Multiplicity           Mult            ....    1
 Number of Electrons    NEL             ....   30
 Basis Dimension        Dim             ....   44

ORBITAL ENERGIES
----------------

  NO   OCC          E(Eh)            E(eV)
   0   2.0000     -19.155169      -521.2387
   1   2.0000     -10.288574      -279.9663
   2   2.0000     -10.219368      -278.0831
   3   2.0000     -10.200032      -277.5570
   4   2.0000      -1.090935       -29.6859
   5   2.0000      -0.806539       -21.9471
   6   2.0000      -0.660297       -17.9676
   7   2.0000      -0.560387       -15.2489
   8   2.0000      -0.494676       -13.4608
   9   2.0000      -0.474568       -12.9137
  10   2.0000      -0.428943       -11.6721
  11   2.0000      -0.410927       -11.1819
  12   2.0000      -0.374758       -10.1977
  13   2.0000      -0.293670        -7.9912
  14   2.0000      -0.258679        -7.0390
  15   0.0000      -0.062260        -1.6942
  16   0.0000       0.046048         1.2530
  17   0.0000       0.081369         2.2142
  18   0.0000       0.121203         3.2981
  19   0.0000       0.146566         3.9883

MULLIKEN ATOMIC CHARGES
-----------------------
   0 C :    0.163322
   1 O :   -0.342367
   2 C :   -0.088987
   3 C :   -0.273566
   4 H :    0.093265
   5 H :    0.147130
   6 H :    0.148381
   7 H :    0.152823
Sum of atomic charges:   -0.0000000

LOEWDIN ATOMIC CHARGES
----------------------
   0 C :    0.110017
   1 O :   -0.202314
   2 C :   -0.146540
   3 C :   -0.193736
   4 H :    0.063232
   5 H :    0.128813
   6 H :    0.117518
   7 H :    0.123012

  Mayer bond orders larger than 0.100000
B(  0-C ,  1-O ) :   1.8671 B(  0-C ,  2-C ) :   0.9623 B(  0-C ,  4-H ) :   0.8637
B(  2-C ,  3-C ) :   1.8712 B(  2-C ,  5-H ) :   0.9276 B(  3-C ,  6-H ) :   0.9441
B(  3-C ,  7-H ) :   0.9408

-----------------------------------------------------------------------------
         ABSORPTION SPECTRUM VIA TRANSITION ELECTRIC DIPOLE MOMENTS
-----------------------------------------------------------------------------
State   Energy    Wavelength  fosc         T2        TX        TY        TZ
        (cm-1)      (nm)                 (au**2)    (au)      (au)      (au)
-----------------------------------------------------------------------------
   1   30147.5    331.7   0.000410004   0.00448   0.05912  -0.00848   0.03017

FINAL SINGLE POINT ENERGY      -191.575972018363

DIPOLE MOMENT
-------------
                                X             Y             Z
Electronic contribution:     -3.09368      -0.62319      -1.19165
Nuclear contribution   :      4.15183       0.95601       1.75562
                        -----------------------------------------
Total Dipole Moment    :      1.05815       0.33281       0.56397
                        -----------------------------------------
Magnitude (a.u.)       :      1.24439
Magnitude (Debye)      :      3.16299

Rotational constants in cm-1:     1.424076     0.156819     0.145256
Rotational constants in MHz : 42692.736780  4701.323590  4354.673349

                             ****ORCA TERMINATED NORMALLY****
TOTAL RUN TIME: 0 days 0 hours 1 minutes 1 seconds 539 msec
