                         Program Version 5.0.3 -  RELEASE  -
|  1> ! B3LYP 6-31G
|  2> !TightSCF
|  3> %scf
|  4>  ConvForced true
|  5>  convergence tight
|  6>  MaxIter 500
|  7> end
|  8>
|  9> %tddft
| 10>  nroots 1
| 11> end
| 12>
| 13> # 	17855
| 14> * xyz 0 1
| 15> 		C   -1.209665  -0.318359  -0.024630
| 16> 		O   -2.092628  -0.548773  -0.833082
| 17> 		C    0.089897   0.489377  -0.292371
| 18> 		C    1.234614   0.058155   0.189304
| 19> 		H   -1.437426  -0.867997   0.896233
| 20> 		H    0.080757   1.185608  -0.956365
| 21> 		H    1.256931  -0.577830   0.821015
| 22> 		H    2.095434   0.516827   0.137458
| 23> *
| 24>
| 25>                          ****END OF INPUT****

CARTESIAN COORDINATES (ANGSTROEM)
---------------------------------
  C     -1.209665   -0.318359   -0.024630
  O     -2.092628   -0.548773   -0.833082
  C      0.089897    0.489377   -0.292371
  C      1.234614    0.058155    0.189304
  H     -1.437426   -0.867997    0.896233
  H      0.080757    1.185608   -0.956365
  H      1.256931   -0.577830    0.821015
  H      2.095434    0.516827    0.137458

 Total Charge           Charge          ....    0
 Multiplicity           Mult            ....    1
 Number of Electrons    NEL             ....   30
 Basis Dimension        Dim             ....   44

ORBITAL ENERGIES
----------------

  NO   OCC          E(Eh)            E(eV)
   0   2.0000     -19.147922      -521.0415
   1   2.0000     -10.281985      -279.7870
   2   2.0000     -10.200585      -277.5720
   3   2.0000     -10.177048      -276.9316
   4   2.0000      -1.066087       -29.0097
   5   2.0000      -0.815996       -22.2044
   6   2.0000      -0.660838       -17.9823
   7   2.0000      -0.595072       -16.1927
   8   2.0000      -0.505758       -13.7624
   9   2.0000      -0.485378       -13.2078
  10   2.0000      -0.425628       -11.5819
  11   2.0000      -0.408272       -11.1096
  12   2.0000      -0.391455       -10.6520
  13   2.0000      -0.295537        -8.0420
  14   2.0000      -0.249962        -6.8018
  15   0.0000      -0.056212        -1.5296
  16   0.0000       0.031283         0.8513
  17   0.0000       0.127144         3.4598
  18   0.0000       0.147190         4.0052
  19   0.0000       0.176066         4.7910

MULLIKEN ATOMIC CHARGES
-----------------------
   0 C :    0.161836
   1 O :   -0.365127
   2 C :   -0.080827
   3 C :   -0.218848
   4 H :    0.115794
   5 H :    0.126547
   6 H :    0.117052
   7 H :    0.143574
Sum of atomic charges:    0.0000000

LOEWDIN ATOMIC CHARGES
----------------------
   0 C :    0.116074
   1 O :   -0.239548
   2 C :   -0.127068
   3 C :   -0.186378
   4 H :    0.087275
   5 H :    0.122129
   6 H :    0.105640
   7 H :    0.121876

  Mayer bond orders larger than 0.100000
B(  0-C ,  1-O ) :   1.8687 B(  0-C ,  2-C ) :   0.9292 B(  0-C ,  4-H ) :   0.9017
B(  2-C ,  3-C ) :   1.9411 B(  2-C ,  5-H ) :   0.9447 B(  3-C ,  6-H ) :   0.9556
B(  3-C ,  7-H ) :   0.9476

-----------------------------------------------------------------------------
         ABSORPTION SPECTRUM VIA TRANSITION ELECTRIC DIPOLE MOMENTS
-----------------------------------------------------------------------------
State   Energy    Wavelength  fosc         T2        TX        TY        TZ
        (cm-1)      (nm)                 (au**2)    (au)      (au)      (au)
-----------------------------------------------------------------------------
   1   28880.7    346.3   0.000414928   0.00473   0.06119  -0.01187   0.02907

FINAL SINGLE POINT ENERGY      -191.534563933259

DIPOLE MOMENT
-------------
                                X             Y             Z
Electronic contribution:     -2.83251      -0.34248      -1.11879
Nuclear contribution   :      3.86334       0.62027       1.76837
                        -----------------------------------------
Total Dipole Moment    :      1.03083       0.27779       0.64958
                        -----------------------------------------
Magnitude (a.u.)       :      1.24969
Magnitude (Debye)      :      3.17647

Rotational constants in cm-1:     1.463970     0.151347     0.142338
Rotational constants in MHz : 43888.718785  4537.274208  4267.198679

                             ****ORCA TERMINATED NORMALLY****
TOTAL RUN TIME: 0 days 0 hours 0 minutes 59 seconds 649 msec
