                         Program Version 5.0.3 -  RELEASE  -
|  1> ! B3LYP 6-31G
|  2> !TightSCF
|  3> %scf
|  4>  ConvForced true
|  5>  convergence tight
|  6>  MaxIter 500
|  7> end
|  8>
|  9> %tddft
| 10>  nroots 1
| 11> end
| 12>
| 13> # 	30802
| 14> * xyz 0 1
| 15> 		C   -0.659839  -0.432027   0.037712
| 16> 		O   -0.557613  -1.653146  -0.007127
| 17> 		C    0.687413   0.443068   0.014758
| 18> 		C    1.830869  -0.118715   0.007409
| 19> 		H   -1.668006   0.015088  -0.332390
| 20> 		H    0.539992   1.502550  -0.032435
| 21> 		H    2.023916  -1.229885  -0.092992
| 22> 		H    2.784843   0.489219  -0.145831
| 23> *
| 24>
| 25>                          ****END OF INPUT****

CARTESIAN COORDINATES (ANGSTROEM)
---------------------------------
  C     -0.659839   -0.432027    0.037712
  O     -0.557613   -1.653146   -0.007127
  C      0.687413    0.443068    0.014758
  C      1.830869   -0.118715    0.007409
  H     -1.668006    0.015088   -0.332390
  H      0.539992    1.502550   -0.032435
  H      2.023916   -1.229885   -0.092992
  H      2.784843    0.489219   -0.145831

 Total Charge           Charge          ....    0
 Multiplicity           Mult            ....    1
 Number of Electrons    NEL             ....   30
 Basis Dimension        Dim             ....   44

ORBITAL ENERGIES
----------------

  NO   OCC          E(Eh)            E(eV)
   0   2.0000     -19.155770      -521.2550
   1   2.0000     -10.292483      -280.0727
   2   2.0000     -10.203127      -277.6412
   3   2.0000     -10.201667      -277.6015
   4   2.0000      -1.066088       -29.0097
   5   2.0000      -0.797074       -21.6895
   6   2.0000      -0.632138       -17.2014
   7   2.0000      -0.544587       -14.8190
   8   2.0000      -0.502833       -13.6828
   9   2.0000      -0.450626       -12.2622
  10   2.0000      -0.428726       -11.6662
  11   2.0000      -0.396664       -10.7938
  12   2.0000      -0.366195        -9.9647
  13   2.0000      -0.294427        -8.0118
  14   2.0000      -0.255218        -6.9448
  15   0.0000      -0.063694        -1.7332
  16   0.0000       0.046705         1.2709
  17   0.0000       0.093071         2.5326
  18   0.0000       0.122221         3.3258
  19   0.0000       0.143153         3.8954

MULLIKEN ATOMIC CHARGES
-----------------------
   0 C :    0.189970
   1 O :   -0.367649
   2 C :   -0.114890
   3 C :   -0.271205
   4 H :    0.118260
   5 H :    0.135558
   6 H :    0.171322
   7 H :    0.138635
Sum of atomic charges:    0.0000000

LOEWDIN ATOMIC CHARGES
----------------------
   0 C :    0.120703
   1 O :   -0.234563
   2 C :   -0.174352
   3 C :   -0.175206
   4 H :    0.086436
   5 H :    0.119438
   6 H :    0.136128
   7 H :    0.121414

  Mayer bond orders larger than 0.100000
B(  0-C ,  1-O ) :   1.8607 B(  0-C ,  2-C ) :   0.9222 B(  0-C ,  4-H ) :   0.8717
B(  2-C ,  3-C ) :   1.9205 B(  2-C ,  5-H ) :   0.9301 B(  3-C ,  6-H ) :   0.9261
B(  3-C ,  7-H ) :   0.9384

-----------------------------------------------------------------------------
         ABSORPTION SPECTRUM VIA TRANSITION ELECTRIC DIPOLE MOMENTS
-----------------------------------------------------------------------------
State   Energy    Wavelength  fosc         T2        TX        TY        TZ
        (cm-1)      (nm)                 (au**2)    (au)      (au)      (au)
-----------------------------------------------------------------------------
   1   28104.6    355.8   0.001170287   0.01371  -0.11225  -0.00256  -0.03321

FINAL SINGLE POINT ENERGY      -191.588305541476

DIPOLE MOMENT
-------------
                                X             Y             Z
Electronic contribution:     -2.03389      -1.55413       0.45593
Nuclear contribution   :      2.29510       2.51611      -0.56621
                        -----------------------------------------
Total Dipole Moment    :      0.26121       0.96199      -0.11028
                        -----------------------------------------
Magnitude (a.u.)       :      1.00290
Magnitude (Debye)      :      2.54917

Rotational constants in cm-1:     0.739846     0.202915     0.159735
Rotational constants in MHz : 22180.027194  6083.240322  4788.721010

                             ****ORCA TERMINATED NORMALLY****
TOTAL RUN TIME: 0 days 0 hours 1 minutes 3 seconds 711 msec
