                         Program Version 5.0.3 -  RELEASE  -
|  1> ! B3LYP 6-31G
|  2> !TightSCF
|  3> %scf
|  4>  ConvForced true
|  5>  convergence tight
|  6>  MaxIter 500
|  7> end
|  8>
|  9> %tddft
| 10>  nroots 1
| 11> end
| 12>
| 13> # 	3302
| 14> * xyz 0 1
| 15> 		C   -1.193364  -0.393011   0.008741
| 16> 		O   -1.264446  -1.523205  -0.259789
| 17> 		C    0.015491   0.501623  -0.095651
| 18> 		C    1.229753  -0.021946   0.048482
| 19> 		H   -2.110624   0.169990   0.349926
| 20> 		H   -0.216762   1.610167  -0.343002
| 21> 		H    1.374560  -1.045217   0.185218
| 22> 		H    2.111704   0.627303   0.129368
| 23> *
| 24>
| 25>                          ****END OF INPUT****

CARTESIAN COORDINATES (ANGSTROEM)
---------------------------------
  C     -1.193364   -0.393011    0.008741
  O     -1.264446   -1.523205   -0.259789
  C      0.015491    0.501623   -0.095651
  C      1.229753   -0.021946    0.048482
  H     -2.110624    0.169990    0.349926
  H     -0.216762    1.610167   -0.343002
  H      1.374560   -1.045217    0.185218
  H      2.111704    0.627303    0.129368

 Total Charge           Charge          ....    0
 Multiplicity           Mult            ....    1
 Number of Electrons    NEL             ....   30
 Basis Dimension        Dim             ....   44

ORBITAL ENERGIES
----------------

  NO   OCC          E(Eh)            E(eV)
   0   2.0000     -19.153056      -521.1811
   1   2.0000     -10.279124      -279.7092
   2   2.0000     -10.208723      -277.7935
   3   2.0000     -10.201661      -277.6013
   4   2.0000      -1.102399       -29.9978
   5   2.0000      -0.796633       -21.6775
   6   2.0000      -0.653293       -17.7770
   7   2.0000      -0.543849       -14.7989
   8   2.0000      -0.511107       -13.9079
   9   2.0000      -0.451758       -12.2930
  10   2.0000      -0.438644       -11.9361
  11   2.0000      -0.411735       -11.2039
  12   2.0000      -0.388508       -10.5718
  13   2.0000      -0.288838        -7.8597
  14   2.0000      -0.253073        -6.8865
  15   0.0000      -0.053345        -1.4516
  16   0.0000       0.047578         1.2947
  17   0.0000       0.098872         2.6904
  18   0.0000       0.134217         3.6522
  19   0.0000       0.148509         4.0411

MULLIKEN ATOMIC CHARGES
-----------------------
   0 C :    0.160983
   1 O :   -0.326569
   2 C :   -0.112137
   3 C :   -0.265817
   4 H :    0.086427
   5 H :    0.145839
   6 H :    0.165800
   7 H :    0.145474
Sum of atomic charges:   -0.0000000

LOEWDIN ATOMIC CHARGES
----------------------
   0 C :    0.107861
   1 O :   -0.199132
   2 C :   -0.173847
   3 C :   -0.174516
   4 H :    0.058650
   5 H :    0.125156
   6 H :    0.130587
   7 H :    0.125242

  Mayer bond orders larger than 0.100000
B(  0-C ,  1-O ) :   1.9240 B(  0-C ,  2-C ) :   0.9319 B(  0-C ,  4-H ) :   0.8670
B(  2-C ,  3-C ) :   1.8948 B(  2-C ,  5-H ) :   0.9279 B(  3-C ,  6-H ) :   0.9375
B(  3-C ,  7-H ) :   0.9435

-----------------------------------------------------------------------------
         ABSORPTION SPECTRUM VIA TRANSITION ELECTRIC DIPOLE MOMENTS
-----------------------------------------------------------------------------
State   Energy    Wavelength  fosc         T2        TX        TY        TZ
        (cm-1)      (nm)                 (au**2)    (au)      (au)      (au)
-----------------------------------------------------------------------------
   1   30952.3    323.1   0.000089673   0.00095   0.03006   0.00436   0.00557

FINAL SINGLE POINT ENERGY      -191.584476956912

DIPOLE MOMENT
-------------
                                X             Y             Z
Electronic contribution:     -1.86141      -1.82992      -0.37778
Nuclear contribution   :      2.30760       2.73092       0.58634
                        -----------------------------------------
Total Dipole Moment    :      0.44619       0.90100       0.20856
                        -----------------------------------------
Magnitude (a.u.)       :      1.02683
Magnitude (Debye)      :      2.61000

Rotational constants in cm-1:     0.804141     0.199988     0.162639
Rotational constants in MHz : 24107.535958  5995.488786  4875.799984

                             ****ORCA TERMINATED NORMALLY****
TOTAL RUN TIME: 0 days 0 hours 1 minutes 0 seconds 964 msec
