                         Program Version 5.0.3 -  RELEASE  -
|  1> ! B3LYP 6-31G
|  2> !TightSCF
|  3> %scf
|  4>  ConvForced true
|  5>  convergence tight
|  6>  MaxIter 500
|  7> end
|  8>
|  9> %tddft
| 10>  nroots 1
| 11> end
| 12>
| 13> # 	27604
| 14> * xyz 0 1
| 15> 		C   -0.630014  -0.456706   0.070941
| 16> 		O   -0.571206  -1.625366  -0.043837
| 17> 		C    0.659924   0.441232  -0.031839
| 18> 		C    1.844112  -0.145290   0.006881
| 19> 		H   -1.592328   0.076528   0.163073
| 20> 		H    0.446063   1.504728  -0.287268
| 21> 		H    2.106902  -1.122029   0.193935
| 22> 		H    2.733741   0.524730   0.063034
| 23> *
| 24>
| 25>                          ****END OF INPUT****

CARTESIAN COORDINATES (ANGSTROEM)
---------------------------------
  C     -0.630014   -0.456706    0.070941
  O     -0.571206   -1.625366   -0.043837
  C      0.659924    0.441232   -0.031839
  C      1.844112   -0.145290    0.006881
  H     -1.592328    0.076528    0.163073
  H      0.446063    1.504728   -0.287268
  H      2.106902   -1.122029    0.193935
  H      2.733741    0.524730    0.063034

 Total Charge           Charge          ....    0
 Multiplicity           Mult            ....    1
 Number of Electrons    NEL             ....   30
 Basis Dimension        Dim             ....   44

ORBITAL ENERGIES
----------------

  NO   OCC          E(Eh)            E(eV)
   0   2.0000     -19.152959      -521.1785
   1   2.0000     -10.280736      -279.7531
   2   2.0000     -10.205594      -277.7083
   3   2.0000     -10.196928      -277.4725
   4   2.0000      -1.094696       -29.7882
   5   2.0000      -0.787996       -21.4425
   6   2.0000      -0.645327       -17.5602
   7   2.0000      -0.555360       -15.1121
   8   2.0000      -0.504248       -13.7213
   9   2.0000      -0.454658       -12.3719
  10   2.0000      -0.430833       -11.7236
  11   2.0000      -0.411571       -11.1994
  12   2.0000      -0.380239       -10.3468
  13   2.0000      -0.287462        -7.8222
  14   2.0000      -0.251515        -6.8441
  15   0.0000      -0.054856        -1.4927
  16   0.0000       0.052256         1.4220
  17   0.0000       0.100996         2.7482
  18   0.0000       0.137525         3.7423
  19   0.0000       0.150405         4.0927

MULLIKEN ATOMIC CHARGES
-----------------------
   0 C :    0.181369
   1 O :   -0.338164
   2 C :   -0.127181
   3 C :   -0.260167
   4 H :    0.102887
   5 H :    0.138674
   6 H :    0.169041
   7 H :    0.133541
Sum of atomic charges:   -0.0000000

LOEWDIN ATOMIC CHARGES
----------------------
   0 C :    0.112919
   1 O :   -0.206559
   2 C :   -0.174512
   3 C :   -0.176346
   4 H :    0.071375
   5 H :    0.121864
   6 H :    0.131915
   7 H :    0.119345

  Mayer bond orders larger than 0.100000
B(  0-C ,  1-O ) :   1.9098 B(  0-C ,  2-C ) :   0.9253 B(  0-C ,  4-H ) :   0.8678
B(  2-C ,  3-C ) :   1.9130 B(  2-C ,  5-H ) :   0.9278 B(  3-C ,  6-H ) :   0.9330
B(  3-C ,  7-H ) :   0.9441

-----------------------------------------------------------------------------
         ABSORPTION SPECTRUM VIA TRANSITION ELECTRIC DIPOLE MOMENTS
-----------------------------------------------------------------------------
State   Energy    Wavelength  fosc         T2        TX        TY        TZ
        (cm-1)      (nm)                 (au**2)    (au)      (au)      (au)
-----------------------------------------------------------------------------
   1   30157.3    331.6   0.000137972   0.00151  -0.03818  -0.00690   0.00088

FINAL SINGLE POINT ENERGY      -191.585751746991

DIPOLE MOMENT
-------------
                                X             Y             Z
Electronic contribution:     -2.02393      -1.79946      -0.03332
Nuclear contribution   :      2.30881       2.70968       0.12494
                        -----------------------------------------
Total Dipole Moment    :      0.28488       0.91022       0.09161
                        -----------------------------------------
Magnitude (a.u.)       :      0.95815
Magnitude (Debye)      :      2.43541

Rotational constants in cm-1:     0.751395     0.205724     0.162301
Rotational constants in MHz : 22526.240584  6167.451968  4865.660238

                             ****ORCA TERMINATED NORMALLY****
TOTAL RUN TIME: 0 days 0 hours 0 minutes 53 seconds 652 msec
