                         Program Version 5.0.3 -  RELEASE  -
|  1> ! B3LYP 6-31G
|  2> !TightSCF
|  3> %scf
|  4>  ConvForced true
|  5>  convergence tight
|  6>  MaxIter 500
|  7> end
|  8>
|  9> %tddft
| 10>  nroots 1
| 11> end
| 12>
| 13> # 	26569
| 14> * xyz 0 1
| 15> 		C   -0.527721  -0.460400  -0.009777
| 16> 		O   -0.573933  -1.623199   0.017160
| 17> 		C    0.600195   0.464176  -0.023587
| 18> 		C    1.818480  -0.181291   0.014838
| 19> 		H   -1.605197   0.188619  -0.035783
| 20> 		H    0.571021   1.664719   0.128568
| 21> 		H    1.980278  -1.202398  -0.259516
| 22> 		H    2.634397   0.499196   0.132256
| 23> *
| 24>
| 25>                          ****END OF INPUT****

CARTESIAN COORDINATES (ANGSTROEM)
---------------------------------
  C     -0.527721   -0.460400   -0.009777
  O     -0.573933   -1.623199    0.017160
  C      0.600195    0.464176   -0.023587
  C      1.818480   -0.181291    0.014838
  H     -1.605197    0.188619   -0.035783
  H      0.571021    1.664719    0.128568
  H      1.980278   -1.202398   -0.259516
  H      2.634397    0.499196    0.132256

 Total Charge           Charge          ....    0
 Multiplicity           Mult            ....    1
 Number of Electrons    NEL             ....   30
 Basis Dimension        Dim             ....   44

ORBITAL ENERGIES
----------------

  NO   OCC          E(Eh)            E(eV)
   0   2.0000     -19.155489      -521.2473
   1   2.0000     -10.286709      -279.9156
   2   2.0000     -10.221628      -278.1447
   3   2.0000     -10.213984      -277.9366
   4   2.0000      -1.104080       -30.0436
   5   2.0000      -0.801614       -21.8130
   6   2.0000      -0.654019       -17.7968
   7   2.0000      -0.529976       -14.4214
   8   2.0000      -0.511607       -13.9215
   9   2.0000      -0.452010       -12.2998
  10   2.0000      -0.423460       -11.5229
  11   2.0000      -0.409937       -11.1550
  12   2.0000      -0.398930       -10.8554
  13   2.0000      -0.288012        -7.8372
  14   2.0000      -0.249988        -6.8025
  15   0.0000      -0.071008        -1.9322
  16   0.0000       0.061064         1.6616
  17   0.0000       0.074276         2.0212
  18   0.0000       0.116802         3.1784
  19   0.0000       0.137524         3.7422

MULLIKEN ATOMIC CHARGES
-----------------------
   0 C :    0.173367
   1 O :   -0.333220
   2 C :   -0.125666
   3 C :   -0.238837
   4 H :    0.039079
   5 H :    0.160835
   6 H :    0.183180
   7 H :    0.141261
Sum of atomic charges:    0.0000000

LOEWDIN ATOMIC CHARGES
----------------------
   0 C :    0.109694
   1 O :   -0.198552
   2 C :   -0.180510
   3 C :   -0.155426
   4 H :    0.022452
   5 H :    0.137504
   6 H :    0.142169
   7 H :    0.122669

  Mayer bond orders larger than 0.100000
B(  0-C ,  1-O ) :   1.8977 B(  0-C ,  2-C ) :   0.9646 B(  0-C ,  4-H ) :   0.8567
B(  2-C ,  3-C ) :   1.8259 B(  2-C ,  5-H ) :   0.9292 B(  3-C ,  6-H ) :   0.9322
B(  3-C ,  7-H ) :   0.9438

-----------------------------------------------------------------------------
         ABSORPTION SPECTRUM VIA TRANSITION ELECTRIC DIPOLE MOMENTS
-----------------------------------------------------------------------------
State   Energy    Wavelength  fosc         T2        TX        TY        TZ
        (cm-1)      (nm)                 (au**2)    (au)      (au)      (au)
-----------------------------------------------------------------------------
   1   27395.4    365.0   0.000298928   0.00359   0.04740  -0.00097   0.03667

FINAL SINGLE POINT ENERGY      -191.577978529589

DIPOLE MOMENT
-------------
                                X             Y             Z
Electronic contribution:     -1.49383      -1.95831       0.00929
Nuclear contribution   :      2.19891       2.86555      -0.03325
                        -----------------------------------------
Total Dipole Moment    :      0.70508       0.90723      -0.02396
                        -----------------------------------------
Magnitude (a.u.)       :      1.14926
Magnitude (Debye)      :      2.92118

Rotational constants in cm-1:     0.730946     0.216839     0.167624
Rotational constants in MHz : 21913.213642  6500.675189  5025.242349

                             ****ORCA TERMINATED NORMALLY****
TOTAL RUN TIME: 0 days 0 hours 1 minutes 1 seconds 476 msec
