                         Program Version 5.0.3 -  RELEASE  -
|  1> ! B3LYP 6-31G
|  2> !TightSCF
|  3> %scf
|  4>  ConvForced true
|  5>  convergence tight
|  6>  MaxIter 500
|  7> end
|  8>
|  9> %tddft
| 10>  nroots 1
| 11> end
| 12>
| 13> # 	6404
| 14> * xyz 0 1
| 15> 		C   -1.210631  -0.339171  -0.027978
| 16> 		O   -1.501477  -1.317523   0.646259
| 17> 		C    0.011263   0.470045   0.203465
| 18> 		C    1.216719   0.093796  -0.134111
| 19> 		H   -1.977535  -0.045353  -0.755708
| 20> 		H    0.032429   1.368086   0.644384
| 21> 		H    1.227006  -0.916014  -0.470421
| 22> 		H    2.153983   0.746916  -0.048986
| 23> *
| 24>
| 25>                          ****END OF INPUT****

CARTESIAN COORDINATES (ANGSTROEM)
---------------------------------
  C     -1.210631   -0.339171   -0.027978
  O     -1.501477   -1.317523    0.646259
  C      0.011263    0.470045    0.203465
  C      1.216719    0.093796   -0.134111
  H     -1.977535   -0.045353   -0.755708
  H      0.032429    1.368086    0.644384
  H      1.227006   -0.916014   -0.470421
  H      2.153983    0.746916   -0.048986

 Total Charge           Charge          ....    0
 Multiplicity           Mult            ....    1
 Number of Electrons    NEL             ....   30
 Basis Dimension        Dim             ....   44

ORBITAL ENERGIES
----------------

  NO   OCC          E(Eh)            E(eV)
   0   2.0000     -19.154617      -521.2236
   1   2.0000     -10.285500      -279.8827
   2   2.0000     -10.198250      -277.5085
   3   2.0000     -10.191384      -277.3217
   4   2.0000      -1.068844       -29.0847
   5   2.0000      -0.810481       -22.0543
   6   2.0000      -0.649906       -17.6848
   7   2.0000      -0.567757       -15.4494
   8   2.0000      -0.523712       -14.2509
   9   2.0000      -0.452335       -12.3087
  10   2.0000      -0.434287       -11.8175
  11   2.0000      -0.394959       -10.7474
  12   2.0000      -0.372758       -10.1433
  13   2.0000      -0.290878        -7.9152
  14   2.0000      -0.256212        -6.9719
  15   0.0000      -0.043020        -1.1706
  16   0.0000       0.003637         0.0990
  17   0.0000       0.109992         2.9930
  18   0.0000       0.130390         3.5481
  19   0.0000       0.159816         4.3488

MULLIKEN ATOMIC CHARGES
-----------------------
   0 C :    0.157789
   1 O :   -0.350804
   2 C :   -0.107482
   3 C :   -0.266069
   4 H :    0.126970
   5 H :    0.148861
   6 H :    0.138551
   7 H :    0.152184
Sum of atomic charges:   -0.0000000

LOEWDIN ATOMIC CHARGES
----------------------
   0 C :    0.128947
   1 O :   -0.226167
   2 C :   -0.178307
   3 C :   -0.193049
   4 H :    0.088966
   5 H :    0.131570
   6 H :    0.118891
   7 H :    0.129151

  Mayer bond orders larger than 0.100000
B(  0-C ,  1-O ) :   1.9186 B(  0-C ,  2-C ) :   0.9209 B(  0-C ,  4-H ) :   0.8866
B(  2-C ,  3-C ) :   1.9403 B(  2-C ,  5-H ) :   0.9368 B(  3-C ,  6-H ) :   0.9582
B(  3-C ,  7-H ) :   0.9436

-----------------------------------------------------------------------------
         ABSORPTION SPECTRUM VIA TRANSITION ELECTRIC DIPOLE MOMENTS
-----------------------------------------------------------------------------
State   Energy    Wavelength  fosc         T2        TX        TY        TZ
        (cm-1)      (nm)                 (au**2)    (au)      (au)      (au)
-----------------------------------------------------------------------------
   1   31138.2    321.1   0.000082135   0.00087  -0.01569   0.02403  -0.00668

FINAL SINGLE POINT ENERGY      -191.567851676129

DIPOLE MOMENT
-------------
                                X             Y             Z
Electronic contribution:     -2.37498      -1.34293       0.79258
Nuclear contribution   :      2.82792       2.21985      -1.26766
                        -----------------------------------------
Total Dipole Moment    :      0.45294       0.87692      -0.47508
                        -----------------------------------------
Magnitude (a.u.)       :      1.09538
Magnitude (Debye)      :      2.78423

Rotational constants in cm-1:     0.974102     0.175343     0.160132
Rotational constants in MHz : 29202.835660  5256.655432  4800.623744

                             ****ORCA TERMINATED NORMALLY****
TOTAL RUN TIME: 0 days 0 hours 1 minutes 1 seconds 657 msec
