                         Program Version 5.0.3 -  RELEASE  -
|  1> ! B3LYP 6-31G
|  2> !TightSCF
|  3> %scf
|  4>  ConvForced true
|  5>  convergence tight
|  6>  MaxIter 500
|  7> end
|  8>
|  9> %tddft
| 10>  nroots 1
| 11> end
| 12>
| 13> # 	2058
| 14> * xyz 0 1
| 15> 		C   -1.187537  -0.311933  -0.040068
| 16> 		O   -2.164202  -0.420555  -0.828609
| 17> 		C    0.086314   0.373441  -0.387152
| 18> 		C    1.222414   0.110576   0.194867
| 19> 		H   -1.256083  -0.833885   0.986153
| 20> 		H   -0.139865   0.996590  -1.096101
| 21> 		H    1.201285  -0.598421   1.168029
| 22> 		H    2.200260   0.689998  -0.007564
| 23> *
| 24>
| 25>                          ****END OF INPUT****

CARTESIAN COORDINATES (ANGSTROEM)
---------------------------------
  C     -1.187537   -0.311933   -0.040068
  O     -2.164202   -0.420555   -0.828609
  C      0.086314    0.373441   -0.387152
  C      1.222414    0.110576    0.194867
  H     -1.256083   -0.833885    0.986153
  H     -0.139865    0.996590   -1.096101
  H      1.201285   -0.598421    1.168029
  H      2.200260    0.689998   -0.007564

 Total Charge           Charge          ....    0
 Multiplicity           Mult            ....    1
 Number of Electrons    NEL             ....   30
 Basis Dimension        Dim             ....   44

ORBITAL ENERGIES
----------------

  NO   OCC          E(Eh)            E(eV)
   0   2.0000     -19.153903      -521.2042
   1   2.0000     -10.285415      -279.8804
   2   2.0000     -10.230372      -278.3826
   3   2.0000     -10.199346      -277.5383
   4   2.0000      -1.044121       -28.4120
   5   2.0000      -0.815686       -22.1959
   6   2.0000      -0.650504       -17.7011
   7   2.0000      -0.580649       -15.8003
   8   2.0000      -0.481590       -13.1047
   9   2.0000      -0.470216       -12.7952
  10   2.0000      -0.421064       -11.4577
  11   2.0000      -0.390685       -10.6311
  12   2.0000      -0.380787       -10.3617
  13   2.0000      -0.299192        -8.1414
  14   2.0000      -0.257270        -7.0007
  15   0.0000      -0.070538        -1.9194
  16   0.0000       0.043272         1.1775
  17   0.0000       0.082481         2.2444
  18   0.0000       0.113050         3.0763
  19   0.0000       0.128512         3.4970

MULLIKEN ATOMIC CHARGES
-----------------------
   0 C :    0.176877
   1 O :   -0.396150
   2 C :   -0.046083
   3 C :   -0.286860
   4 H :    0.107256
   5 H :    0.149313
   6 H :    0.139674
   7 H :    0.155973
Sum of atomic charges:    0.0000000

LOEWDIN ATOMIC CHARGES
----------------------
   0 C :    0.123199
   1 O :   -0.253676
   2 C :   -0.168786
   3 C :   -0.160876
   4 H :    0.077295
   5 H :    0.129051
   6 H :    0.121453
   7 H :    0.132341

  Mayer bond orders larger than 0.100000
B(  0-C ,  1-O ) :   1.8245 B(  0-C ,  2-C ) :   0.9938 B(  0-C ,  4-H ) :   0.8770
B(  2-C ,  3-C ) :   1.8447 B(  2-C ,  5-H ) :   0.9311 B(  3-C ,  6-H ) :   0.9409
B(  3-C ,  7-H ) :   0.9354

-----------------------------------------------------------------------------
         ABSORPTION SPECTRUM VIA TRANSITION ELECTRIC DIPOLE MOMENTS
-----------------------------------------------------------------------------
State   Energy    Wavelength  fosc         T2        TX        TY        TZ
        (cm-1)      (nm)                 (au**2)    (au)      (au)      (au)
-----------------------------------------------------------------------------
   1   27444.5    364.4   0.000179505   0.00215  -0.03155   0.02983  -0.01637

FINAL SINGLE POINT ENERGY      -191.589175178931

DIPOLE MOMENT
-------------
                                X             Y             Z
Electronic contribution:     -2.80455      -0.24804      -1.37020
Nuclear contribution   :      3.94273       0.52837       1.98056
                        -----------------------------------------
Total Dipole Moment    :      1.13818       0.28034       0.61037
                        -----------------------------------------
Magnitude (a.u.)       :      1.32158
Magnitude (Debye)      :      3.35920

Rotational constants in cm-1:     1.530518     0.151574     0.139846
Rotational constants in MHz : 45883.765001  4544.085964  4192.463042

                             ****ORCA TERMINATED NORMALLY****
TOTAL RUN TIME: 0 days 0 hours 1 minutes 1 seconds 531 msec
