                         Program Version 5.0.3 -  RELEASE  -
|  1> ! B3LYP 6-31G
|  2> !TightSCF
|  3> %scf
|  4>  ConvForced true
|  5>  convergence tight
|  6>  MaxIter 500
|  7> end
|  8>
|  9> %tddft
| 10>  nroots 1
| 11> end
| 12>
| 13> # 	14961
| 14> * xyz 0 1
| 15> 		C   -1.159351  -0.326548  -0.014155
| 16> 		O   -1.124044  -1.526697  -0.137299
| 17> 		C    0.025450   0.570473  -0.048118
| 18> 		C    1.202821  -0.084343   0.066853
| 19> 		H   -2.211992   0.382486   0.131354
| 20> 		H   -0.050914   1.575281  -0.057299
| 21> 		H    1.256570  -1.193592   0.022420
| 22> 		H    2.117695   0.557609   0.002279
| 23> *
| 24>
| 25>                          ****END OF INPUT****

CARTESIAN COORDINATES (ANGSTROEM)
---------------------------------
  C     -1.159351   -0.326548   -0.014155
  O     -1.124044   -1.526697   -0.137299
  C      0.025450    0.570473   -0.048118
  C      1.202821   -0.084343    0.066853
  H     -2.211992    0.382486    0.131354
  H     -0.050914    1.575281   -0.057299
  H      1.256570   -1.193592    0.022420
  H      2.117695    0.557609    0.002279

 Total Charge           Charge          ....    0
 Multiplicity           Mult            ....    1
 Number of Electrons    NEL             ....   30
 Basis Dimension        Dim             ....   44

ORBITAL ENERGIES
----------------

  NO   OCC          E(Eh)            E(eV)
   0   2.0000     -19.157871      -521.3122
   1   2.0000     -10.292790      -280.0810
   2   2.0000     -10.214927      -277.9623
   3   2.0000     -10.199703      -277.5480
   4   2.0000      -1.078565       -29.3492
   5   2.0000      -0.802645       -21.8411
   6   2.0000      -0.647855       -17.6290
   7   2.0000      -0.547279       -14.8922
   8   2.0000      -0.505454       -13.7541
   9   2.0000      -0.450211       -12.2509
  10   2.0000      -0.417615       -11.3639
  11   2.0000      -0.406007       -11.0480
  12   2.0000      -0.392730       -10.6867
  13   2.0000      -0.288363        -7.8467
  14   2.0000      -0.257450        -7.0056
  15   0.0000      -0.069055        -1.8791
  16   0.0000       0.055011         1.4969
  17   0.0000       0.083198         2.2639
  18   0.0000       0.112673         3.0660
  19   0.0000       0.153786         4.1847

MULLIKEN ATOMIC CHARGES
-----------------------
   0 C :    0.207116
   1 O :   -0.379539
   2 C :   -0.101498
   3 C :   -0.255950
   4 H :    0.066029
   5 H :    0.138215
   6 H :    0.185799
   7 H :    0.139828
Sum of atomic charges:    0.0000000

LOEWDIN ATOMIC CHARGES
----------------------
   0 C :    0.125691
   1 O :   -0.223831
   2 C :   -0.190168
   3 C :   -0.149244
   4 H :    0.044917
   5 H :    0.125082
   6 H :    0.144870
   7 H :    0.122683

  Mayer bond orders larger than 0.100000
B(  0-C ,  1-O ) :   1.8494 B(  0-C ,  2-C ) :   0.9767 B(  0-C ,  4-H ) :   0.8464
B(  2-C ,  3-C ) :   1.8492 B(  2-C ,  5-H ) :   0.9371 B(  3-C ,  6-H ) :   0.9241
B(  3-C ,  7-H ) :   0.9433

-----------------------------------------------------------------------------
         ABSORPTION SPECTRUM VIA TRANSITION ELECTRIC DIPOLE MOMENTS
-----------------------------------------------------------------------------
State   Energy    Wavelength  fosc         T2        TX        TY        TZ
        (cm-1)      (nm)                 (au**2)    (au)      (au)      (au)
-----------------------------------------------------------------------------
   1   28718.0    348.2   0.000397280   0.00455  -0.05098   0.00904  -0.04329

FINAL SINGLE POINT ENERGY      -191.587515115009

DIPOLE MOMENT
-------------
                                X             Y             Z
Electronic contribution:     -1.56537      -1.67902      -0.16277
Nuclear contribution   :      2.10361       2.64055       0.22785
                        -----------------------------------------
Total Dipole Moment    :      0.53824       0.96153       0.06508
                        -----------------------------------------
Magnitude (a.u.)       :      1.10384
Magnitude (Debye)      :      2.80575

Rotational constants in cm-1:     0.707368     0.222297     0.169702
Rotational constants in MHz : 21206.362948  6664.305908  5087.542247

                             ****ORCA TERMINATED NORMALLY****
TOTAL RUN TIME: 0 days 0 hours 0 minutes 57 seconds 962 msec
