                         Program Version 5.0.3 -  RELEASE  -
|  1> ! B3LYP 6-31G
|  2> !TightSCF
|  3> %scf
|  4>  ConvForced true
|  5>  convergence tight
|  6>  MaxIter 500
|  7> end
|  8>
|  9> %tddft
| 10>  nroots 1
| 11> end
| 12>
| 13> # 	52
| 14> * xyz 0 1
| 15> 		C   -1.226384  -0.370807  -0.015343
| 16> 		O   -1.858725  -0.706573  -0.933948
| 17> 		C   -0.011273   0.446414  -0.212753
| 18> 		C    1.187302   0.032214   0.182645
| 19> 		H   -1.356585  -0.770011   0.935113
| 20> 		H   -0.047839   1.407552  -0.810014
| 21> 		H    1.353646  -0.874286   0.782650
| 22> 		H    2.013025   0.800748   0.002590
| 23> *
| 24>
| 25>                          ****END OF INPUT****

CARTESIAN COORDINATES (ANGSTROEM)
---------------------------------
  C     -1.226384   -0.370807   -0.015343
  O     -1.858725   -0.706573   -0.933948
  C     -0.011273    0.446414   -0.212753
  C      1.187302    0.032214    0.182645
  H     -1.356585   -0.770011    0.935113
  H     -0.047839    1.407552   -0.810014
  H      1.353646   -0.874286    0.782650
  H      2.013025    0.800748    0.002590

 Total Charge           Charge          ....    0
 Multiplicity           Mult            ....    1
 Number of Electrons    NEL             ....   30
 Basis Dimension        Dim             ....   44

ORBITAL ENERGIES
----------------

  NO   OCC          E(Eh)            E(eV)
   0   2.0000     -19.151840      -521.1480
   1   2.0000     -10.273419      -279.5539
   2   2.0000     -10.205261      -277.6993
   3   2.0000     -10.200303      -277.5644
   4   2.0000      -1.103889       -30.0383
   5   2.0000      -0.799545       -21.7567
   6   2.0000      -0.646449       -17.5908
   7   2.0000      -0.576385       -15.6842
   8   2.0000      -0.500268       -13.6130
   9   2.0000      -0.461178       -12.5493
  10   2.0000      -0.436279       -11.8718
  11   2.0000      -0.401980       -10.9384
  12   2.0000      -0.383577       -10.4377
  13   2.0000      -0.287301        -7.8179
  14   2.0000      -0.254339        -6.9209
  15   0.0000      -0.045771        -1.2455
  16   0.0000       0.028937         0.7874
  17   0.0000       0.104016         2.8304
  18   0.0000       0.120920         3.2904
  19   0.0000       0.155616         4.2345

MULLIKEN ATOMIC CHARGES
-----------------------
   0 C :    0.163213
   1 O :   -0.319612
   2 C :   -0.123105
   3 C :   -0.275879
   4 H :    0.110930
   5 H :    0.158969
   6 H :    0.144803
   7 H :    0.140681
Sum of atomic charges:    0.0000000

LOEWDIN ATOMIC CHARGES
----------------------
   0 C :    0.109497
   1 O :   -0.189809
   2 C :   -0.168492
   3 C :   -0.207297
   4 H :    0.075381
   5 H :    0.132749
   6 H :    0.121820
   7 H :    0.126151

  Mayer bond orders larger than 0.100000
B(  0-C ,  1-O ) :   1.9173 B(  0-C ,  2-C ) :   0.9527 B(  0-C ,  4-H ) :   0.8828
B(  2-C ,  3-C ) :   1.8967 B(  2-C ,  5-H ) :   0.9304 B(  3-C ,  6-H ) :   0.9466
B(  3-C ,  7-H ) :   0.9464

-----------------------------------------------------------------------------
         ABSORPTION SPECTRUM VIA TRANSITION ELECTRIC DIPOLE MOMENTS
-----------------------------------------------------------------------------
State   Energy    Wavelength  fosc         T2        TX        TY        TZ
        (cm-1)      (nm)                 (au**2)    (au)      (au)      (au)
-----------------------------------------------------------------------------
   1   32061.0    311.9   0.000973393   0.01000   0.08697   0.00035   0.04930

FINAL SINGLE POINT ENERGY      -191.568510140256

DIPOLE MOMENT
-------------
                                X             Y             Z
Electronic contribution:     -3.02963      -0.79785      -1.11457
Nuclear contribution   :      3.71954       1.15311       1.81938
                        -----------------------------------------
Total Dipole Moment    :      0.68991       0.35526       0.70482
                        -----------------------------------------
Magnitude (a.u.)       :      1.04831
Magnitude (Debye)      :      2.66460

Rotational constants in cm-1:     1.204275     0.165135     0.157807
Rotational constants in MHz : 36103.265518  4950.608874  4730.936099

                             ****ORCA TERMINATED NORMALLY****
TOTAL RUN TIME: 0 days 0 hours 1 minutes 1 seconds 316 msec
