                         Program Version 5.0.3 -  RELEASE  -
|  1> ! B3LYP 6-31G
|  2> !TightSCF
|  3> %scf
|  4>  ConvForced true
|  5>  convergence tight
|  6>  MaxIter 500
|  7> end
|  8>
|  9> %tddft
| 10>  nroots 1
| 11> end
| 12>
| 13> # 	6900
| 14> * xyz 0 1
| 15> 		C   -1.231225  -0.317226   0.004418
| 16> 		O   -1.149561  -1.509434   0.040058
| 17> 		C   -0.036768   0.521084   0.058792
| 18> 		C    1.230662  -0.023081  -0.019643
| 19> 		H   -2.070145   0.388470  -0.262135
| 20> 		H   -0.237680   1.539523   0.147095
| 21> 		H    1.226241  -1.150956   0.093296
| 22> 		H    2.240608   0.536051   0.010338
| 23> *
| 24>
| 25>                          ****END OF INPUT****

CARTESIAN COORDINATES (ANGSTROEM)
---------------------------------
  C     -1.231225   -0.317226    0.004418
  O     -1.149561   -1.509434    0.040058
  C     -0.036768    0.521084    0.058792
  C      1.230662   -0.023081   -0.019643
  H     -2.070145    0.388470   -0.262135
  H     -0.237680    1.539523    0.147095
  H      1.226241   -1.150956    0.093296
  H      2.240608    0.536051    0.010338

 Total Charge           Charge          ....    0
 Multiplicity           Mult            ....    1
 Number of Electrons    NEL             ....   30
 Basis Dimension        Dim             ....   44

ORBITAL ENERGIES
----------------

  NO   OCC          E(Eh)            E(eV)
   0   2.0000     -19.152812      -521.1745
   1   2.0000     -10.278372      -279.6887
   2   2.0000     -10.220923      -278.1255
   3   2.0000     -10.196531      -277.4617
   4   2.0000      -1.082505       -29.4564
   5   2.0000      -0.789944       -21.4955
   6   2.0000      -0.663646       -18.0587
   7   2.0000      -0.537912       -14.6373
   8   2.0000      -0.509963       -13.8768
   9   2.0000      -0.445756       -12.1296
  10   2.0000      -0.429811       -11.6957
  11   2.0000      -0.407822       -11.0974
  12   2.0000      -0.378059       -10.2875
  13   2.0000      -0.278119        -7.5680
  14   2.0000      -0.257927        -7.0186
  15   0.0000      -0.072484        -1.9724
  16   0.0000       0.057210         1.5568
  17   0.0000       0.100677         2.7395
  18   0.0000       0.113047         3.0762
  19   0.0000       0.167774         4.5654

MULLIKEN ATOMIC CHARGES
-----------------------
   0 C :    0.195010
   1 O :   -0.372723
   2 C :   -0.128236
   3 C :   -0.254937
   4 H :    0.109117
   5 H :    0.126603
   6 H :    0.172266
   7 H :    0.152899
Sum of atomic charges:   -0.0000000

LOEWDIN ATOMIC CHARGES
----------------------
   0 C :    0.105272
   1 O :   -0.215247
   2 C :   -0.194758
   3 C :   -0.155017
   4 H :    0.075464
   5 H :    0.115244
   6 H :    0.138332
   7 H :    0.130711

  Mayer bond orders larger than 0.100000
B(  0-C ,  1-O ) :   1.8555 B(  0-C ,  2-C ) :   0.9985 B(  0-C ,  4-H ) :   0.8644
B(  2-C ,  3-C ) :   1.8571 B(  2-C ,  5-H ) :   0.9335 B(  3-C ,  6-H ) :   0.9243
B(  3-C ,  7-H ) :   0.9361

-----------------------------------------------------------------------------
         ABSORPTION SPECTRUM VIA TRANSITION ELECTRIC DIPOLE MOMENTS
-----------------------------------------------------------------------------
State   Energy    Wavelength  fosc         T2        TX        TY        TZ
        (cm-1)      (nm)                 (au**2)    (au)      (au)      (au)
-----------------------------------------------------------------------------
   1   27807.4    359.6   0.000068854   0.00082   0.00092  -0.01013   0.02668

FINAL SINGLE POINT ENERGY      -191.593818892118

DIPOLE MOMENT
-------------
                                X             Y             Z
Electronic contribution:     -1.87297      -1.63108       0.09092
Nuclear contribution   :      2.25792       2.59757      -0.08757
                        -----------------------------------------
Total Dipole Moment    :      0.38495       0.96648       0.00335
                        -----------------------------------------
Magnitude (a.u.)       :      1.04033
Magnitude (Debye)      :      2.64432

Rotational constants in cm-1:     0.726217     0.217495     0.167861
Rotational constants in MHz : 21771.439981  6520.338672  5032.361108

                             ****ORCA TERMINATED NORMALLY****
TOTAL RUN TIME: 0 days 0 hours 1 minutes 0 seconds 438 msec
