                         Program Version 5.0.3 -  RELEASE  -
|  1> ! B3LYP 6-31G
|  2> !TightSCF
|  3> %scf
|  4>  ConvForced true
|  5>  convergence tight
|  6>  MaxIter 500
|  7> end
|  8>
|  9> %tddft
| 10>  nroots 1
| 11> end
| 12>
| 13> # 	31293
| 14> * xyz 0 1
| 15> 		C   -0.571165  -0.452534   0.008843
| 16> 		O   -0.582172  -1.635609   0.002710
| 17> 		C    0.625176   0.419301  -0.006306
| 18> 		C    1.841882  -0.120829   0.020223
| 19> 		H   -1.564467   0.183518  -0.054575
| 20> 		H    0.656815   1.599359  -0.063740
| 21> 		H    1.932495  -1.286233  -0.242481
| 22> 		H    2.631897   0.553846   0.050859
| 23> *
| 24>
| 25>                          ****END OF INPUT****

CARTESIAN COORDINATES (ANGSTROEM)
---------------------------------
  C     -0.571165   -0.452534    0.008843
  O     -0.582172   -1.635609    0.002710
  C      0.625176    0.419301   -0.006306
  C      1.841882   -0.120829    0.020223
  H     -1.564467    0.183518   -0.054575
  H      0.656815    1.599359   -0.063740
  H      1.932495   -1.286233   -0.242481
  H      2.631897    0.553846    0.050859

 Total Charge           Charge          ....    0
 Multiplicity           Mult            ....    1
 Number of Electrons    NEL             ....   30
 Basis Dimension        Dim             ....   44

ORBITAL ENERGIES
----------------

  NO   OCC          E(Eh)            E(eV)
   0   2.0000     -19.156071      -521.2632
   1   2.0000     -10.286116      -279.8995
   2   2.0000     -10.210430      -277.8399
   3   2.0000     -10.208814      -277.7960
   4   2.0000      -1.092452       -29.7271
   5   2.0000      -0.801750       -21.8167
   6   2.0000      -0.652216       -17.7477
   7   2.0000      -0.527842       -14.3633
   8   2.0000      -0.513807       -13.9814
   9   2.0000      -0.444403       -12.0928
  10   2.0000      -0.426863       -11.6155
  11   2.0000      -0.416445       -11.3320
  12   2.0000      -0.375253       -10.2112
  13   2.0000      -0.288594        -7.8531
  14   2.0000      -0.258446        -7.0327
  15   0.0000      -0.066796        -1.8176
  16   0.0000       0.064006         1.7417
  17   0.0000       0.084460         2.2983
  18   0.0000       0.106436         2.8963
  19   0.0000       0.137499         3.7416

MULLIKEN ATOMIC CHARGES
-----------------------
   0 C :    0.184569
   1 O :   -0.351261
   2 C :   -0.139231
   3 C :   -0.237612
   4 H :    0.082779
   5 H :    0.148735
   6 H :    0.174175
   7 H :    0.137846
Sum of atomic charges:    0.0000000

LOEWDIN ATOMIC CHARGES
----------------------
   0 C :    0.116461
   1 O :   -0.209053
   2 C :   -0.193532
   3 C :   -0.163172
   4 H :    0.057260
   5 H :    0.126428
   6 H :    0.142220
   7 H :    0.123387

  Mayer bond orders larger than 0.100000
B(  0-C ,  1-O ) :   1.8831 B(  0-C ,  2-C ) :   0.9669 B(  0-C ,  4-H ) :   0.8656
B(  2-C ,  3-C ) :   1.8456 B(  2-C ,  5-H ) :   0.9333 B(  3-C ,  6-H ) :   0.9335
B(  3-C ,  7-H ) :   0.9425

-----------------------------------------------------------------------------
         ABSORPTION SPECTRUM VIA TRANSITION ELECTRIC DIPOLE MOMENTS
-----------------------------------------------------------------------------
State   Energy    Wavelength  fosc         T2        TX        TY        TZ
        (cm-1)      (nm)                 (au**2)    (au)      (au)      (au)
-----------------------------------------------------------------------------
   1   29289.1    341.4   0.000189063   0.00213  -0.02548   0.01184  -0.03655

FINAL SINGLE POINT ENERGY      -191.579382198063

DIPOLE MOMENT
-------------
                                X             Y             Z
Electronic contribution:     -1.76341      -1.80696       0.20836
Nuclear contribution   :      2.27002       2.77304      -0.29103
                        -----------------------------------------
Total Dipole Moment    :      0.50661       0.96608      -0.08266
                        -----------------------------------------
Magnitude (a.u.)       :      1.09399
Magnitude (Debye)      :      2.78069

Rotational constants in cm-1:     0.769864     0.209111     0.164686
Rotational constants in MHz : 23079.945718  6268.982256  4937.174030

                             ****ORCA TERMINATED NORMALLY****
TOTAL RUN TIME: 0 days 0 hours 1 minutes 1 seconds 481 msec
