                         Program Version 5.0.3 -  RELEASE  -
|  1> ! B3LYP 6-31G
|  2> !TightSCF
|  3> %scf
|  4>  ConvForced true
|  5>  convergence tight
|  6>  MaxIter 500
|  7> end
|  8>
|  9> %tddft
| 10>  nroots 1
| 11> end
| 12>
| 13> # 	32177
| 14> * xyz 0 1
| 15> 		C   -0.653478  -0.422840  -0.085358
| 16> 		O   -0.537413  -1.575679   0.039875
| 17> 		C    0.626530   0.342924   0.056626
| 18> 		C    1.855340  -0.116337  -0.016238
| 19> 		H   -1.681891   0.185938  -0.058388
| 20> 		H    0.282406   1.406669   0.156492
| 21> 		H    2.187747  -1.267570  -0.095069
| 22> 		H    2.838282   0.331352  -0.095249
| 23> *
| 24>
| 25>                          ****END OF INPUT****

CARTESIAN COORDINATES (ANGSTROEM)
---------------------------------
  C     -0.653478   -0.422840   -0.085358
  O     -0.537413   -1.575679    0.039875
  C      0.626530    0.342924    0.056626
  C      1.855340   -0.116337   -0.016238
  H     -1.681891    0.185938   -0.058388
  H      0.282406    1.406669    0.156492
  H      2.187747   -1.267570   -0.095069
  H      2.838282    0.331352   -0.095249

 Total Charge           Charge          ....    0
 Multiplicity           Mult            ....    1
 Number of Electrons    NEL             ....   30
 Basis Dimension        Dim             ....   44

ORBITAL ENERGIES
----------------

  NO   OCC          E(Eh)            E(eV)
   0   2.0000     -19.151828      -521.1477
   1   2.0000     -10.285625      -279.8861
   2   2.0000     -10.212701      -277.9017
   3   2.0000     -10.203604      -277.6542
   4   2.0000      -1.105139       -30.0724
   5   2.0000      -0.787969       -21.4417
   6   2.0000      -0.654724       -17.8159
   7   2.0000      -0.546358       -14.8672
   8   2.0000      -0.494182       -13.4474
   9   2.0000      -0.467194       -12.7130
  10   2.0000      -0.428927       -11.6717
  11   2.0000      -0.422036       -11.4842
  12   2.0000      -0.351777        -9.5723
  13   2.0000      -0.287642        -7.8271
  14   2.0000      -0.251305        -6.8384
  15   0.0000      -0.061415        -1.6712
  16   0.0000       0.063190         1.7195
  17   0.0000       0.075740         2.0610
  18   0.0000       0.115855         3.1526
  19   0.0000       0.143373         3.9014

MULLIKEN ATOMIC CHARGES
-----------------------
   0 C :    0.178042
   1 O :   -0.322586
   2 C :   -0.120416
   3 C :   -0.278021
   4 H :    0.103888
   5 H :    0.122204
   6 H :    0.152938
   7 H :    0.163951
Sum of atomic charges:   -0.0000000

LOEWDIN ATOMIC CHARGES
----------------------
   0 C :    0.103093
   1 O :   -0.192447
   2 C :   -0.174596
   3 C :   -0.173039
   4 H :    0.072399
   5 H :    0.111412
   6 H :    0.124985
   7 H :    0.128194

  Mayer bond orders larger than 0.100000
B(  0-C ,  1-O ) :   1.9068 B(  0-C ,  2-C ) :   0.9569 B(  0-C ,  4-H ) :   0.8488
B(  2-C ,  3-C ) :   1.9384 B(  2-C ,  5-H ) :   0.9200 B(  3-C ,  6-H ) :   0.9275
B(  3-C ,  7-H ) :   0.9268

-----------------------------------------------------------------------------
         ABSORPTION SPECTRUM VIA TRANSITION ELECTRIC DIPOLE MOMENTS
-----------------------------------------------------------------------------
State   Energy    Wavelength  fosc         T2        TX        TY        TZ
        (cm-1)      (nm)                 (au**2)    (au)      (au)      (au)
-----------------------------------------------------------------------------
   1   28786.8    347.4   0.000140355   0.00161  -0.03315   0.02111   0.00776

FINAL SINGLE POINT ENERGY      -191.565818886630

DIPOLE MOMENT
-------------
                                X             Y             Z
Electronic contribution:     -1.93903      -1.57411      -0.00713
Nuclear contribution   :      2.25076       2.40051      -0.08625
                        -----------------------------------------
Total Dipole Moment    :      0.31173       0.82640      -0.09338
                        -----------------------------------------
Magnitude (a.u.)       :      0.88816
Magnitude (Debye)      :      2.25753

Rotational constants in cm-1:     0.755565     0.213649     0.167217
Rotational constants in MHz : 22651.263728  6405.023303  5013.035581

                             ****ORCA TERMINATED NORMALLY****
TOTAL RUN TIME: 0 days 0 hours 0 minutes 57 seconds 291 msec
