                         Program Version 5.0.3 -  RELEASE  -
|  1> ! B3LYP 6-31G
|  2> !TightSCF
|  3> %scf
|  4>  ConvForced true
|  5>  convergence tight
|  6>  MaxIter 500
|  7> end
|  8>
|  9> %tddft
| 10>  nroots 1
| 11> end
| 12>
| 13> # 	1637
| 14> * xyz 0 1
| 15> 		C   -1.136716  -0.406298  -0.028259
| 16> 		O   -2.076278  -0.563775  -0.879523
| 17> 		C    0.021035   0.410412  -0.331609
| 18> 		C    1.178383   0.102835   0.246857
| 19> 		H   -1.415370  -0.875227   1.019693
| 20> 		H   -0.025806   1.340073  -0.996192
| 21> 		H    1.367219  -0.710330   0.942794
| 22> 		H    2.070183   0.683786   0.097500
| 23> *
| 24>
| 25>                          ****END OF INPUT****

CARTESIAN COORDINATES (ANGSTROEM)
---------------------------------
  C     -1.136716   -0.406298   -0.028259
  O     -2.076278   -0.563775   -0.879523
  C      0.021035    0.410412   -0.331609
  C      1.178383    0.102835    0.246857
  H     -1.415370   -0.875227    1.019693
  H     -0.025806    1.340073   -0.996192
  H      1.367219   -0.710330    0.942794
  H      2.070183    0.683786    0.097500

 Total Charge           Charge          ....    0
 Multiplicity           Mult            ....    1
 Number of Electrons    NEL             ....   30
 Basis Dimension        Dim             ....   44

ORBITAL ENERGIES
----------------

  NO   OCC          E(Eh)            E(eV)
   0   2.0000     -19.143852      -520.9307
   1   2.0000     -10.284897      -279.8663
   2   2.0000     -10.217887      -278.0428
   3   2.0000     -10.211173      -277.8601
   4   2.0000      -1.028860       -27.9967
   5   2.0000      -0.811998       -22.0956
   6   2.0000      -0.651858       -17.7380
   7   2.0000      -0.565691       -15.3932
   8   2.0000      -0.488405       -13.2902
   9   2.0000      -0.475319       -12.9341
  10   2.0000      -0.412976       -11.2377
  11   2.0000      -0.389444       -10.5973
  12   2.0000      -0.369890       -10.0652
  13   2.0000      -0.291741        -7.9387
  14   2.0000      -0.250621        -6.8198
  15   0.0000      -0.068899        -1.8748
  16   0.0000       0.023025         0.6265
  17   0.0000       0.101427         2.7600
  18   0.0000       0.118187         3.2160
  19   0.0000       0.127477         3.4688

MULLIKEN ATOMIC CHARGES
-----------------------
   0 C :    0.160941
   1 O :   -0.403281
   2 C :   -0.097174
   3 C :   -0.269805
   4 H :    0.130880
   5 H :    0.176797
   6 H :    0.154468
   7 H :    0.147173
Sum of atomic charges:   -0.0000000

LOEWDIN ATOMIC CHARGES
----------------------
   0 C :    0.110591
   1 O :   -0.270383
   2 C :   -0.144454
   3 C :   -0.184341
   4 H :    0.098320
   5 H :    0.145845
   6 H :    0.123167
   7 H :    0.121255

  Mayer bond orders larger than 0.100000
B(  0-C ,  1-O ) :   1.8020 B(  0-C ,  2-C ) :   1.0094 B(  0-C ,  4-H ) :   0.8902
B(  2-C ,  3-C ) :   1.8418 B(  2-C ,  5-H ) :   0.9277 B(  3-C ,  6-H ) :   0.9446
B(  3-C ,  7-H ) :   0.9404

-----------------------------------------------------------------------------
         ABSORPTION SPECTRUM VIA TRANSITION ELECTRIC DIPOLE MOMENTS
-----------------------------------------------------------------------------
State   Energy    Wavelength  fosc         T2        TX        TY        TZ
        (cm-1)      (nm)                 (au**2)    (au)      (au)      (au)
-----------------------------------------------------------------------------
   1   26095.7    383.2   0.000448578   0.00566   0.07510   0.00232  -0.00370

FINAL SINGLE POINT ENERGY      -191.607330762685

DIPOLE MOMENT
-------------
                                X             Y             Z
Electronic contribution:     -2.74034      -0.55918      -1.24119
Nuclear contribution   :      3.88855       0.89299       1.94978
                        -----------------------------------------
Total Dipole Moment    :      1.14821       0.33381       0.70859
                        -----------------------------------------
Magnitude (a.u.)       :      1.38993
Magnitude (Debye)      :      3.53292

Rotational constants in cm-1:     1.354308     0.156593     0.144443
Rotational constants in MHz : 40601.128615  4694.541454  4330.288924

                             ****ORCA TERMINATED NORMALLY****
TOTAL RUN TIME: 0 days 0 hours 1 minutes 1 seconds 133 msec
