                         Program Version 5.0.3 -  RELEASE  -
|  1> ! B3LYP 6-31G
|  2> !TightSCF
|  3> %scf
|  4>  ConvForced true
|  5>  convergence tight
|  6>  MaxIter 500
|  7> end
|  8>
|  9> %tddft
| 10>  nroots 1
| 11> end
| 12>
| 13> # 	19069
| 14> * xyz 0 1
| 15> 		C   -1.232965  -0.337327   0.034408
| 16> 		O   -1.576629  -1.313863   0.670609
| 17> 		C   -0.020553   0.410331   0.395721
| 18> 		C    1.192165  -0.013267  -0.115328
| 19> 		H   -1.735050  -0.000204  -0.980197
| 20> 		H   -0.135883   1.429164   0.825149
| 21> 		H    1.331670  -0.826995  -0.707324
| 22> 		H    2.128322   0.566186  -0.103213
| 23> *
| 24>
| 25>                          ****END OF INPUT****

CARTESIAN COORDINATES (ANGSTROEM)
---------------------------------
  C     -1.232965   -0.337327    0.034408
  O     -1.576629   -1.313863    0.670609
  C     -0.020553    0.410331    0.395721
  C      1.192165   -0.013267   -0.115328
  H     -1.735050   -0.000204   -0.980197
  H     -0.135883    1.429164    0.825149
  H      1.331670   -0.826995   -0.707324
  H      2.128322    0.566186   -0.103213

 Total Charge           Charge          ....    0
 Multiplicity           Mult            ....    1
 Number of Electrons    NEL             ....   30
 Basis Dimension        Dim             ....   44

ORBITAL ENERGIES
----------------

  NO   OCC          E(Eh)            E(eV)
   0   2.0000     -19.158731      -521.3356
   1   2.0000     -10.291231      -280.0386
   2   2.0000     -10.213909      -277.9346
   3   2.0000     -10.201924      -277.6085
   4   2.0000      -1.075351       -29.2618
   5   2.0000      -0.792964       -21.5777
   6   2.0000      -0.657675       -17.8962
   7   2.0000      -0.559585       -15.2271
   8   2.0000      -0.497110       -13.5271
   9   2.0000      -0.465453       -12.6656
  10   2.0000      -0.440779       -11.9942
  11   2.0000      -0.393395       -10.7048
  12   2.0000      -0.378548       -10.3008
  13   2.0000      -0.278117        -7.5679
  14   2.0000      -0.257725        -7.0131
  15   0.0000      -0.037831        -1.0294
  16   0.0000      -0.020033        -0.5451
  17   0.0000       0.112169         3.0523
  18   0.0000       0.117796         3.2054
  19   0.0000       0.143576         3.9069

MULLIKEN ATOMIC CHARGES
-----------------------
   0 C :    0.166255
   1 O :   -0.348327
   2 C :   -0.119592
   3 C :   -0.264421
   4 H :    0.113661
   5 H :    0.159952
   6 H :    0.147652
   7 H :    0.144819
Sum of atomic charges:    0.0000000

LOEWDIN ATOMIC CHARGES
----------------------
   0 C :    0.119632
   1 O :   -0.212657
   2 C :   -0.153486
   3 C :   -0.204834
   4 H :    0.078060
   5 H :    0.135908
   6 H :    0.116710
   7 H :    0.120669

  Mayer bond orders larger than 0.100000
B(  0-C ,  1-O ) :   1.9029 B(  0-C ,  2-C ) :   0.9328 B(  0-C ,  4-H ) :   0.8525
B(  2-C ,  3-C ) :   1.9436 B(  2-C ,  5-H ) :   0.9230 B(  3-C ,  6-H ) :   0.9449
B(  3-C ,  7-H ) :   0.9457

-----------------------------------------------------------------------------
         ABSORPTION SPECTRUM VIA TRANSITION ELECTRIC DIPOLE MOMENTS
-----------------------------------------------------------------------------
State   Energy    Wavelength  fosc         T2        TX        TY        TZ
        (cm-1)      (nm)                 (au**2)    (au)      (au)      (au)
-----------------------------------------------------------------------------
   1   32532.5    307.4   0.000161825   0.00164  -0.02658  -0.00000  -0.03052

FINAL SINGLE POINT ENERGY      -191.565971299556

DIPOLE MOMENT
-------------
                                X             Y             Z
Electronic contribution:     -2.57980      -1.48745       1.23055
Nuclear contribution   :      3.10446       2.36173      -1.80565
                        -----------------------------------------
Total Dipole Moment    :      0.52467       0.87428      -0.57509
                        -----------------------------------------
Magnitude (a.u.)       :      1.17063
Magnitude (Debye)      :      2.97551

Rotational constants in cm-1:     0.887967     0.174944     0.162211
Rotational constants in MHz : 26620.588088  5244.691016  4862.970425

                             ****ORCA TERMINATED NORMALLY****
TOTAL RUN TIME: 0 days 0 hours 1 minutes 1 seconds 191 msec
