                         Program Version 5.0.3 -  RELEASE  -
|  1> ! B3LYP 6-31G
|  2> !TightSCF
|  3> %scf
|  4>  ConvForced true
|  5>  convergence tight
|  6>  MaxIter 500
|  7> end
|  8>
|  9> %tddft
| 10>  nroots 1
| 11> end
| 12>
| 13> # 	2384
| 14> * xyz 0 1
| 15> 		C   -1.157019  -0.387577  -0.099399
| 16> 		O   -1.362453  -1.411007   0.390741
| 17> 		C    0.027914   0.535286   0.171456
| 18> 		C    1.174860  -0.003847  -0.114368
| 19> 		H   -1.980527  -0.003401  -0.653447
| 20> 		H   -0.245530   1.641096   0.474261
| 21> 		H    1.511351  -0.937645  -0.393462
| 22> 		H    2.001197   0.635364   0.212060
| 23> *
| 24>
| 25>                          ****END OF INPUT****

CARTESIAN COORDINATES (ANGSTROEM)
---------------------------------
  C     -1.157019   -0.387577   -0.099399
  O     -1.362453   -1.411007    0.390741
  C      0.027914    0.535286    0.171456
  C      1.174860   -0.003847   -0.114368
  H     -1.980527   -0.003401   -0.653447
  H     -0.245530    1.641096    0.474261
  H      1.511351   -0.937645   -0.393462
  H      2.001197    0.635364    0.212060

 Total Charge           Charge          ....    0
 Multiplicity           Mult            ....    1
 Number of Electrons    NEL             ....   30
 Basis Dimension        Dim             ....   44

ORBITAL ENERGIES
----------------

  NO   OCC          E(Eh)            E(eV)
   0   2.0000     -19.147681      -521.0349
   1   2.0000     -10.269429      -279.4454
   2   2.0000     -10.210149      -277.8323
   3   2.0000     -10.192357      -277.3481
   4   2.0000      -1.107130       -30.1265
   5   2.0000      -0.803218       -21.8567
   6   2.0000      -0.646111       -17.5816
   7   2.0000      -0.558373       -15.1941
   8   2.0000      -0.512608       -13.9488
   9   2.0000      -0.464288       -12.6339
  10   2.0000      -0.440665       -11.9911
  11   2.0000      -0.403462       -10.9788
  12   2.0000      -0.377856       -10.2820
  13   2.0000      -0.293158        -7.9772
  14   2.0000      -0.243538        -6.6270
  15   0.0000      -0.033666        -0.9161
  16   0.0000       0.026529         0.7219
  17   0.0000       0.090681         2.4676
  18   0.0000       0.139434         3.7942
  19   0.0000       0.154670         4.2088

MULLIKEN ATOMIC CHARGES
-----------------------
   0 C :    0.142144
   1 O :   -0.309201
   2 C :   -0.110753
   3 C :   -0.273158
   4 H :    0.088421
   5 H :    0.161743
   6 H :    0.170340
   7 H :    0.130464
Sum of atomic charges:    0.0000000

LOEWDIN ATOMIC CHARGES
----------------------
   0 C :    0.105467
   1 O :   -0.194801
   2 C :   -0.155890
   3 C :   -0.200637
   4 H :    0.060988
   5 H :    0.135497
   6 H :    0.133653
   7 H :    0.115724

  Mayer bond orders larger than 0.100000
B(  0-C ,  1-O ) :   1.9470 B(  0-C ,  2-C ) :   0.9063 B(  0-C ,  4-H ) :   0.8853
B(  2-C ,  3-C ) :   1.9366 B(  2-C ,  5-H ) :   0.9183 B(  3-C ,  6-H ) :   0.9358
B(  3-C ,  7-H ) :   0.9476

-----------------------------------------------------------------------------
         ABSORPTION SPECTRUM VIA TRANSITION ELECTRIC DIPOLE MOMENTS
-----------------------------------------------------------------------------
State   Energy    Wavelength  fosc         T2        TX        TY        TZ
        (cm-1)      (nm)                 (au**2)    (au)      (au)      (au)
-----------------------------------------------------------------------------
   1   32419.9    308.5   0.001083711   0.01100   0.10049   0.02719   0.01293

FINAL SINGLE POINT ENERGY      -191.547396358133

DIPOLE MOMENT
-------------
                                X             Y             Z
Electronic contribution:     -2.10369      -1.68900       0.39261
Nuclear contribution   :      2.52755       2.54243      -0.69404
                        -----------------------------------------
Total Dipole Moment    :      0.42386       0.85343      -0.30142
                        -----------------------------------------
Magnitude (a.u.)       :      0.99942
Magnitude (Debye)      :      2.54034

Rotational constants in cm-1:     0.842692     0.195736     0.167595
Rotational constants in MHz : 25263.280453  5868.008769  5024.372428

                             ****ORCA TERMINATED NORMALLY****
TOTAL RUN TIME: 0 days 0 hours 1 minutes 1 seconds 636 msec
