                         Program Version 5.0.3 -  RELEASE  -
|  1> ! B3LYP 6-31G
|  2> !TightSCF
|  3> %scf
|  4>  ConvForced true
|  5>  convergence tight
|  6>  MaxIter 500
|  7> end
|  8>
|  9> %tddft
| 10>  nroots 1
| 11> end
| 12>
| 13> # 	23656
| 14> * xyz 0 1
| 15> 		C   -0.547506  -0.448623   0.011270
| 16> 		O   -0.584730  -1.654452   0.010480
| 17> 		C    0.592915   0.434318  -0.052535
| 18> 		C    1.855407  -0.133660   0.021086
| 19> 		H   -1.539106   0.302612   0.005106
| 20> 		H    0.511964   1.654240   0.141299
| 21> 		H    1.863053  -1.204925  -0.277008
| 22> 		H    2.779410   0.537455   0.226905
| 23> *
| 24>
| 25>                          ****END OF INPUT****

CARTESIAN COORDINATES (ANGSTROEM)
---------------------------------
  C     -0.547506   -0.448623    0.011270
  O     -0.584730   -1.654452    0.010480
  C      0.592915    0.434318   -0.052535
  C      1.855407   -0.133660    0.021086
  H     -1.539106    0.302612    0.005106
  H      0.511964    1.654240    0.141299
  H      1.863053   -1.204925   -0.277008
  H      2.779410    0.537455    0.226905

 Total Charge           Charge          ....    0
 Multiplicity           Mult            ....    1
 Number of Electrons    NEL             ....   30
 Basis Dimension        Dim             ....   44

ORBITAL ENERGIES
----------------

  NO   OCC          E(Eh)            E(eV)
   0   2.0000     -19.157792      -521.3100
   1   2.0000     -10.289679      -279.9964
   2   2.0000     -10.229682      -278.3638
   3   2.0000     -10.222255      -278.1617
   4   2.0000      -1.078002       -29.3339
   5   2.0000      -0.798719       -21.7342
   6   2.0000      -0.657143       -17.8818
   7   2.0000      -0.518892       -14.1198
   8   2.0000      -0.505047       -13.7430
   9   2.0000      -0.446119       -12.1395
  10   2.0000      -0.418253       -11.3813
  11   2.0000      -0.409332       -11.1385
  12   2.0000      -0.379137       -10.3168
  13   2.0000      -0.285338        -7.7644
  14   2.0000      -0.257713        -7.0127
  15   0.0000      -0.079695        -2.1686
  16   0.0000       0.054586         1.4854
  17   0.0000       0.065926         1.7939
  18   0.0000       0.101743         2.7686
  19   0.0000       0.125998         3.4286

MULLIKEN ATOMIC CHARGES
-----------------------
   0 C :    0.188460
   1 O :   -0.376374
   2 C :   -0.111672
   3 C :   -0.252770
   4 H :    0.069335
   5 H :    0.142138
   6 H :    0.183198
   7 H :    0.157685
Sum of atomic charges:   -0.0000000

LOEWDIN ATOMIC CHARGES
----------------------
   0 C :    0.110129
   1 O :   -0.223223
   2 C :   -0.187699
   3 C :   -0.150869
   4 H :    0.047566
   5 H :    0.124468
   6 H :    0.144471
   7 H :    0.135158

  Mayer bond orders larger than 0.100000
B(  0-C ,  1-O ) :   1.8445 B(  0-C ,  2-C ) :   0.9865 B(  0-C ,  4-H ) :   0.8576
B(  1-O ,  3-C ) :   0.1085 B(  2-C ,  3-C ) :   1.8011 B(  2-C ,  5-H ) :   0.9305
B(  3-C ,  6-H ) :   0.9285 B(  3-C ,  7-H ) :   0.9389

-----------------------------------------------------------------------------
         ABSORPTION SPECTRUM VIA TRANSITION ELECTRIC DIPOLE MOMENTS
-----------------------------------------------------------------------------
State   Energy    Wavelength  fosc         T2        TX        TY        TZ
        (cm-1)      (nm)                 (au**2)    (au)      (au)      (au)
-----------------------------------------------------------------------------
   1   26889.9    371.9   0.000612127   0.00749   0.07706  -0.00601   0.03899

FINAL SINGLE POINT ENERGY      -191.582549017706

DIPOLE MOMENT
-------------
                                X             Y             Z
Electronic contribution:     -1.55977      -2.03264      -0.07142
Nuclear contribution   :      2.23271       2.99604       0.08900
                        -----------------------------------------
Total Dipole Moment    :      0.67294       0.96340       0.01757
                        -----------------------------------------
Magnitude (a.u.)       :      1.17528
Magnitude (Debye)      :      2.98733

Rotational constants in cm-1:     0.725286     0.208546     0.162570
Rotational constants in MHz : 21743.520072  6252.051745  4873.713421

                             ****ORCA TERMINATED NORMALLY****
TOTAL RUN TIME: 0 days 0 hours 1 minutes 0 seconds 655 msec
