                         Program Version 5.0.3 -  RELEASE  -
|  1> ! B3LYP 6-31G
|  2> !TightSCF
|  3> %scf
|  4>  ConvForced true
|  5>  convergence tight
|  6>  MaxIter 500
|  7> end
|  8>
|  9> %tddft
| 10>  nroots 1
| 11> end
| 12>
| 13> # 	13019
| 14> * xyz 0 1
| 15> 		C   -1.139362  -0.367248  -0.076747
| 16> 		O   -2.237079  -0.169994  -0.686063
| 17> 		C    0.104743   0.369820  -0.394519
| 18> 		C    1.157429   0.078549   0.343887
| 19> 		H   -1.089858  -1.123945   0.747247
| 20> 		H    0.055007   1.019639  -1.272844
| 21> 		H    1.250706  -0.602155   1.029235
| 22> 		H    1.911077   0.780472   0.264765
| 23> *
| 24>
| 25>                          ****END OF INPUT****

CARTESIAN COORDINATES (ANGSTROEM)
---------------------------------
  C     -1.139362   -0.367248   -0.076747
  O     -2.237079   -0.169994   -0.686063
  C      0.104743    0.369820   -0.394519
  C      1.157429    0.078549    0.343887
  H     -1.089858   -1.123945    0.747247
  H      0.055007    1.019639   -1.272844
  H      1.250706   -0.602155    1.029235
  H      1.911077    0.780472    0.264765

 Total Charge           Charge          ....    0
 Multiplicity           Mult            ....    1
 Number of Electrons    NEL             ....   30
 Basis Dimension        Dim             ....   44

ORBITAL ENERGIES
----------------

  NO   OCC          E(Eh)            E(eV)
   0   2.0000     -19.145338      -520.9711
   1   2.0000     -10.277243      -279.6580
   2   2.0000     -10.210788      -277.8497
   3   2.0000     -10.198672      -277.5200
   4   2.0000      -1.030075       -28.0298
   5   2.0000      -0.820879       -22.3373
   6   2.0000      -0.659593       -17.9484
   7   2.0000      -0.584804       -15.9133
   8   2.0000      -0.495952       -13.4955
   9   2.0000      -0.475711       -12.9448
  10   2.0000      -0.416866       -11.3435
  11   2.0000      -0.398308       -10.8385
  12   2.0000      -0.383108       -10.4249
  13   2.0000      -0.291847        -7.9416
  14   2.0000      -0.251719        -6.8496
  15   0.0000      -0.070624        -1.9218
  16   0.0000       0.043335         1.1792
  17   0.0000       0.112169         3.0523
  18   0.0000       0.121072         3.2945
  19   0.0000       0.158715         4.3189

MULLIKEN ATOMIC CHARGES
-----------------------
   0 C :    0.184107
   1 O :   -0.417810
   2 C :   -0.082270
   3 C :   -0.261227
   4 H :    0.117066
   5 H :    0.167719
   6 H :    0.147738
   7 H :    0.144678
Sum of atomic charges:   -0.0000000

LOEWDIN ATOMIC CHARGES
----------------------
   0 C :    0.110470
   1 O :   -0.266612
   2 C :   -0.136745
   3 C :   -0.179923
   4 H :    0.084311
   5 H :    0.139188
   6 H :    0.122232
   7 H :    0.127080

  Mayer bond orders larger than 0.100000
B(  0-C ,  1-O ) :   1.7901 B(  0-C ,  2-C ) :   1.0144 B(  0-C ,  4-H ) :   0.8861
B(  1-O ,  3-C ) :   0.1049 B(  2-C ,  3-C ) :   1.8419 B(  2-C ,  5-H ) :   0.9287
B(  3-C ,  6-H ) :   0.9453 B(  3-C ,  7-H ) :   0.9432

-----------------------------------------------------------------------------
         ABSORPTION SPECTRUM VIA TRANSITION ELECTRIC DIPOLE MOMENTS
-----------------------------------------------------------------------------
State   Energy    Wavelength  fosc         T2        TX        TY        TZ
        (cm-1)      (nm)                 (au**2)    (au)      (au)      (au)
-----------------------------------------------------------------------------
   1   26435.7    378.3   0.000127238   0.00158  -0.03560   0.01640  -0.00693

FINAL SINGLE POINT ENERGY      -191.601453403452

DIPOLE MOMENT
-------------
                                X             Y             Z
Electronic contribution:     -2.81384      -0.17676      -0.98309
Nuclear contribution   :      4.12431       0.17920       1.49912
                        -----------------------------------------
Total Dipole Moment    :      1.31047       0.00243       0.51603
                        -----------------------------------------
Magnitude (a.u.)       :      1.40841
Magnitude (Debye)      :      3.57990

Rotational constants in cm-1:     1.526618     0.156463     0.142122
Rotational constants in MHz : 45766.847558  4690.643784  4260.719301

                             ****ORCA TERMINATED NORMALLY****
TOTAL RUN TIME: 0 days 0 hours 0 minutes 59 seconds 64 msec
