                         Program Version 5.0.3 -  RELEASE  -
|  1> ! B3LYP 6-31G
|  2> !TightSCF
|  3> %scf
|  4>  ConvForced true
|  5>  convergence tight
|  6>  MaxIter 500
|  7> end
|  8>
|  9> %tddft
| 10>  nroots 1
| 11> end
| 12>
| 13> # 	17373
| 14> * xyz 0 1
| 15> 		C   -1.200414  -0.345894  -0.022472
| 16> 		O   -1.950559  -0.728490  -0.830373
| 17> 		C    0.053717   0.434363  -0.220419
| 18> 		C    1.273801   0.084261   0.176185
| 19> 		H   -1.467415  -0.638203   1.039010
| 20> 		H   -0.028769   1.276334  -0.932099
| 21> 		H    1.258514  -0.766866   0.951211
| 22> 		H    2.103813   0.723222  -0.198426
| 23> *
| 24>
| 25>                          ****END OF INPUT****

CARTESIAN COORDINATES (ANGSTROEM)
---------------------------------
  C     -1.200414   -0.345894   -0.022472
  O     -1.950559   -0.728490   -0.830373
  C      0.053717    0.434363   -0.220419
  C      1.273801    0.084261    0.176185
  H     -1.467415   -0.638203    1.039010
  H     -0.028769    1.276334   -0.932099
  H      1.258514   -0.766866    0.951211
  H      2.103813    0.723222   -0.198426

 Total Charge           Charge          ....    0
 Multiplicity           Mult            ....    1
 Number of Electrons    NEL             ....   30
 Basis Dimension        Dim             ....   44

ORBITAL ENERGIES
----------------

  NO   OCC          E(Eh)            E(eV)
   0   2.0000     -19.154390      -521.2174
   1   2.0000     -10.282921      -279.8125
   2   2.0000     -10.215884      -277.9883
   3   2.0000     -10.204704      -277.6841
   4   2.0000      -1.103154       -30.0183
   5   2.0000      -0.803621       -21.8676
   6   2.0000      -0.644716       -17.5436
   7   2.0000      -0.561791       -15.2871
   8   2.0000      -0.495438       -13.4816
   9   2.0000      -0.465228       -12.6595
  10   2.0000      -0.435549       -11.8519
  11   2.0000      -0.412382       -11.2215
  12   2.0000      -0.379799       -10.3349
  13   2.0000      -0.292346        -7.9551
  14   2.0000      -0.253216        -6.8904
  15   0.0000      -0.048075        -1.3082
  16   0.0000       0.025332         0.6893
  17   0.0000       0.096186         2.6174
  18   0.0000       0.115448         3.1415
  19   0.0000       0.137455         3.7404

MULLIKEN ATOMIC CHARGES
-----------------------
   0 C :    0.158100
   1 O :   -0.314560
   2 C :   -0.120020
   3 C :   -0.269416
   4 H :    0.088126
   5 H :    0.154071
   6 H :    0.146536
   7 H :    0.157163
Sum of atomic charges:    0.0000000

LOEWDIN ATOMIC CHARGES
----------------------
   0 C :    0.110150
   1 O :   -0.195056
   2 C :   -0.177239
   3 C :   -0.191828
   4 H :    0.060662
   5 H :    0.126694
   6 H :    0.128205
   7 H :    0.138412

  Mayer bond orders larger than 0.100000
B(  0-C ,  1-O ) :   1.9301 B(  0-C ,  2-C ) :   0.9214 B(  0-C ,  4-H ) :   0.8777
B(  2-C ,  3-C ) :   1.8955 B(  2-C ,  5-H ) :   0.9295 B(  3-C ,  6-H ) :   0.9495
B(  3-C ,  7-H ) :   0.9442

-----------------------------------------------------------------------------
         ABSORPTION SPECTRUM VIA TRANSITION ELECTRIC DIPOLE MOMENTS
-----------------------------------------------------------------------------
State   Energy    Wavelength  fosc         T2        TX        TY        TZ
        (cm-1)      (nm)                 (au**2)    (au)      (au)      (au)
-----------------------------------------------------------------------------
   1   31777.9    314.7   0.000168168   0.00174  -0.03711   0.00183  -0.01902

FINAL SINGLE POINT ENERGY      -191.570311202928

DIPOLE MOMENT
-------------
                                X             Y             Z
Electronic contribution:     -2.73186      -0.72597      -1.16210
Nuclear contribution   :      3.59003       1.15050       1.68263
                        -----------------------------------------
Total Dipole Moment    :      0.85817       0.42452       0.52053
                        -----------------------------------------
Magnitude (a.u.)       :      1.08978
Magnitude (Debye)      :      2.77001

Rotational constants in cm-1:     1.325173     0.154501     0.147778
Rotational constants in MHz : 39727.695241  4631.828017  4430.264668

                             ****ORCA TERMINATED NORMALLY****
TOTAL RUN TIME: 0 days 0 hours 0 minutes 59 seconds 634 msec
