                         Program Version 5.0.3 -  RELEASE  -
|  1> ! B3LYP 6-31G
|  2> !TightSCF
|  3> %scf
|  4>  ConvForced true
|  5>  convergence tight
|  6>  MaxIter 500
|  7> end
|  8>
|  9> %tddft
| 10>  nroots 1
| 11> end
| 12>
| 13> # 	577
| 14> * xyz 0 1
| 15> 		C   -1.189287  -0.321696  -0.063811
| 16> 		O   -2.139644  -0.525205  -0.816561
| 17> 		C    0.043505   0.399223  -0.334072
| 18> 		C    1.129184   0.157366   0.325114
| 19> 		H   -1.294958  -0.829241   0.951150
| 20> 		H   -0.133449   0.996099  -1.095547
| 21> 		H    1.264893  -0.451662   1.099647
| 22> 		H    2.203919   0.550540  -0.030599
| 23> *
| 24>
| 25>                          ****END OF INPUT****

CARTESIAN COORDINATES (ANGSTROEM)
---------------------------------
  C     -1.189287   -0.321696   -0.063811
  O     -2.139644   -0.525205   -0.816561
  C      0.043505    0.399223   -0.334072
  C      1.129184    0.157366    0.325114
  H     -1.294958   -0.829241    0.951150
  H     -0.133449    0.996099   -1.095547
  H      1.264893   -0.451662    1.099647
  H      2.203919    0.550540   -0.030599

 Total Charge           Charge          ....    0
 Multiplicity           Mult            ....    1
 Number of Electrons    NEL             ....   30
 Basis Dimension        Dim             ....   44

ORBITAL ENERGIES
----------------

  NO   OCC          E(Eh)            E(eV)
   0   2.0000     -19.148419      -521.0550
   1   2.0000     -10.276865      -279.6477
   2   2.0000     -10.216834      -278.0142
   3   2.0000     -10.199519      -277.5430
   4   2.0000      -1.058503       -28.8033
   5   2.0000      -0.825148       -22.4534
   6   2.0000      -0.663729       -18.0610
   7   2.0000      -0.584648       -15.9091
   8   2.0000      -0.505703       -13.7609
   9   2.0000      -0.473836       -12.8937
  10   2.0000      -0.423642       -11.5279
  11   2.0000      -0.397670       -10.8212
  12   2.0000      -0.385217       -10.4823
  13   2.0000      -0.301759        -8.2113
  14   2.0000      -0.251104        -6.8329
  15   0.0000      -0.064870        -1.7652
  16   0.0000       0.046654         1.2695
  17   0.0000       0.096911         2.6371
  18   0.0000       0.129076         3.5123
  19   0.0000       0.152355         4.1458

MULLIKEN ATOMIC CHARGES
-----------------------
   0 C :    0.159002
   1 O :   -0.380494
   2 C :   -0.043178
   3 C :   -0.272234
   4 H :    0.093011
   5 H :    0.149823
   6 H :    0.151583
   7 H :    0.142486
Sum of atomic charges:   -0.0000000

LOEWDIN ATOMIC CHARGES
----------------------
   0 C :    0.113152
   1 O :   -0.244139
   2 C :   -0.155393
   3 C :   -0.155686
   4 H :    0.066777
   5 H :    0.131026
   6 H :    0.120859
   7 H :    0.123404

  Mayer bond orders larger than 0.100000
B(  0-C ,  1-O ) :   1.8449 B(  0-C ,  2-C ) :   0.9888 B(  0-C ,  4-H ) :   0.8903
B(  2-C ,  3-C ) :   1.8764 B(  2-C ,  5-H ) :   0.9285 B(  3-C ,  6-H ) :   0.9357
B(  3-C ,  7-H ) :   0.9418

-----------------------------------------------------------------------------
         ABSORPTION SPECTRUM VIA TRANSITION ELECTRIC DIPOLE MOMENTS
-----------------------------------------------------------------------------
State   Energy    Wavelength  fosc         T2        TX        TY        TZ
        (cm-1)      (nm)                 (au**2)    (au)      (au)      (au)
-----------------------------------------------------------------------------
   1   27724.3    360.7   0.000063341   0.00075  -0.00989   0.02508   0.00504

FINAL SINGLE POINT ENERGY      -191.583986515694

DIPOLE MOMENT
-------------
                                X             Y             Z
Electronic contribution:     -2.88231      -0.33722      -1.16622
Nuclear contribution   :      4.05820       0.59861       1.72942
                        -----------------------------------------
Total Dipole Moment    :      1.17589       0.26139       0.56320
                        -----------------------------------------
Magnitude (a.u.)       :      1.32975
Magnitude (Debye)      :      3.37995

Rotational constants in cm-1:     1.645718     0.154637     0.143632
Rotational constants in MHz : 49337.379539  4635.912050  4305.979715

                             ****ORCA TERMINATED NORMALLY****
TOTAL RUN TIME: 0 days 0 hours 0 minutes 57 seconds 142 msec
