                         Program Version 5.0.3 -  RELEASE  -
|  1> ! B3LYP 6-31G
|  2> !TightSCF
|  3> %scf
|  4>  ConvForced true
|  5>  convergence tight
|  6>  MaxIter 500
|  7> end
|  8>
|  9> %tddft
| 10>  nroots 1
| 11> end
| 12>
| 13> # 	12291
| 14> * xyz 0 1
| 15> 		C   -1.242022  -0.302725   0.113313
| 16> 		O   -1.505463  -1.109302   0.783385
| 17> 		C   -0.003520   0.515084   0.135182
| 18> 		C    1.191313   0.022600  -0.151637
| 19> 		H   -1.839382  -0.101463  -0.864789
| 20> 		H   -0.121254   1.550552   0.509503
| 21> 		H    1.344404  -1.099220  -0.465807
| 22> 		H    2.175136   0.577040  -0.015806
| 23> *
| 24>
| 25>                          ****END OF INPUT****

CARTESIAN COORDINATES (ANGSTROEM)
---------------------------------
  C     -1.242022   -0.302725    0.113313
  O     -1.505463   -1.109302    0.783385
  C     -0.003520    0.515084    0.135182
  C      1.191313    0.022600   -0.151637
  H     -1.839382   -0.101463   -0.864789
  H     -0.121254    1.550552    0.509503
  H      1.344404   -1.099220   -0.465807
  H      2.175136    0.577040   -0.015806

 Total Charge           Charge          ....    0
 Multiplicity           Mult            ....    1
 Number of Electrons    NEL             ....   30
 Basis Dimension        Dim             ....   44

ORBITAL ENERGIES
----------------

  NO   OCC          E(Eh)            E(eV)
   0   2.0000     -19.161886      -521.4214
   1   2.0000     -10.283264      -279.8218
   2   2.0000     -10.208766      -277.7946
   3   2.0000     -10.197851      -277.4976
   4   2.0000      -1.167449       -31.7679
   5   2.0000      -0.794094       -21.6084
   6   2.0000      -0.641571       -17.4580
   7   2.0000      -0.549019       -14.9396
   8   2.0000      -0.511715       -13.9245
   9   2.0000      -0.476618       -12.9694
  10   2.0000      -0.458292       -12.4708
  11   2.0000      -0.424644       -11.5552
  12   2.0000      -0.376256       -10.2385
  13   2.0000      -0.285154        -7.7594
  14   2.0000      -0.249216        -6.7815
  15   0.0000      -0.014280        -0.3886
  16   0.0000       0.012793         0.3481
  17   0.0000       0.109257         2.9730
  18   0.0000       0.114638         3.1195
  19   0.0000       0.132256         3.5989

MULLIKEN ATOMIC CHARGES
-----------------------
   0 C :    0.121059
   1 O :   -0.218868
   2 C :   -0.129899
   3 C :   -0.273030
   4 H :    0.062216
   5 H :    0.157564
   6 H :    0.137420
   7 H :    0.143538
Sum of atomic charges:    0.0000000

LOEWDIN ATOMIC CHARGES
----------------------
   0 C :    0.102883
   1 O :   -0.121988
   2 C :   -0.186305
   3 C :   -0.199001
   4 H :    0.035370
   5 H :    0.131775
   6 H :    0.115607
   7 H :    0.121658

  Mayer bond orders larger than 0.100000
B(  0-C ,  1-O ) :   2.0373 B(  0-C ,  2-C ) :   0.8772 B(  0-C ,  4-H ) :   0.8480
B(  2-C ,  3-C ) :   1.9522 B(  2-C ,  5-H ) :   0.9236 B(  3-C ,  6-H ) :   0.9457
B(  3-C ,  7-H ) :   0.9404

-----------------------------------------------------------------------------
         ABSORPTION SPECTRUM VIA TRANSITION ELECTRIC DIPOLE MOMENTS
-----------------------------------------------------------------------------
State   Energy    Wavelength  fosc         T2        TX        TY        TZ
        (cm-1)      (nm)                 (au**2)    (au)      (au)      (au)
-----------------------------------------------------------------------------
   1   37886.3    263.9   0.000278423   0.00242  -0.02578   0.02020   0.03669

FINAL SINGLE POINT ENERGY      -191.503708745212

DIPOLE MOMENT
-------------
                                X             Y             Z
Electronic contribution:     -2.56607      -1.19135       1.30496
Nuclear contribution   :      2.99701       1.79341      -1.63730
                        -----------------------------------------
Total Dipole Moment    :      0.43093       0.60207      -0.33235
                        -----------------------------------------
Magnitude (a.u.)       :      0.81157
Magnitude (Debye)      :      2.06284

Rotational constants in cm-1:     0.951255     0.183539     0.166159
Rotational constants in MHz : 28517.916168  5502.355708  4981.311206

                             ****ORCA TERMINATED NORMALLY****
TOTAL RUN TIME: 0 days 0 hours 0 minutes 57 seconds 910 msec
