                         Program Version 5.0.3 -  RELEASE  -
|  1> ! B3LYP 6-31G
|  2> !TightSCF
|  3> %scf
|  4>  ConvForced true
|  5>  convergence tight
|  6>  MaxIter 500
|  7> end
|  8>
|  9> %tddft
| 10>  nroots 1
| 11> end
| 12>
| 13> # 	9950
| 14> * xyz 0 1
| 15> 		C   -1.174845  -0.238687   0.052748
| 16> 		O   -1.472437  -1.334570   0.731198
| 17> 		C    0.062029   0.513166   0.161128
| 18> 		C    1.237881   0.027364  -0.075353
| 19> 		H   -2.092333   0.099744  -0.644914
| 20> 		H   -0.103545   1.355139   0.321232
| 21> 		H    1.384635  -1.010687  -0.449097
| 22> 		H    2.110102   0.537854  -0.039385
| 23> *
| 24>
| 25>                          ****END OF INPUT****

CARTESIAN COORDINATES (ANGSTROEM)
---------------------------------
  C     -1.174845   -0.238687    0.052748
  O     -1.472437   -1.334570    0.731198
  C      0.062029    0.513166    0.161128
  C      1.237881    0.027364   -0.075353
  H     -2.092333    0.099744   -0.644914
  H     -0.103545    1.355139    0.321232
  H      1.384635   -1.010687   -0.449097
  H      2.110102    0.537854   -0.039385

 Total Charge           Charge          ....    0
 Multiplicity           Mult            ....    1
 Number of Electrons    NEL             ....   30
 Basis Dimension        Dim             ....   44

ORBITAL ENERGIES
----------------

  NO   OCC          E(Eh)            E(eV)
   0   2.0000     -19.149244      -521.0774
   1   2.0000     -10.289385      -279.9884
   2   2.0000     -10.202308      -277.6189
   3   2.0000     -10.191250      -277.3180
   4   2.0000      -1.005503       -27.3611
   5   2.0000      -0.826461       -22.4891
   6   2.0000      -0.678037       -18.4503
   7   2.0000      -0.572803       -15.5868
   8   2.0000      -0.521793       -14.1987
   9   2.0000      -0.467745       -12.7280
  10   2.0000      -0.423180       -11.5153
  11   2.0000      -0.389021       -10.5858
  12   2.0000      -0.355801        -9.6818
  13   2.0000      -0.295652        -8.0451
  14   2.0000      -0.250410        -6.8140
  15   0.0000      -0.064978        -1.7682
  16   0.0000       0.011065         0.3011
  17   0.0000       0.101410         2.7595
  18   0.0000       0.132038         3.5929
  19   0.0000       0.156562         4.2603

MULLIKEN ATOMIC CHARGES
-----------------------
   0 C :    0.140079
   1 O :   -0.402070
   2 C :   -0.023736
   3 C :   -0.243662
   4 H :    0.124811
   5 H :    0.105459
   6 H :    0.154463
   7 H :    0.144656
Sum of atomic charges:    0.0000000

LOEWDIN ATOMIC CHARGES
----------------------
   0 C :    0.134288
   1 O :   -0.282858
   2 C :   -0.156252
   3 C :   -0.152638
   4 H :    0.094311
   5 H :    0.114988
   6 H :    0.127720
   7 H :    0.120441

  Mayer bond orders larger than 0.100000
B(  0-C ,  1-O ) :   1.8688 B(  0-C ,  2-C ) :   0.9655 B(  0-C ,  4-H ) :   0.8817
B(  2-C ,  3-C ) :   1.9338 B(  2-C ,  5-H ) :   0.9393 B(  3-C ,  6-H ) :   0.9456
B(  3-C ,  7-H ) :   0.9411

-----------------------------------------------------------------------------
         ABSORPTION SPECTRUM VIA TRANSITION ELECTRIC DIPOLE MOMENTS
-----------------------------------------------------------------------------
State   Energy    Wavelength  fosc         T2        TX        TY        TZ
        (cm-1)      (nm)                 (au**2)    (au)      (au)      (au)
-----------------------------------------------------------------------------
   1   25864.5    386.6   0.000163199   0.00208   0.03241  -0.02957  -0.01235

FINAL SINGLE POINT ENERGY      -191.546794352032

DIPOLE MOMENT
-------------
                                X             Y             Z
Electronic contribution:     -1.93082      -1.01165       0.99796
Nuclear contribution   :      2.59092       2.02629      -1.59407
                        -----------------------------------------
Total Dipole Moment    :      0.66010       1.01463      -0.59611
                        -----------------------------------------
Magnitude (a.u.)       :      1.34928
Magnitude (Debye)      :      3.42959

Rotational constants in cm-1:     0.865539     0.179911     0.156895
Rotational constants in MHz : 25948.196260  5393.590391  4703.605528

                             ****ORCA TERMINATED NORMALLY****
TOTAL RUN TIME: 0 days 0 hours 0 minutes 59 seconds 915 msec
