                         Program Version 5.0.3 -  RELEASE  -
|  1> ! B3LYP 6-31G
|  2> !TightSCF
|  3> %scf
|  4>  ConvForced true
|  5>  convergence tight
|  6>  MaxIter 500
|  7> end
|  8>
|  9> %tddft
| 10>  nroots 1
| 11> end
| 12>
| 13> # 	16031
| 14> * xyz 0 1
| 15> 		C   -1.166398  -0.328382   0.013870
| 16> 		O   -1.552472  -1.127574   0.743460
| 17> 		C   -0.004333   0.542764   0.159727
| 18> 		C    1.233849  -0.032341  -0.165120
| 19> 		H   -1.943273  -0.125016  -0.804488
| 20> 		H   -0.101470   1.670967   0.535120
| 21> 		H    1.353700  -1.171273  -0.388302
| 22> 		H    2.118383   0.599868  -0.114056
| 23> *
| 24>
| 25>                          ****END OF INPUT****

CARTESIAN COORDINATES (ANGSTROEM)
---------------------------------
  C     -1.166398   -0.328382    0.013870
  O     -1.552472   -1.127574    0.743460
  C     -0.004333    0.542764    0.159727
  C      1.233849   -0.032341   -0.165120
  H     -1.943273   -0.125016   -0.804488
  H     -0.101470    1.670967    0.535120
  H      1.353700   -1.171273   -0.388302
  H      2.118383    0.599868   -0.114056

 Total Charge           Charge          ....    0
 Multiplicity           Mult            ....    1
 Number of Electrons    NEL             ....   30
 Basis Dimension        Dim             ....   44

ORBITAL ENERGIES
----------------

  NO   OCC          E(Eh)            E(eV)
   0   2.0000     -19.150293      -521.1060
   1   2.0000     -10.279793      -279.7274
   2   2.0000     -10.221160      -278.1319
   3   2.0000     -10.217510      -278.0326
   4   2.0000      -1.114052       -30.3149
   5   2.0000      -0.787292       -21.4233
   6   2.0000      -0.644255       -17.5311
   7   2.0000      -0.544815       -14.8252
   8   2.0000      -0.506249       -13.7757
   9   2.0000      -0.455407       -12.3923
  10   2.0000      -0.441487       -12.0135
  11   2.0000      -0.398937       -10.8556
  12   2.0000      -0.389613       -10.6019
  13   2.0000      -0.275892        -7.5074
  14   2.0000      -0.247894        -6.7455
  15   0.0000      -0.030521        -0.8305
  16   0.0000      -0.012576        -0.3422
  17   0.0000       0.095834         2.6078
  18   0.0000       0.113205         3.0805
  19   0.0000       0.133903         3.6437

MULLIKEN ATOMIC CHARGES
-----------------------
   0 C :    0.121129
   1 O :   -0.292142
   2 C :   -0.113332
   3 C :   -0.276573
   4 H :    0.087139
   5 H :    0.170809
   6 H :    0.158202
   7 H :    0.144767
Sum of atomic charges:    0.0000000

LOEWDIN ATOMIC CHARGES
----------------------
   0 C :    0.100633
   1 O :   -0.187059
   2 C :   -0.165825
   3 C :   -0.203449
   4 H :    0.059602
   5 H :    0.143399
   6 H :    0.130770
   7 H :    0.121929

  Mayer bond orders larger than 0.100000
B(  0-C ,  1-O ) :   1.9575 B(  0-C ,  2-C ) :   0.9132 B(  0-C ,  4-H ) :   0.8769
B(  2-C ,  3-C ) :   1.9038 B(  2-C ,  5-H ) :   0.9194 B(  3-C ,  6-H ) :   0.9409
B(  3-C ,  7-H ) :   0.9442

-----------------------------------------------------------------------------
         ABSORPTION SPECTRUM VIA TRANSITION ELECTRIC DIPOLE MOMENTS
-----------------------------------------------------------------------------
State   Energy    Wavelength  fosc         T2        TX        TY        TZ
        (cm-1)      (nm)                 (au**2)    (au)      (au)      (au)
-----------------------------------------------------------------------------
   1   33903.0    295.0   0.002119771   0.02058   0.13747   0.00491   0.04075

FINAL SINGLE POINT ENERGY      -191.539623467429

DIPOLE MOMENT
-------------
                                X             Y             Z
Electronic contribution:     -2.26157      -1.18976       1.02292
Nuclear contribution   :      2.83762       1.89696      -1.46690
                        -----------------------------------------
Total Dipole Moment    :      0.57605       0.70721      -0.44399
                        -----------------------------------------
Magnitude (a.u.)       :      1.01444
Magnitude (Debye)      :      2.57851

Rotational constants in cm-1:     0.883678     0.179947     0.162058
Rotational constants in MHz : 26492.006353  5394.687494  4858.365651

                             ****ORCA TERMINATED NORMALLY****
TOTAL RUN TIME: 0 days 0 hours 1 minutes 0 seconds 958 msec
