                         Program Version 5.0.3 -  RELEASE  -
|  1> ! B3LYP 6-31G
|  2> !TightSCF
|  3> %scf
|  4>  ConvForced true
|  5>  convergence tight
|  6>  MaxIter 500
|  7> end
|  8>
|  9> %tddft
| 10>  nroots 1
| 11> end
| 12>
| 13> # 	4318
| 14> * xyz 0 1
| 15> 		C   -1.210367  -0.311270   0.061818
| 16> 		O   -2.196112  -0.306363   0.630408
| 17> 		C    0.072716   0.429459   0.357195
| 18> 		C    1.203549   0.215711  -0.299463
| 19> 		H   -1.231999  -1.112364  -0.845830
| 20> 		H    0.111712   0.995734   1.405268
| 21> 		H    1.133967  -0.312707  -1.250972
| 22> 		H    2.046855   0.474121  -0.040801
| 23> *
| 24>
| 25>                          ****END OF INPUT****

CARTESIAN COORDINATES (ANGSTROEM)
---------------------------------
  C     -1.210367   -0.311270    0.061818
  O     -2.196112   -0.306363    0.630408
  C      0.072716    0.429459    0.357195
  C      1.203549    0.215711   -0.299463
  H     -1.231999   -1.112364   -0.845830
  H      0.111712    0.995734    1.405268
  H      1.133967   -0.312707   -1.250972
  H      2.046855    0.474121   -0.040801

 Total Charge           Charge          ....    0
 Multiplicity           Mult            ....    1
 Number of Electrons    NEL             ....   30
 Basis Dimension        Dim             ....   44

ORBITAL ENERGIES
----------------

  NO   OCC          E(Eh)            E(eV)
   0   2.0000     -19.153468      -521.1924
   1   2.0000     -10.287549      -279.9384
   2   2.0000     -10.217432      -278.0305
   3   2.0000     -10.196915      -277.4722
   4   2.0000      -1.122209       -30.5368
   5   2.0000      -0.807468       -21.9723
   6   2.0000      -0.654545       -17.8111
   7   2.0000      -0.554199       -15.0805
   8   2.0000      -0.498971       -13.5777
   9   2.0000      -0.486144       -13.2287
  10   2.0000      -0.433288       -11.7904
  11   2.0000      -0.428383       -11.6569
  12   2.0000      -0.384168       -10.4537
  13   2.0000      -0.297078        -8.0839
  14   2.0000      -0.250720        -6.8224
  15   0.0000      -0.055475        -1.5095
  16   0.0000       0.057418         1.5624
  17   0.0000       0.090957         2.4751
  18   0.0000       0.130340         3.5467
  19   0.0000       0.136134         3.7044

MULLIKEN ATOMIC CHARGES
-----------------------
   0 C :    0.153718
   1 O :   -0.298859
   2 C :   -0.104008
   3 C :   -0.238533
   4 H :    0.066152
   5 H :    0.142509
   6 H :    0.148787
   7 H :    0.130233
Sum of atomic charges:    0.0000000

LOEWDIN ATOMIC CHARGES
----------------------
   0 C :    0.099699
   1 O :   -0.180982
   2 C :   -0.149884
   3 C :   -0.176523
   4 H :    0.045457
   5 H :    0.123614
   6 H :    0.124365
   7 H :    0.114253

  Mayer bond orders larger than 0.100000
B(  0-C ,  1-O ) :   1.9148 B(  0-C ,  2-C ) :   0.9135 B(  0-C ,  4-H ) :   0.8683
B(  2-C ,  3-C ) :   1.8830 B(  2-C ,  5-H ) :   0.9278 B(  3-C ,  6-H ) :   0.9461
B(  3-C ,  7-H ) :   0.9444

-----------------------------------------------------------------------------
         ABSORPTION SPECTRUM VIA TRANSITION ELECTRIC DIPOLE MOMENTS
-----------------------------------------------------------------------------
State   Energy    Wavelength  fosc         T2        TX        TY        TZ
        (cm-1)      (nm)                 (au**2)    (au)      (au)      (au)
-----------------------------------------------------------------------------
   1   30579.1    327.0   0.000413221   0.00445  -0.06097  -0.01331  -0.02354

FINAL SINGLE POINT ENERGY      -191.545461133385

DIPOLE MOMENT
-------------
                                X             Y             Z
Electronic contribution:     -2.95093       0.01187       1.07218
Nuclear contribution   :      4.06901       0.09433      -1.40239
                        -----------------------------------------
Total Dipole Moment    :      1.11808       0.10620      -0.33022
                        -----------------------------------------
Magnitude (a.u.)       :      1.17065
Magnitude (Debye)      :      2.97557

Rotational constants in cm-1:     1.589236     0.153954     0.140746
Rotational constants in MHz : 47644.092730  4615.435365  4219.458417

                             ****ORCA TERMINATED NORMALLY****
TOTAL RUN TIME: 0 days 0 hours 0 minutes 57 seconds 274 msec
