                         Program Version 5.0.3 -  RELEASE  -
|  1> ! B3LYP 6-31G
|  2> !TightSCF
|  3> %scf
|  4>  ConvForced true
|  5>  convergence tight
|  6>  MaxIter 500
|  7> end
|  8>
|  9> %tddft
| 10>  nroots 1
| 11> end
| 12>
| 13> # 	8391
| 14> * xyz 0 1
| 15> 		C   -1.198162  -0.236989  -0.013130
| 16> 		O   -1.847948  -0.715931  -0.938175
| 17> 		C    0.017181   0.495988  -0.222208
| 18> 		C    1.187178  -0.004952   0.202721
| 19> 		H   -1.368665  -0.511219   1.009025
| 20> 		H    0.026150   1.347612  -1.046327
| 21> 		H    1.154689  -0.890469   0.950074
| 22> 		H    2.113359   0.559921   0.068653
| 23> *
| 24>
| 25>                          ****END OF INPUT****

CARTESIAN COORDINATES (ANGSTROEM)
---------------------------------
  C     -1.198162   -0.236989   -0.013130
  O     -1.847948   -0.715931   -0.938175
  C      0.017181    0.495988   -0.222208
  C      1.187178   -0.004952    0.202721
  H     -1.368665   -0.511219    1.009025
  H      0.026150    1.347612   -1.046327
  H      1.154689   -0.890469    0.950074
  H      2.113359    0.559921    0.068653

 Total Charge           Charge          ....    0
 Multiplicity           Mult            ....    1
 Number of Electrons    NEL             ....   30
 Basis Dimension        Dim             ....   44

ORBITAL ENERGIES
----------------

  NO   OCC          E(Eh)            E(eV)
   0   2.0000     -19.153120      -521.1829
   1   2.0000     -10.277734      -279.6714
   2   2.0000     -10.215968      -277.9906
   3   2.0000     -10.212091      -277.8851
   4   2.0000      -1.063687       -28.9444
   5   2.0000      -0.808275       -21.9943
   6   2.0000      -0.657417       -17.8892
   7   2.0000      -0.568008       -15.4563
   8   2.0000      -0.484524       -13.1846
   9   2.0000      -0.469352       -12.7717
  10   2.0000      -0.430335       -11.7100
  11   2.0000      -0.393009       -10.6943
  12   2.0000      -0.372599       -10.1389
  13   2.0000      -0.288892        -7.8611
  14   2.0000      -0.258243        -7.0271
  15   0.0000      -0.061171        -1.6646
  16   0.0000       0.017062         0.4643
  17   0.0000       0.095556         2.6002
  18   0.0000       0.110818         3.0155
  19   0.0000       0.150027         4.0824

MULLIKEN ATOMIC CHARGES
-----------------------
   0 C :    0.163945
   1 O :   -0.363877
   2 C :   -0.098060
   3 C :   -0.277804
   4 H :    0.119148
   5 H :    0.161570
   6 H :    0.141047
   7 H :    0.154030
Sum of atomic charges:   -0.0000000

LOEWDIN ATOMIC CHARGES
----------------------
   0 C :    0.113218
   1 O :   -0.226543
   2 C :   -0.160841
   3 C :   -0.193237
   4 H :    0.082796
   5 H :    0.135030
   6 H :    0.119978
   7 H :    0.129600

  Mayer bond orders larger than 0.100000
B(  0-C ,  1-O ) :   1.8775 B(  0-C ,  2-C ) :   0.9728 B(  0-C ,  4-H ) :   0.8824
B(  2-C ,  3-C ) :   1.8730 B(  2-C ,  5-H ) :   0.9213 B(  3-C ,  6-H ) :   0.9456
B(  3-C ,  7-H ) :   0.9424

-----------------------------------------------------------------------------
         ABSORPTION SPECTRUM VIA TRANSITION ELECTRIC DIPOLE MOMENTS
-----------------------------------------------------------------------------
State   Energy    Wavelength  fosc         T2        TX        TY        TZ
        (cm-1)      (nm)                 (au**2)    (au)      (au)      (au)
-----------------------------------------------------------------------------
   1   29512.9    338.8   0.001116599   0.01246  -0.10366  -0.01272  -0.03936

FINAL SINGLE POINT ENERGY      -191.584953087566

DIPOLE MOMENT
-------------
                                X             Y             Z
Electronic contribution:     -2.80312      -0.53131      -1.16859
Nuclear contribution   :      3.63051       0.99439       1.87538
                        -----------------------------------------
Total Dipole Moment    :      0.82739       0.46308       0.70679
                        -----------------------------------------
Magnitude (a.u.)       :      1.18262
Magnitude (Debye)      :      3.00597

Rotational constants in cm-1:     1.106619     0.165442     0.159393
Rotational constants in MHz : 33175.597465  4959.818537  4778.481757

                             ****ORCA TERMINATED NORMALLY****
TOTAL RUN TIME: 0 days 0 hours 1 minutes 1 seconds 493 msec
