                         Program Version 5.0.3 -  RELEASE  -
|  1> ! B3LYP 6-31G
|  2> !TightSCF
|  3> %scf
|  4>  ConvForced true
|  5>  convergence tight
|  6>  MaxIter 500
|  7> end
|  8>
|  9> %tddft
| 10>  nroots 1
| 11> end
| 12>
| 13> # 	1712
| 14> * xyz 0 1
| 15> 		C   -1.191185  -0.370645  -0.017853
| 16> 		O   -1.652912  -1.176933  -0.797394
| 17> 		C   -0.030496   0.528799  -0.192664
| 18> 		C    1.176303   0.005699   0.193613
| 19> 		H   -1.613971  -0.253367   0.945976
| 20> 		H   -0.254995   1.452115  -0.784583
| 21> 		H    1.401451  -0.916964   0.614897
| 22> 		H    2.050879   0.687884   0.044863
| 23> *
| 24>
| 25>                          ****END OF INPUT****

CARTESIAN COORDINATES (ANGSTROEM)
---------------------------------
  C     -1.191185   -0.370645   -0.017853
  O     -1.652912   -1.176933   -0.797394
  C     -0.030496    0.528799   -0.192664
  C      1.176303    0.005699    0.193613
  H     -1.613971   -0.253367    0.945976
  H     -0.254995    1.452115   -0.784583
  H      1.401451   -0.916964    0.614897
  H      2.050879    0.687884    0.044863

 Total Charge           Charge          ....    0
 Multiplicity           Mult            ....    1
 Number of Electrons    NEL             ....   30
 Basis Dimension        Dim             ....   44

ORBITAL ENERGIES
----------------

  NO   OCC          E(Eh)            E(eV)
   0   2.0000     -19.154154      -521.2110
   1   2.0000     -10.275416      -279.6083
   2   2.0000     -10.213158      -277.9142
   3   2.0000     -10.206252      -277.7262
   4   2.0000      -1.070687       -29.1349
   5   2.0000      -0.797526       -21.7018
   6   2.0000      -0.659154       -17.9365
   7   2.0000      -0.569966       -15.5096
   8   2.0000      -0.494365       -13.4524
   9   2.0000      -0.467154       -12.7119
  10   2.0000      -0.441243       -12.0068
  11   2.0000      -0.392802       -10.6887
  12   2.0000      -0.377207       -10.2643
  13   2.0000      -0.280816        -7.6414
  14   2.0000      -0.252468        -6.8700
  15   0.0000      -0.036586        -0.9956
  16   0.0000      -0.012838        -0.3493
  17   0.0000       0.110362         3.0031
  18   0.0000       0.131823         3.5871
  19   0.0000       0.148027         4.0280

MULLIKEN ATOMIC CHARGES
-----------------------
   0 C :    0.152263
   1 O :   -0.346635
   2 C :   -0.127000
   3 C :   -0.268992
   4 H :    0.116492
   5 H :    0.176356
   6 H :    0.158131
   7 H :    0.139385
Sum of atomic charges:   -0.0000000

LOEWDIN ATOMIC CHARGES
----------------------
   0 C :    0.116043
   1 O :   -0.219110
   2 C :   -0.161751
   3 C :   -0.202591
   4 H :    0.075612
   5 H :    0.144091
   6 H :    0.127547
   7 H :    0.120159

  Mayer bond orders larger than 0.100000
B(  0-C ,  1-O ) :   1.9369 B(  0-C ,  2-C ) :   0.9164 B(  0-C ,  4-H ) :   0.8818
B(  2-C ,  3-C ) :   1.9465 B(  2-C ,  5-H ) :   0.9205 B(  3-C ,  6-H ) :   0.9408
B(  3-C ,  7-H ) :   0.9486

-----------------------------------------------------------------------------
         ABSORPTION SPECTRUM VIA TRANSITION ELECTRIC DIPOLE MOMENTS
-----------------------------------------------------------------------------
State   Energy    Wavelength  fosc         T2        TX        TY        TZ
        (cm-1)      (nm)                 (au**2)    (au)      (au)      (au)
-----------------------------------------------------------------------------
   1   32080.4    311.7   0.000003264   0.00003   0.00522  -0.00240  -0.00069

FINAL SINGLE POINT ENERGY      -191.569627087964

DIPOLE MOMENT
-------------
                                X             Y             Z
Electronic contribution:     -2.57103      -1.23692      -1.01556
Nuclear contribution   :      3.16750       1.95974       1.57392
                        -----------------------------------------
Total Dipole Moment    :      0.59647       0.72282       0.55835
                        -----------------------------------------
Magnitude (a.u.)       :      1.09087
Magnitude (Debye)      :      2.77278

Rotational constants in cm-1:     0.942222     0.170456     0.159226
Rotational constants in MHz : 28247.090372  5110.131466  4773.479102

                             ****ORCA TERMINATED NORMALLY****
TOTAL RUN TIME: 0 days 0 hours 1 minutes 1 seconds 665 msec
