                         Program Version 5.0.3 -  RELEASE  -
|  1> ! B3LYP 6-31G
|  2> !TightSCF
|  3> %scf
|  4>  ConvForced true
|  5>  convergence tight
|  6>  MaxIter 500
|  7> end
|  8>
|  9> %tddft
| 10>  nroots 1
| 11> end
| 12>
| 13> # 	9149
| 14> * xyz 0 1
| 15> 		C   -1.178476  -0.323308  -0.034187
| 16> 		O   -1.479548  -1.321740   0.623344
| 17> 		C    0.021511   0.455995   0.247810
| 18> 		C    1.172128  -0.005792  -0.167969
| 19> 		H   -1.774504   0.121878  -0.829008
| 20> 		H   -0.227158   1.502261   0.538549
| 21> 		H    1.287715  -1.049962  -0.398408
| 22> 		H    2.175451   0.569139   0.024528
| 23> *
| 24>
| 25>                          ****END OF INPUT****

CARTESIAN COORDINATES (ANGSTROEM)
---------------------------------
  C     -1.178476   -0.323308   -0.034187
  O     -1.479548   -1.321740    0.623344
  C      0.021511    0.455995    0.247810
  C      1.172128   -0.005792   -0.167969
  H     -1.774504    0.121878   -0.829008
  H     -0.227158    1.502261    0.538549
  H      1.287715   -1.049962   -0.398408
  H      2.175451    0.569139    0.024528

 Total Charge           Charge          ....    0
 Multiplicity           Mult            ....    1
 Number of Electrons    NEL             ....   30
 Basis Dimension        Dim             ....   44

ORBITAL ENERGIES
----------------

  NO   OCC          E(Eh)            E(eV)
   0   2.0000     -19.155174      -521.2388
   1   2.0000     -10.280368      -279.7430
   2   2.0000     -10.205613      -277.7088
   3   2.0000     -10.203460      -277.6503
   4   2.0000      -1.061134       -28.8749
   5   2.0000      -0.810588       -22.0572
   6   2.0000      -0.662069       -18.0158
   7   2.0000      -0.555078       -15.1044
   8   2.0000      -0.505823       -13.7642
   9   2.0000      -0.459924       -12.5152
  10   2.0000      -0.438404       -11.9296
  11   2.0000      -0.381105       -10.3704
  12   2.0000      -0.375649       -10.2219
  13   2.0000      -0.292119        -7.9490
  14   2.0000      -0.255690        -6.9577
  15   0.0000      -0.043496        -1.1836
  16   0.0000       0.002320         0.0631
  17   0.0000       0.101215         2.7542
  18   0.0000       0.124537         3.3888
  19   0.0000       0.140954         3.8355

MULLIKEN ATOMIC CHARGES
-----------------------
   0 C :    0.165333
   1 O :   -0.371197
   2 C :   -0.094738
   3 C :   -0.280156
   4 H :    0.126554
   5 H :    0.159164
   6 H :    0.156765
   7 H :    0.138274
Sum of atomic charges:   -0.0000000

LOEWDIN ATOMIC CHARGES
----------------------
   0 C :    0.119516
   1 O :   -0.229905
   2 C :   -0.159144
   3 C :   -0.193291
   4 H :    0.084964
   5 H :    0.132022
   6 H :    0.125848
   7 H :    0.119992

  Mayer bond orders larger than 0.100000
B(  0-C ,  1-O ) :   1.8930 B(  0-C ,  2-C ) :   0.9511 B(  0-C ,  4-H ) :   0.8673
B(  2-C ,  3-C ) :   1.9347 B(  2-C ,  5-H ) :   0.9170 B(  3-C ,  6-H ) :   0.9392
B(  3-C ,  7-H ) :   0.9435

-----------------------------------------------------------------------------
         ABSORPTION SPECTRUM VIA TRANSITION ELECTRIC DIPOLE MOMENTS
-----------------------------------------------------------------------------
State   Energy    Wavelength  fosc         T2        TX        TY        TZ
        (cm-1)      (nm)                 (au**2)    (au)      (au)      (au)
-----------------------------------------------------------------------------
   1   31348.1    319.0   0.000004767   0.00005   0.00627   0.00206  -0.00255

FINAL SINGLE POINT ENERGY      -191.575908981223

DIPOLE MOMENT
-------------
                                X             Y             Z
Electronic contribution:     -2.37666      -1.42086       0.79012
Nuclear contribution   :      2.82874       2.29426      -1.27607
                        -----------------------------------------
Total Dipole Moment    :      0.45208       0.87340      -0.48596
                        -----------------------------------------
Magnitude (a.u.)       :      1.09697
Magnitude (Debye)      :      2.78829

Rotational constants in cm-1:     0.875857     0.186766     0.166750
Rotational constants in MHz : 26257.534965  5599.101201  4999.052600

                             ****ORCA TERMINATED NORMALLY****
TOTAL RUN TIME: 0 days 0 hours 1 minutes 0 seconds 893 msec
