                         Program Version 5.0.3 -  RELEASE  -
|  1> ! B3LYP 6-31G
|  2> !TightSCF
|  3> %scf
|  4>  ConvForced true
|  5>  convergence tight
|  6>  MaxIter 500
|  7> end
|  8>
|  9> %tddft
| 10>  nroots 1
| 11> end
| 12>
| 13> # 	7055
| 14> * xyz 0 1
| 15> 		C   -1.187130  -0.320175   0.066885
| 16> 		O   -1.948406  -0.651118   0.926946
| 17> 		C    0.021842   0.534108   0.222075
| 18> 		C    1.226710  -0.029485  -0.119924
| 19> 		H   -1.578094  -0.779149  -0.958025
| 20> 		H    0.006124   1.452917   0.751505
| 21> 		H    1.393999  -0.825014  -0.720525
| 22> 		H    2.077719   0.614208  -0.116896
| 23> *
| 24>
| 25>                          ****END OF INPUT****

CARTESIAN COORDINATES (ANGSTROEM)
---------------------------------
  C     -1.187130   -0.320175    0.066885
  O     -1.948406   -0.651118    0.926946
  C      0.021842    0.534108    0.222075
  C      1.226710   -0.029485   -0.119924
  H     -1.578094   -0.779149   -0.958025
  H      0.006124    1.452917    0.751505
  H      1.393999   -0.825014   -0.720525
  H      2.077719    0.614208   -0.116896

 Total Charge           Charge          ....    0
 Multiplicity           Mult            ....    1
 Number of Electrons    NEL             ....   30
 Basis Dimension        Dim             ....   44

ORBITAL ENERGIES
----------------

  NO   OCC          E(Eh)            E(eV)
   0   2.0000     -19.148594      -521.0597
   1   2.0000     -10.286236      -279.9027
   2   2.0000     -10.215729      -277.9841
   3   2.0000     -10.202650      -277.6282
   4   2.0000      -1.082152       -29.4469
   5   2.0000      -0.800936       -21.7946
   6   2.0000      -0.652043       -17.7430
   7   2.0000      -0.569405       -15.4943
   8   2.0000      -0.497103       -13.5269
   9   2.0000      -0.470318       -12.7980
  10   2.0000      -0.433416       -11.7939
  11   2.0000      -0.401616       -10.9285
  12   2.0000      -0.386475       -10.5165
  13   2.0000      -0.287234        -7.8160
  14   2.0000      -0.248167        -6.7530
  15   0.0000      -0.054597        -1.4857
  16   0.0000       0.008223         0.2238
  17   0.0000       0.110289         3.0011
  18   0.0000       0.131442         3.5767
  19   0.0000       0.146634         3.9901

MULLIKEN ATOMIC CHARGES
-----------------------
   0 C :    0.146394
   1 O :   -0.336298
   2 C :   -0.112770
   3 C :   -0.255646
   4 H :    0.100357
   5 H :    0.167262
   6 H :    0.149593
   7 H :    0.141108
Sum of atomic charges:   -0.0000000

LOEWDIN ATOMIC CHARGES
----------------------
   0 C :    0.108058
   1 O :   -0.222266
   2 C :   -0.145225
   3 C :   -0.193776
   4 H :    0.073880
   5 H :    0.139306
   6 H :    0.120241
   7 H :    0.119783

  Mayer bond orders larger than 0.100000
B(  0-C ,  1-O ) :   1.8980 B(  0-C ,  2-C ) :   0.9310 B(  0-C ,  4-H ) :   0.8857
B(  2-C ,  3-C ) :   1.9136 B(  2-C ,  5-H ) :   0.9294 B(  3-C ,  6-H ) :   0.9463
B(  3-C ,  7-H ) :   0.9480

-----------------------------------------------------------------------------
         ABSORPTION SPECTRUM VIA TRANSITION ELECTRIC DIPOLE MOMENTS
-----------------------------------------------------------------------------
State   Energy    Wavelength  fosc         T2        TX        TY        TZ
        (cm-1)      (nm)                 (au**2)    (au)      (au)      (au)
-----------------------------------------------------------------------------
   1   29598.4    337.9   0.000563517   0.00627  -0.07102   0.01512   0.03154

FINAL SINGLE POINT ENERGY      -191.572698059151

DIPOLE MOMENT
-------------
                                X             Y             Z
Electronic contribution:     -2.76539      -0.51401       1.36762
Nuclear contribution   :      3.67001       0.94451      -2.02800
                        -----------------------------------------
Total Dipole Moment    :      0.90462       0.43051      -0.66038
                        -----------------------------------------
Magnitude (a.u.)       :      1.19991
Magnitude (Debye)      :      3.04992

Rotational constants in cm-1:     1.179874     0.157901     0.150887
Rotational constants in MHz : 35371.743504  4733.761645  4523.492914

                             ****ORCA TERMINATED NORMALLY****
TOTAL RUN TIME: 0 days 0 hours 0 minutes 56 seconds 953 msec
