                         Program Version 5.0.3 -  RELEASE  -
|  1> ! B3LYP 6-31G
|  2> !TightSCF
|  3> %scf
|  4>  ConvForced true
|  5>  convergence tight
|  6>  MaxIter 500
|  7> end
|  8>
|  9> %tddft
| 10>  nroots 1
| 11> end
| 12>
| 13> # 	8459
| 14> * xyz 0 1
| 15> 		C   -1.102910  -0.385706  -0.173517
| 16> 		O   -2.178392  -0.072415  -0.670992
| 17> 		C    0.061409   0.278939  -0.446298
| 18> 		C    1.178498   0.184277   0.380321
| 19> 		H   -1.069710  -1.158328   0.624618
| 20> 		H   -0.044009   1.261330  -1.089785
| 21> 		H    1.041101  -0.632762   1.235744
| 22> 		H    2.182096   0.582735   0.127722
| 23> *
| 24>
| 25>                          ****END OF INPUT****

CARTESIAN COORDINATES (ANGSTROEM)
---------------------------------
  C     -1.102910   -0.385706   -0.173517
  O     -2.178392   -0.072415   -0.670992
  C      0.061409    0.278939   -0.446298
  C      1.178498    0.184277    0.380321
  H     -1.069710   -1.158328    0.624618
  H     -0.044009    1.261330   -1.089785
  H      1.041101   -0.632762    1.235744
  H      2.182096    0.582735    0.127722

 Total Charge           Charge          ....    0
 Multiplicity           Mult            ....    1
 Number of Electrons    NEL             ....   30
 Basis Dimension        Dim             ....   44

ORBITAL ENERGIES
----------------

  NO   OCC          E(Eh)            E(eV)
   0   2.0000     -19.142540      -520.8950
   1   2.0000     -10.268150      -279.4106
   2   2.0000     -10.239718      -278.6369
   3   2.0000     -10.215957      -277.9903
   4   2.0000      -1.058718       -28.8092
   5   2.0000      -0.811430       -22.0801
   6   2.0000      -0.660874       -17.9833
   7   2.0000      -0.567868       -15.4525
   8   2.0000      -0.478682       -13.0256
   9   2.0000      -0.470446       -12.8015
  10   2.0000      -0.414076       -11.2676
  11   2.0000      -0.404034       -10.9943
  12   2.0000      -0.377758       -10.2793
  13   2.0000      -0.284980        -7.7547
  14   2.0000      -0.254558        -6.9269
  15   0.0000      -0.084049        -2.2871
  16   0.0000       0.048929         1.3314
  17   0.0000       0.081479         2.2172
  18   0.0000       0.100193         2.7264
  19   0.0000       0.156450         4.2572

MULLIKEN ATOMIC CHARGES
-----------------------
   0 C :    0.171164
   1 O :   -0.388993
   2 C :   -0.077769
   3 C :   -0.278106
   4 H :    0.107279
   5 H :    0.157275
   6 H :    0.142929
   7 H :    0.166221
Sum of atomic charges:   -0.0000000

LOEWDIN ATOMIC CHARGES
----------------------
   0 C :    0.087538
   1 O :   -0.238849
   2 C :   -0.157851
   3 C :   -0.161982
   4 H :    0.077052
   5 H :    0.135248
   6 H :    0.121200
   7 H :    0.137643

  Mayer bond orders larger than 0.100000
B(  0-C ,  1-O ) :   1.7905 B(  0-C ,  2-C ) :   1.0571 B(  0-C ,  4-H ) :   0.8864
B(  1-O ,  3-C ) :   0.1479 B(  2-C ,  3-C ) :   1.7515 B(  2-C ,  5-H ) :   0.9278
B(  3-C ,  6-H ) :   0.9399 B(  3-C ,  7-H ) :   0.9343

-----------------------------------------------------------------------------
         ABSORPTION SPECTRUM VIA TRANSITION ELECTRIC DIPOLE MOMENTS
-----------------------------------------------------------------------------
State   Energy    Wavelength  fosc         T2        TX        TY        TZ
        (cm-1)      (nm)                 (au**2)    (au)      (au)      (au)
-----------------------------------------------------------------------------
   1   25163.4    397.4   0.000604670   0.00791   0.07334   0.02544   0.04342

FINAL SINGLE POINT ENERGY      -191.599412225859

DIPOLE MOMENT
-------------
                                X             Y             Z
Electronic contribution:     -2.71905      -0.09753      -1.21237
Nuclear contribution   :      4.03544       0.06033       1.68670
                        -----------------------------------------
Total Dipole Moment    :      1.31638      -0.03719       0.47433
                        -----------------------------------------
Magnitude (a.u.)       :      1.39973
Magnitude (Debye)      :      3.55782

Rotational constants in cm-1:     1.537851     0.159829     0.145993
Rotational constants in MHz : 46103.598997  4791.562281  4376.750106

                             ****ORCA TERMINATED NORMALLY****
TOTAL RUN TIME: 0 days 0 hours 1 minutes 1 seconds 387 msec
