                         Program Version 5.0.3 -  RELEASE  -
|  1> ! B3LYP 6-31G
|  2> !TightSCF
|  3> %scf
|  4>  ConvForced true
|  5>  convergence tight
|  6>  MaxIter 500
|  7> end
|  8>
|  9> %tddft
| 10>  nroots 1
| 11> end
| 12>
| 13> # 	31252
| 14> * xyz 0 1
| 15> 		C   -0.617587  -0.407666   0.001834
| 16> 		O   -0.508386  -1.604787  -0.009769
| 17> 		C    0.576600   0.413506   0.003674
| 18> 		C    1.846857  -0.194540  -0.008189
| 19> 		H   -1.560495   0.281469   0.082995
| 20> 		H    0.412210   1.511682  -0.031162
| 21> 		H    1.799937  -1.266501   0.192000
| 22> 		H    2.817222   0.472762  -0.065825
| 23> *
| 24>
| 25>                          ****END OF INPUT****

CARTESIAN COORDINATES (ANGSTROEM)
---------------------------------
  C     -0.617587   -0.407666    0.001834
  O     -0.508386   -1.604787   -0.009769
  C      0.576600    0.413506    0.003674
  C      1.846857   -0.194540   -0.008189
  H     -1.560495    0.281469    0.082995
  H      0.412210    1.511682   -0.031162
  H      1.799937   -1.266501    0.192000
  H      2.817222    0.472762   -0.065825

 Total Charge           Charge          ....    0
 Multiplicity           Mult            ....    1
 Number of Electrons    NEL             ....   30
 Basis Dimension        Dim             ....   44

ORBITAL ENERGIES
----------------

  NO   OCC          E(Eh)            E(eV)
   0   2.0000     -19.150895      -521.1223
   1   2.0000     -10.280763      -279.7538
   2   2.0000     -10.224381      -278.2196
   3   2.0000     -10.205162      -277.6966
   4   2.0000      -1.078994       -29.3609
   5   2.0000      -0.784896       -21.3581
   6   2.0000      -0.659026       -17.9330
   7   2.0000      -0.528684       -14.3862
   8   2.0000      -0.508108       -13.8263
   9   2.0000      -0.446067       -12.1381
  10   2.0000      -0.415615       -11.3095
  11   2.0000      -0.408492       -11.1156
  12   2.0000      -0.384942       -10.4748
  13   2.0000      -0.274727        -7.4757
  14   2.0000      -0.258167        -7.0251
  15   0.0000      -0.076612        -2.0847
  16   0.0000       0.061039         1.6609
  17   0.0000       0.087595         2.3836
  18   0.0000       0.106070         2.8863
  19   0.0000       0.155376         4.2280

MULLIKEN ATOMIC CHARGES
-----------------------
   0 C :    0.202047
   1 O :   -0.385655
   2 C :   -0.138236
   3 C :   -0.249994
   4 H :    0.104955
   5 H :    0.132838
   6 H :    0.182091
   7 H :    0.151953
Sum of atomic charges:   -0.0000000

LOEWDIN ATOMIC CHARGES
----------------------
   0 C :    0.103389
   1 O :   -0.225434
   2 C :   -0.193400
   3 C :   -0.152857
   4 H :    0.072630
   5 H :    0.116892
   6 H :    0.144988
   7 H :    0.133792

  Mayer bond orders larger than 0.100000
B(  0-C ,  1-O ) :   1.8293 B(  0-C ,  2-C ) :   1.0097 B(  0-C ,  4-H ) :   0.8597
B(  1-O ,  3-C ) :   0.1101 B(  2-C ,  3-C ) :   1.8345 B(  2-C ,  5-H ) :   0.9302
B(  3-C ,  6-H ) :   0.9220 B(  3-C ,  7-H ) :   0.9394

-----------------------------------------------------------------------------
         ABSORPTION SPECTRUM VIA TRANSITION ELECTRIC DIPOLE MOMENTS
-----------------------------------------------------------------------------
State   Energy    Wavelength  fosc         T2        TX        TY        TZ
        (cm-1)      (nm)                 (au**2)    (au)      (au)      (au)
-----------------------------------------------------------------------------
   1   27164.3    368.1   0.000172022   0.00208   0.02992  -0.01012  -0.03297

FINAL SINGLE POINT ENERGY      -191.596193630626

DIPOLE MOMENT
-------------
                                X             Y             Z
Electronic contribution:     -1.69731      -1.76451      -0.11486
Nuclear contribution   :      2.10092       2.72386       0.16747
                        -----------------------------------------
Total Dipole Moment    :      0.40361       0.95935       0.05260
                        -----------------------------------------
Magnitude (a.u.)       :      1.04212
Magnitude (Debye)      :      2.64886

Rotational constants in cm-1:     0.693777     0.224228     0.169636
Rotational constants in MHz : 20798.918680  6722.173346  5085.553545

                             ****ORCA TERMINATED NORMALLY****
TOTAL RUN TIME: 0 days 0 hours 1 minutes 2 seconds 781 msec
