                         Program Version 5.0.3 -  RELEASE  -
|  1> ! B3LYP 6-31G
|  2> !TightSCF
|  3> %scf
|  4>  ConvForced true
|  5>  convergence tight
|  6>  MaxIter 500
|  7> end
|  8>
|  9> %tddft
| 10>  nroots 1
| 11> end
| 12>
| 13> # 	1607
| 14> * xyz 0 1
| 15> 		C   -1.227507  -0.344128   0.010117
| 16> 		O   -1.363430  -1.485934  -0.338051
| 17> 		C    0.020252   0.481622  -0.123386
| 18> 		C    1.234909   0.080135   0.025854
| 19> 		H   -2.067116   0.322403   0.585655
| 20> 		H   -0.180574   1.483856  -0.316257
| 21> 		H    1.324645  -1.107061   0.272096
| 22> 		H    2.275084   0.560814  -0.126398
| 23> *
| 24>
| 25>                          ****END OF INPUT****

CARTESIAN COORDINATES (ANGSTROEM)
---------------------------------
  C     -1.227507   -0.344128    0.010117
  O     -1.363430   -1.485934   -0.338051
  C      0.020252    0.481622   -0.123386
  C      1.234909    0.080135    0.025854
  H     -2.067116    0.322403    0.585655
  H     -0.180574    1.483856   -0.316257
  H      1.324645   -1.107061    0.272096
  H      2.275084    0.560814   -0.126398

 Total Charge           Charge          ....    0
 Multiplicity           Mult            ....    1
 Number of Electrons    NEL             ....   30
 Basis Dimension        Dim             ....   44

ORBITAL ENERGIES
----------------

  NO   OCC          E(Eh)            E(eV)
   0   2.0000     -19.163682      -521.4703
   1   2.0000     -10.295168      -280.1458
   2   2.0000     -10.218205      -278.0515
   3   2.0000     -10.197795      -277.4961
   4   2.0000      -1.084815       -29.5193
   5   2.0000      -0.806793       -21.9539
   6   2.0000      -0.652000       -17.7418
   7   2.0000      -0.538010       -14.6400
   8   2.0000      -0.506331       -13.7780
   9   2.0000      -0.458189       -12.4680
  10   2.0000      -0.442463       -12.0400
  11   2.0000      -0.401491       -10.9251
  12   2.0000      -0.360371        -9.8062
  13   2.0000      -0.297787        -8.1032
  14   2.0000      -0.261076        -7.1042
  15   0.0000      -0.058036        -1.5792
  16   0.0000       0.045851         1.2477
  17   0.0000       0.085071         2.3149
  18   0.0000       0.101099         2.7510
  19   0.0000       0.137227         3.7341

MULLIKEN ATOMIC CHARGES
-----------------------
   0 C :    0.189426
   1 O :   -0.349427
   2 C :   -0.102595
   3 C :   -0.266117
   4 H :    0.089536
   5 H :    0.140158
   6 H :    0.136945
   7 H :    0.162073
Sum of atomic charges:   -0.0000000

LOEWDIN ATOMIC CHARGES
----------------------
   0 C :    0.127471
   1 O :   -0.204519
   2 C :   -0.189300
   3 C :   -0.167795
   4 H :    0.062197
   5 H :    0.122310
   6 H :    0.116295
   7 H :    0.133341

  Mayer bond orders larger than 0.100000
B(  0-C ,  1-O ) :   1.9044 B(  0-C ,  2-C ) :   0.9334 B(  0-C ,  4-H ) :   0.8495
B(  2-C ,  3-C ) :   1.9092 B(  2-C ,  5-H ) :   0.9277 B(  3-C ,  6-H ) :   0.9437
B(  3-C ,  7-H ) :   0.9310

-----------------------------------------------------------------------------
         ABSORPTION SPECTRUM VIA TRANSITION ELECTRIC DIPOLE MOMENTS
-----------------------------------------------------------------------------
State   Energy    Wavelength  fosc         T2        TX        TY        TZ
        (cm-1)      (nm)                 (au**2)    (au)      (au)      (au)
-----------------------------------------------------------------------------
   1   30888.8    323.7   0.000216799   0.00231   0.03599   0.00333   0.03169

FINAL SINGLE POINT ENERGY      -191.569889115641

DIPOLE MOMENT
-------------
                                X             Y             Z
Electronic contribution:     -2.09405      -1.55899      -0.57132
Nuclear contribution   :      2.60025       2.49670       0.79032
                        -----------------------------------------
Total Dipole Moment    :      0.50619       0.93771       0.21901
                        -----------------------------------------
Magnitude (a.u.)       :      1.08789
Magnitude (Debye)      :      2.76519

Rotational constants in cm-1:     0.845272     0.187332     0.157135
Rotational constants in MHz : 25340.612709  5616.079643  4710.781489

                             ****ORCA TERMINATED NORMALLY****
TOTAL RUN TIME: 0 days 0 hours 0 minutes 56 seconds 408 msec
