                         Program Version 5.0.3 -  RELEASE  -
|  1> ! B3LYP 6-31G
|  2> !TightSCF
|  3> %scf
|  4>  ConvForced true
|  5>  convergence tight
|  6>  MaxIter 500
|  7> end
|  8>
|  9> %tddft
| 10>  nroots 1
| 11> end
| 12>
| 13> # 	8181
| 14> * xyz 0 1
| 15> 		C   -1.156805  -0.285858   0.026034
| 16> 		O   -1.186618  -1.449086  -0.153517
| 17> 		C   -0.007902   0.540724   0.013913
| 18> 		C    1.233766  -0.057373  -0.026908
| 19> 		H   -2.236225   0.142641   0.099187
| 20> 		H   -0.096328   1.627963  -0.247120
| 21> 		H    1.252787  -1.165061   0.307896
| 22> 		H    2.172448   0.610155  -0.005528
| 23> *
| 24>
| 25>                          ****END OF INPUT****

CARTESIAN COORDINATES (ANGSTROEM)
---------------------------------
  C     -1.156805   -0.285858    0.026034
  O     -1.186618   -1.449086   -0.153517
  C     -0.007902    0.540724    0.013913
  C      1.233766   -0.057373   -0.026908
  H     -2.236225    0.142641    0.099187
  H     -0.096328    1.627963   -0.247120
  H      1.252787   -1.165061    0.307896
  H      2.172448    0.610155   -0.005528

 Total Charge           Charge          ....    0
 Multiplicity           Mult            ....    1
 Number of Electrons    NEL             ....   30
 Basis Dimension        Dim             ....   44

ORBITAL ENERGIES
----------------

  NO   OCC          E(Eh)            E(eV)
   0   2.0000     -19.141729      -520.8729
   1   2.0000     -10.273232      -279.5489
   2   2.0000     -10.227732      -278.3107
   3   2.0000     -10.209785      -277.8224
   4   2.0000      -1.090297       -29.6685
   5   2.0000      -0.799543       -21.7567
   6   2.0000      -0.653876       -17.7929
   7   2.0000      -0.529961       -14.4210
   8   2.0000      -0.520233       -14.1563
   9   2.0000      -0.440634       -11.9903
  10   2.0000      -0.423714       -11.5298
  11   2.0000      -0.412118       -11.2143
  12   2.0000      -0.381153       -10.3717
  13   2.0000      -0.285886        -7.7794
  14   2.0000      -0.248522        -6.7626
  15   0.0000      -0.072583        -1.9751
  16   0.0000       0.057683         1.5696
  17   0.0000       0.093267         2.5379
  18   0.0000       0.111235         3.0269
  19   0.0000       0.148359         4.0371

MULLIKEN ATOMIC CHARGES
-----------------------
   0 C :    0.143398
   1 O :   -0.342094
   2 C :   -0.112122
   3 C :   -0.252944
   4 H :    0.088298
   5 H :    0.151534
   6 H :    0.175023
   7 H :    0.148908
Sum of atomic charges:   -0.0000000

LOEWDIN ATOMIC CHARGES
----------------------
   0 C :    0.092597
   1 O :   -0.224679
   2 C :   -0.185439
   3 C :   -0.149098
   4 H :    0.064563
   5 H :    0.129763
   6 H :    0.142145
   7 H :    0.130149

  Mayer bond orders larger than 0.100000
B(  0-C ,  1-O ) :   1.8872 B(  0-C ,  2-C ) :   0.9904 B(  0-C ,  4-H ) :   0.8886
B(  1-O ,  3-C ) :   0.1128 B(  2-C ,  3-C ) :   1.8177 B(  2-C ,  5-H ) :   0.9304
B(  3-C ,  6-H ) :   0.9291 B(  3-C ,  7-H ) :   0.9376

-----------------------------------------------------------------------------
         ABSORPTION SPECTRUM VIA TRANSITION ELECTRIC DIPOLE MOMENTS
-----------------------------------------------------------------------------
State   Energy    Wavelength  fosc         T2        TX        TY        TZ
        (cm-1)      (nm)                 (au**2)    (au)      (au)      (au)
-----------------------------------------------------------------------------
   1   26344.5    379.6   0.000245465   0.00307   0.03740   0.01361  -0.03852

FINAL SINGLE POINT ENERGY      -191.593167081332

DIPOLE MOMENT
-------------
                                X             Y             Z
Electronic contribution:     -1.61844      -1.49018      -0.14408
Nuclear contribution   :      2.15359       2.43531       0.28668
                        -----------------------------------------
Total Dipole Moment    :      0.53515       0.94513       0.14260
                        -----------------------------------------
Magnitude (a.u.)       :      1.09544
Magnitude (Debye)      :      2.78439

Rotational constants in cm-1:     0.760364     0.217585     0.170399
Rotational constants in MHz : 22795.125961  6523.023373  5108.432142

                             ****ORCA TERMINATED NORMALLY****
TOTAL RUN TIME: 0 days 0 hours 1 minutes 1 seconds 555 msec
