                         Program Version 5.0.3 -  RELEASE  -
|  1> ! B3LYP 6-31G
|  2> !TightSCF
|  3> %scf
|  4>  ConvForced true
|  5>  convergence tight
|  6>  MaxIter 500
|  7> end
|  8>
|  9> %tddft
| 10>  nroots 1
| 11> end
| 12>
| 13> # 	10587
| 14> * xyz 0 1
| 15> 		C   -1.212197  -0.372176   0.012533
| 16> 		O   -1.394870  -1.502632   0.467514
| 17> 		C    0.021273   0.511760   0.179431
| 18> 		C    1.204197   0.045008  -0.155141
| 19> 		H   -1.922596   0.069662  -0.677354
| 20> 		H   -0.087872   1.592135   0.496445
| 21> 		H    1.418331  -1.009477  -0.364635
| 22> 		H    1.979048   0.678846   0.052877
| 23> *
| 24>
| 25>                          ****END OF INPUT****

CARTESIAN COORDINATES (ANGSTROEM)
---------------------------------
  C     -1.212197   -0.372176    0.012533
  O     -1.394870   -1.502632    0.467514
  C      0.021273    0.511760    0.179431
  C      1.204197    0.045008   -0.155141
  H     -1.922596    0.069662   -0.677354
  H     -0.087872    1.592135    0.496445
  H      1.418331   -1.009477   -0.364635
  H      1.979048    0.678846    0.052877

 Total Charge           Charge          ....    0
 Multiplicity           Mult            ....    1
 Number of Electrons    NEL             ....   30
 Basis Dimension        Dim             ....   44

ORBITAL ENERGIES
----------------

  NO   OCC          E(Eh)            E(eV)
   0   2.0000     -19.157734      -521.3084
   1   2.0000     -10.284315      -279.8504
   2   2.0000     -10.209168      -277.8056
   3   2.0000     -10.193442      -277.3777
   4   2.0000      -1.060743       -28.8643
   5   2.0000      -0.803224       -21.8568
   6   2.0000      -0.658504       -17.9188
   7   2.0000      -0.552447       -15.0328
   8   2.0000      -0.510281       -13.8855
   9   2.0000      -0.448228       -12.1969
  10   2.0000      -0.440038       -11.9741
  11   2.0000      -0.391909       -10.6644
  12   2.0000      -0.379433       -10.3249
  13   2.0000      -0.291245        -7.9252
  14   2.0000      -0.256690        -6.9849
  15   0.0000      -0.051967        -1.4141
  16   0.0000       0.016665         0.4535
  17   0.0000       0.108473         2.9517
  18   0.0000       0.126693         3.4475
  19   0.0000       0.146174         3.9776

MULLIKEN ATOMIC CHARGES
-----------------------
   0 C :    0.180058
   1 O :   -0.367537
   2 C :   -0.133127
   3 C :   -0.250052
   4 H :    0.116746
   5 H :    0.153668
   6 H :    0.164959
   7 H :    0.135284
Sum of atomic charges:   -0.0000000

LOEWDIN ATOMIC CHARGES
----------------------
   0 C :    0.128691
   1 O :   -0.229724
   2 C :   -0.164758
   3 C :   -0.195873
   4 H :    0.079024
   5 H :    0.130130
   6 H :    0.132666
   7 H :    0.119844

  Mayer bond orders larger than 0.100000
B(  0-C ,  1-O ) :   1.9011 B(  0-C ,  2-C ) :   0.9248 B(  0-C ,  4-H ) :   0.8769
B(  2-C ,  3-C ) :   1.9312 B(  2-C ,  5-H ) :   0.9257 B(  3-C ,  6-H ) :   0.9423
B(  3-C ,  7-H ) :   0.9469

-----------------------------------------------------------------------------
         ABSORPTION SPECTRUM VIA TRANSITION ELECTRIC DIPOLE MOMENTS
-----------------------------------------------------------------------------
State   Energy    Wavelength  fosc         T2        TX        TY        TZ
        (cm-1)      (nm)                 (au**2)    (au)      (au)      (au)
-----------------------------------------------------------------------------
   1   30327.8    329.7   0.000129264   0.00140  -0.03115  -0.01389   0.01549

FINAL SINGLE POINT ENERGY      -191.586267109468

DIPOLE MOMENT
-------------
                                X             Y             Z
Electronic contribution:     -2.22480      -1.62349       0.63330
Nuclear contribution   :      2.67555       2.60301      -0.95428
                        -----------------------------------------
Total Dipole Moment    :      0.45075       0.97953      -0.32098
                        -----------------------------------------
Magnitude (a.u.)       :      1.12502
Magnitude (Debye)      :      2.85958

Rotational constants in cm-1:     0.836619     0.182853     0.157201
Rotational constants in MHz : 25081.200492  5481.789573  4712.763744

                             ****ORCA TERMINATED NORMALLY****
TOTAL RUN TIME: 0 days 0 hours 0 minutes 58 seconds 681 msec
