                         Program Version 5.0.3 -  RELEASE  -
|  1> ! B3LYP 6-31G
|  2> !TightSCF
|  3> %scf
|  4>  ConvForced true
|  5>  convergence tight
|  6>  MaxIter 500
|  7> end
|  8>
|  9> %tddft
| 10>  nroots 1
| 11> end
| 12>
| 13> # 	29626
| 14> * xyz 0 1
| 15> 		C   -0.592339  -0.452953   0.047995
| 16> 		O   -0.556082  -1.592700  -0.023029
| 17> 		C    0.620954   0.451224  -0.040080
| 18> 		C    1.837274  -0.191310   0.023081
| 19> 		H   -1.488344   0.012906   0.005517
| 20> 		H    0.607269   1.500481  -0.000105
| 21> 		H    1.982408  -1.302722   0.074629
| 22> 		H    2.486234   0.614799  -0.090464
| 23> *
| 24>
| 25>                          ****END OF INPUT****

CARTESIAN COORDINATES (ANGSTROEM)
---------------------------------
  C     -0.592339   -0.452953    0.047995
  O     -0.556082   -1.592700   -0.023029
  C      0.620954    0.451224   -0.040080
  C      1.837274   -0.191310    0.023081
  H     -1.488344    0.012906    0.005517
  H      0.607269    1.500481   -0.000105
  H      1.982408   -1.302722    0.074629
  H      2.486234    0.614799   -0.090464

 Total Charge           Charge          ....    0
 Multiplicity           Mult            ....    1
 Number of Electrons    NEL             ....   30
 Basis Dimension        Dim             ....   44

ORBITAL ENERGIES
----------------

  NO   OCC          E(Eh)            E(eV)
   0   2.0000     -19.144380      -520.9451
   1   2.0000     -10.262943      -279.2689
   2   2.0000     -10.202359      -277.6203
   3   2.0000     -10.194424      -277.4044
   4   2.0000      -1.111476       -30.2448
   5   2.0000      -0.790975       -21.5235
   6   2.0000      -0.652164       -17.7463
   7   2.0000      -0.552860       -15.0441
   8   2.0000      -0.530499       -14.4356
   9   2.0000      -0.447824       -12.1859
  10   2.0000      -0.422977       -11.5098
  11   2.0000      -0.408101       -11.1050
  12   2.0000      -0.396204       -10.7813
  13   2.0000      -0.278447        -7.5769
  14   2.0000      -0.249364        -6.7855
  15   0.0000      -0.056295        -1.5319
  16   0.0000       0.065167         1.7733
  17   0.0000       0.111401         3.0314
  18   0.0000       0.127565         3.4712
  19   0.0000       0.173833         4.7302

MULLIKEN ATOMIC CHARGES
-----------------------
   0 C :    0.182847
   1 O :   -0.320900
   2 C :   -0.173162
   3 C :   -0.234673
   4 H :    0.084786
   5 H :    0.140799
   6 H :    0.187428
   7 H :    0.132876
Sum of atomic charges:    0.0000000

LOEWDIN ATOMIC CHARGES
----------------------
   0 C :    0.105967
   1 O :   -0.195456
   2 C :   -0.199035
   3 C :   -0.176702
   4 H :    0.062483
   5 H :    0.121971
   6 H :    0.152087
   7 H :    0.128685

  Mayer bond orders larger than 0.100000
B(  0-C ,  1-O ) :   1.9267 B(  0-C ,  2-C ) :   0.9594 B(  0-C ,  4-H ) :   0.8945
B(  2-C ,  3-C ) :   1.8675 B(  2-C ,  5-H ) :   0.9345 B(  3-C ,  6-H ) :   0.9266
B(  3-C ,  7-H ) :   0.9478

-----------------------------------------------------------------------------
         ABSORPTION SPECTRUM VIA TRANSITION ELECTRIC DIPOLE MOMENTS
-----------------------------------------------------------------------------
State   Energy    Wavelength  fosc         T2        TX        TY        TZ
        (cm-1)      (nm)                 (au**2)    (au)      (au)      (au)
-----------------------------------------------------------------------------
   1   29750.2    336.1   0.000300940   0.00333  -0.05528  -0.01182  -0.01159

FINAL SINGLE POINT ENERGY      -191.560124148146

DIPOLE MOMENT
-------------
                                X             Y             Z
Electronic contribution:     -1.89651      -1.63367       0.05673
Nuclear contribution   :      2.20637       2.56313      -0.00967
                        -----------------------------------------
Total Dipole Moment    :      0.30986       0.92946       0.04706
                        -----------------------------------------
Magnitude (a.u.)       :      0.98088
Magnitude (Debye)      :      2.49319

Rotational constants in cm-1:     0.760150     0.218373     0.169897
Rotational constants in MHz : 22788.737053  6546.660788  5093.397322

                             ****ORCA TERMINATED NORMALLY****
TOTAL RUN TIME: 0 days 0 hours 1 minutes 1 seconds 97 msec
