                         Program Version 5.0.3 -  RELEASE  -
|  1> ! B3LYP 6-31G
|  2> !TightSCF
|  3> %scf
|  4>  ConvForced true
|  5>  convergence tight
|  6>  MaxIter 500
|  7> end
|  8>
|  9> %tddft
| 10>  nroots 1
| 11> end
| 12>
| 13> # 	17981
| 14> * xyz 0 1
| 15> 		C   -1.268083  -0.361822   0.046047
| 16> 		O   -1.234708  -1.503727  -0.097942
| 17> 		C   -0.056657   0.536582   0.000450
| 18> 		C    1.202005  -0.010932   0.034147
| 19> 		H   -2.010638   0.229421   0.177011
| 20> 		H   -0.165633   1.657305  -0.047223
| 21> 		H    1.498832  -1.086238   0.071081
| 22> 		H    2.053908   0.575796  -0.187919
| 23> *
| 24>
| 25>                          ****END OF INPUT****

CARTESIAN COORDINATES (ANGSTROEM)
---------------------------------
  C     -1.268083   -0.361822    0.046047
  O     -1.234708   -1.503727   -0.097942
  C     -0.056657    0.536582    0.000450
  C      1.202005   -0.010932    0.034147
  H     -2.010638    0.229421    0.177011
  H     -0.165633    1.657305   -0.047223
  H      1.498832   -1.086238    0.071081
  H      2.053908    0.575796   -0.187919

 Total Charge           Charge          ....    0
 Multiplicity           Mult            ....    1
 Number of Electrons    NEL             ....   30
 Basis Dimension        Dim             ....   44

ORBITAL ENERGIES
----------------

  NO   OCC          E(Eh)            E(eV)
   0   2.0000     -19.150137      -521.1017
   1   2.0000     -10.263423      -279.2819
   2   2.0000     -10.203942      -277.6634
   3   2.0000     -10.200918      -277.5811
   4   2.0000      -1.106330       -30.1048
   5   2.0000      -0.781789       -21.2736
   6   2.0000      -0.673678       -18.3317
   7   2.0000      -0.564231       -15.3535
   8   2.0000      -0.505576       -13.7574
   9   2.0000      -0.447421       -12.1749
  10   2.0000      -0.431676       -11.7465
  11   2.0000      -0.416632       -11.3371
  12   2.0000      -0.381744       -10.3878
  13   2.0000      -0.276986        -7.5372
  14   2.0000      -0.253102        -6.8873
  15   0.0000      -0.060197        -1.6381
  16   0.0000       0.064077         1.7436
  17   0.0000       0.107927         2.9368
  18   0.0000       0.130641         3.5549
  19   0.0000       0.176888         4.8134

MULLIKEN ATOMIC CHARGES
-----------------------
   0 C :    0.207698
   1 O :   -0.325573
   2 C :   -0.169206
   3 C :   -0.249236
   4 H :    0.094188
   5 H :    0.138611
   6 H :    0.167117
   7 H :    0.136402
Sum of atomic charges:    0.0000000

LOEWDIN ATOMIC CHARGES
----------------------
   0 C :    0.107029
   1 O :   -0.183921
   2 C :   -0.189936
   3 C :   -0.170221
   4 H :    0.067147
   5 H :    0.122115
   6 H :    0.132138
   7 H :    0.115649

  Mayer bond orders larger than 0.100000
B(  0-C ,  1-O ) :   1.9389 B(  0-C ,  2-C ) :   0.9617 B(  0-C ,  4-H ) :   0.8874
B(  2-C ,  3-C ) :   1.8834 B(  2-C ,  5-H ) :   0.9303 B(  3-C ,  6-H ) :   0.9351
B(  3-C ,  7-H ) :   0.9399

-----------------------------------------------------------------------------
         ABSORPTION SPECTRUM VIA TRANSITION ELECTRIC DIPOLE MOMENTS
-----------------------------------------------------------------------------
State   Energy    Wavelength  fosc         T2        TX        TY        TZ
        (cm-1)      (nm)                 (au**2)    (au)      (au)      (au)
-----------------------------------------------------------------------------
   1   29571.8    338.2   0.000075512   0.00084   0.02221   0.00235  -0.01849

FINAL SINGLE POINT ENERGY      -191.565940798917

DIPOLE MOMENT
-------------
                                X             Y             Z
Electronic contribution:     -2.28842      -1.73104       0.01132
Nuclear contribution   :      2.60641       2.66020       0.05003
                        -----------------------------------------
Total Dipole Moment    :      0.31798       0.92916       0.06135
                        -----------------------------------------
Magnitude (a.u.)       :      0.98398
Magnitude (Debye)      :      2.50108

Rotational constants in cm-1:     0.761866     0.208325     0.164171
Rotational constants in MHz : 22840.180211  6245.431118  4921.718282

                             ****ORCA TERMINATED NORMALLY****
TOTAL RUN TIME: 0 days 0 hours 1 minutes 1 seconds 474 msec
