                         Program Version 5.0.3 -  RELEASE  -
|  1> ! B3LYP 6-31G
|  2> !TightSCF
|  3> %scf
|  4>  ConvForced true
|  5>  convergence tight
|  6>  MaxIter 500
|  7> end
|  8>
|  9> %tddft
| 10>  nroots 1
| 11> end
| 12>
| 13> # 	1820
| 14> * xyz 0 1
| 15> 		C   -1.139862  -0.322589  -0.118858
| 16> 		O   -1.158724  -1.509445   0.120041
| 17> 		C    0.039068   0.532693   0.113498
| 18> 		C    1.195641   0.006394  -0.000001
| 19> 		H   -2.102662   0.354149  -0.202638
| 20> 		H   -0.149596   1.554749   0.384029
| 21> 		H    1.182408  -1.168378  -0.250294
| 22> 		H    2.121874   0.541187  -0.089875
| 23> *
| 24>
| 25>                          ****END OF INPUT****

CARTESIAN COORDINATES (ANGSTROEM)
---------------------------------
  C     -1.139862   -0.322589   -0.118858
  O     -1.158724   -1.509445    0.120041
  C      0.039068    0.532693    0.113498
  C      1.195641    0.006394   -0.000001
  H     -2.102662    0.354149   -0.202638
  H     -0.149596    1.554749    0.384029
  H      1.182408   -1.168378   -0.250294
  H      2.121874    0.541187   -0.089875

 Total Charge           Charge          ....    0
 Multiplicity           Mult            ....    1
 Number of Electrons    NEL             ....   30
 Basis Dimension        Dim             ....   44

ORBITAL ENERGIES
----------------

  NO   OCC          E(Eh)            E(eV)
   0   2.0000     -19.156208      -521.2669
   1   2.0000     -10.284659      -279.8598
   2   2.0000     -10.204682      -277.6835
   3   2.0000     -10.193316      -277.3742
   4   2.0000      -1.075560       -29.2675
   5   2.0000      -0.813145       -22.1268
   6   2.0000      -0.654451       -17.8085
   7   2.0000      -0.532950       -14.5023
   8   2.0000      -0.520359       -14.1597
   9   2.0000      -0.448356       -12.2004
  10   2.0000      -0.429912       -11.6985
  11   2.0000      -0.406353       -11.0574
  12   2.0000      -0.371016       -10.0959
  13   2.0000      -0.295186        -8.0324
  14   2.0000      -0.257330        -7.0023
  15   0.0000      -0.062854        -1.7103
  16   0.0000       0.050513         1.3745
  17   0.0000       0.091019         2.4768
  18   0.0000       0.120332         3.2744
  19   0.0000       0.156743         4.2652

MULLIKEN ATOMIC CHARGES
-----------------------
   0 C :    0.175967
   1 O :   -0.367099
   2 C :   -0.087996
   3 C :   -0.276053
   4 H :    0.095987
   5 H :    0.149636
   6 H :    0.163427
   7 H :    0.146130
Sum of atomic charges:   -0.0000000

LOEWDIN ATOMIC CHARGES
----------------------
   0 C :    0.120093
   1 O :   -0.221849
   2 C :   -0.188447
   3 C :   -0.159263
   4 H :    0.066760
   5 H :    0.123973
   6 H :    0.133647
   7 H :    0.125087

  Mayer bond orders larger than 0.100000
B(  0-C ,  1-O ) :   1.8637 B(  0-C ,  2-C ) :   0.9652 B(  0-C ,  4-H ) :   0.8672
B(  2-C ,  3-C ) :   1.8746 B(  2-C ,  5-H ) :   0.9286 B(  3-C ,  6-H ) :   0.9303
B(  3-C ,  7-H ) :   0.9401

-----------------------------------------------------------------------------
         ABSORPTION SPECTRUM VIA TRANSITION ELECTRIC DIPOLE MOMENTS
-----------------------------------------------------------------------------
State   Energy    Wavelength  fosc         T2        TX        TY        TZ
        (cm-1)      (nm)                 (au**2)    (au)      (au)      (au)
-----------------------------------------------------------------------------
   1   29397.8    340.2   0.000328407   0.00368   0.04426  -0.03364  -0.02422

FINAL SINGLE POINT ENERGY      -191.581198486517

DIPOLE MOMENT
-------------
                                X             Y             Z
Electronic contribution:     -1.65240      -1.53539       0.10267
Nuclear contribution   :      2.06781       2.54143      -0.26116
                        -----------------------------------------
Total Dipole Moment    :      0.41542       1.00605      -0.15849
                        -----------------------------------------
Magnitude (a.u.)       :      1.09992
Magnitude (Debye)      :      2.79577

Rotational constants in cm-1:     0.770300     0.217212     0.172071
Rotational constants in MHz : 23093.007961  6511.864099  5158.545174

                             ****ORCA TERMINATED NORMALLY****
TOTAL RUN TIME: 0 days 0 hours 1 minutes 2 seconds 616 msec
