                         Program Version 5.0.3 -  RELEASE  -
|  1> ! B3LYP 6-31G
|  2> !TightSCF
|  3> %scf
|  4>  ConvForced true
|  5>  convergence tight
|  6>  MaxIter 500
|  7> end
|  8>
|  9> %tddft
| 10>  nroots 1
| 11> end
| 12>
| 13> # 	9523
| 14> * xyz 0 1
| 15> 		C   -1.166018  -0.340427  -0.026900
| 16> 		O   -1.274614  -1.484513  -0.470918
| 17> 		C   -0.018434   0.484123  -0.136120
| 18> 		C    1.249587  -0.098131   0.024482
| 19> 		H   -1.983049   0.136786   0.561413
| 20> 		H   -0.142700   1.588899  -0.481724
| 21> 		H    1.359341  -1.057522   0.432456
| 22> 		H    1.955366   0.745192   0.071633
| 23> *
| 24>
| 25>                          ****END OF INPUT****

CARTESIAN COORDINATES (ANGSTROEM)
---------------------------------
  C     -1.166018   -0.340427   -0.026900
  O     -1.274614   -1.484513   -0.470918
  C     -0.018434    0.484123   -0.136120
  C      1.249587   -0.098131    0.024482
  H     -1.983049    0.136786    0.561413
  H     -0.142700    1.588899   -0.481724
  H      1.359341   -1.057522    0.432456
  H      1.955366    0.745192    0.071633

 Total Charge           Charge          ....    0
 Multiplicity           Mult            ....    1
 Number of Electrons    NEL             ....   30
 Basis Dimension        Dim             ....   44

ORBITAL ENERGIES
----------------

  NO   OCC          E(Eh)            E(eV)
   0   2.0000     -19.147511      -521.0303
   1   2.0000     -10.273557      -279.5577
   2   2.0000     -10.216566      -278.0069
   3   2.0000     -10.214860      -277.9605
   4   2.0000      -1.055491       -28.7214
   5   2.0000      -0.799317       -21.7505
   6   2.0000      -0.670677       -18.2501
   7   2.0000      -0.544916       -14.8279
   8   2.0000      -0.513793       -13.9810
   9   2.0000      -0.444105       -12.0847
  10   2.0000      -0.426198       -11.5974
  11   2.0000      -0.400348       -10.8940
  12   2.0000      -0.373940       -10.1754
  13   2.0000      -0.281296        -7.6544
  14   2.0000      -0.252743        -6.8775
  15   0.0000      -0.067415        -1.8344
  16   0.0000       0.017585         0.4785
  17   0.0000       0.097439         2.6514
  18   0.0000       0.125244         3.4081
  19   0.0000       0.142809         3.8860

MULLIKEN ATOMIC CHARGES
-----------------------
   0 C :    0.165334
   1 O :   -0.380324
   2 C :   -0.134671
   3 C :   -0.228106
   4 H :    0.105977
   5 H :    0.161174
   6 H :    0.166787
   7 H :    0.143829
Sum of atomic charges:    0.0000000

LOEWDIN ATOMIC CHARGES
----------------------
   0 C :    0.103966
   1 O :   -0.242099
   2 C :   -0.169060
   3 C :   -0.171937
   4 H :    0.075213
   5 H :    0.133730
   6 H :    0.138290
   7 H :    0.131899

  Mayer bond orders larger than 0.100000
B(  0-C ,  1-O ) :   1.8703 B(  0-C ,  2-C ) :   0.9969 B(  0-C ,  4-H ) :   0.8764
B(  2-C ,  3-C ) :   1.8489 B(  2-C ,  5-H ) :   0.9234 B(  3-C ,  6-H ) :   0.9405
B(  3-C ,  7-H ) :   0.9441

-----------------------------------------------------------------------------
         ABSORPTION SPECTRUM VIA TRANSITION ELECTRIC DIPOLE MOMENTS
-----------------------------------------------------------------------------
State   Energy    Wavelength  fosc         T2        TX        TY        TZ
        (cm-1)      (nm)                 (au**2)    (au)      (au)      (au)
-----------------------------------------------------------------------------
   1   27758.8    360.2   0.000015963   0.00019  -0.01357  -0.00020   0.00226

FINAL SINGLE POINT ENERGY      -191.589344674635

DIPOLE MOMENT
-------------
                                X             Y             Z
Electronic contribution:     -1.83997      -1.73015      -0.68768
Nuclear contribution   :      2.33387       2.76755       1.11930
                        -----------------------------------------
Total Dipole Moment    :      0.49390       1.03741       0.43161
                        -----------------------------------------
Magnitude (a.u.)       :      1.22737
Magnitude (Debye)      :      3.11973

Rotational constants in cm-1:     0.751047     0.203499     0.166331
Rotational constants in MHz : 22515.821917  6100.747748  4986.482789

                             ****ORCA TERMINATED NORMALLY****
TOTAL RUN TIME: 0 days 0 hours 1 minutes 1 seconds 5 msec
