                         Program Version 5.0.3 -  RELEASE  -
|  1> ! B3LYP 6-31G
|  2> !TightSCF
|  3> %scf
|  4>  ConvForced true
|  5>  convergence tight
|  6>  MaxIter 500
|  7> end
|  8>
|  9> %tddft
| 10>  nroots 1
| 11> end
| 12>
| 13> # 	30022
| 14> * xyz 0 1
| 15> 		C   -0.610928  -0.461588  -0.025649
| 16> 		O   -0.534830  -1.597527   0.006263
| 17> 		C    0.611095   0.474062   0.047218
| 18> 		C    1.834125  -0.177598  -0.011236
| 19> 		H   -1.519839   0.054878  -0.004270
| 20> 		H    0.491446   1.436310  -0.162571
| 21> 		H    1.781080  -1.297654  -0.042326
| 22> 		H    2.814229   0.358563  -0.020497
| 23> *
| 24>
| 25>                          ****END OF INPUT****

CARTESIAN COORDINATES (ANGSTROEM)
---------------------------------
  C     -0.610928   -0.461588   -0.025649
  O     -0.534830   -1.597527    0.006263
  C      0.611095    0.474062    0.047218
  C      1.834125   -0.177598   -0.011236
  H     -1.519839    0.054878   -0.004270
  H      0.491446    1.436310   -0.162571
  H      1.781080   -1.297654   -0.042326
  H      2.814229    0.358563   -0.020497

 Total Charge           Charge          ....    0
 Multiplicity           Mult            ....    1
 Number of Electrons    NEL             ....   30
 Basis Dimension        Dim             ....   44

ORBITAL ENERGIES
----------------

  NO   OCC          E(Eh)            E(eV)
   0   2.0000     -19.150005      -521.0981
   1   2.0000     -10.271200      -279.4936
   2   2.0000     -10.210588      -277.8442
   3   2.0000     -10.190965      -277.3103
   4   2.0000      -1.117933       -30.4205
   5   2.0000      -0.779809       -21.2197
   6   2.0000      -0.648241       -17.6395
   7   2.0000      -0.556664       -15.1476
   8   2.0000      -0.519348       -14.1322
   9   2.0000      -0.447308       -12.1719
  10   2.0000      -0.427932       -11.6446
  11   2.0000      -0.423911       -11.5352
  12   2.0000      -0.386675       -10.5220
  13   2.0000      -0.275131        -7.4867
  14   2.0000      -0.253930        -6.9098
  15   0.0000      -0.057548        -1.5660
  16   0.0000       0.058341         1.5875
  17   0.0000       0.120803         3.2872
  18   0.0000       0.130759         3.5581
  19   0.0000       0.177660         4.8344

MULLIKEN ATOMIC CHARGES
-----------------------
   0 C :    0.170061
   1 O :   -0.315322
   2 C :   -0.120795
   3 C :   -0.267683
   4 H :    0.097001
   5 H :    0.116813
   6 H :    0.174845
   7 H :    0.145080
Sum of atomic charges:   -0.0000000

LOEWDIN ATOMIC CHARGES
----------------------
   0 C :    0.107490
   1 O :   -0.187974
   2 C :   -0.198993
   3 C :   -0.163018
   4 H :    0.065261
   5 H :    0.115192
   6 H :    0.137606
   7 H :    0.124436

  Mayer bond orders larger than 0.100000
B(  0-C ,  1-O ) :   1.9210 B(  0-C ,  2-C ) :   0.9409 B(  0-C ,  4-H ) :   0.8796
B(  2-C ,  3-C ) :   1.8719 B(  2-C ,  5-H ) :   0.9390 B(  3-C ,  6-H ) :   0.9225
B(  3-C ,  7-H ) :   0.9405

-----------------------------------------------------------------------------
         ABSORPTION SPECTRUM VIA TRANSITION ELECTRIC DIPOLE MOMENTS
-----------------------------------------------------------------------------
State   Energy    Wavelength  fosc         T2        TX        TY        TZ
        (cm-1)      (nm)                 (au**2)    (au)      (au)      (au)
-----------------------------------------------------------------------------
   1   30639.1    326.4   0.000592954   0.00637   0.07802   0.01679  -0.00159

FINAL SINGLE POINT ENERGY      -191.567119582519

DIPOLE MOMENT
-------------
                                X             Y             Z
Electronic contribution:     -1.92928      -1.43705       0.11415
Nuclear contribution   :      2.19136       2.30777      -0.21489
                        -----------------------------------------
Total Dipole Moment    :      0.26208       0.87071      -0.10074
                        -----------------------------------------
Magnitude (a.u.)       :      0.91487
Magnitude (Debye)      :      2.32540

Rotational constants in cm-1:     0.739772     0.218259     0.168756
Rotational constants in MHz : 22177.798768  6543.226398  5059.174774

                             ****ORCA TERMINATED NORMALLY****
TOTAL RUN TIME: 0 days 0 hours 1 minutes 1 seconds 367 msec
