                         Program Version 5.0.3 -  RELEASE  -
|  1> ! B3LYP 6-31G
|  2> !TightSCF
|  3> %scf
|  4>  ConvForced true
|  5>  convergence tight
|  6>  MaxIter 500
|  7> end
|  8>
|  9> %tddft
| 10>  nroots 1
| 11> end
| 12>
| 13> # 	18006
| 14> * xyz 0 1
| 15> 		C   -1.221004  -0.297880   0.025282
| 16> 		O   -1.481358  -1.356954  -0.597009
| 17> 		C   -0.022814   0.515325  -0.183598
| 18> 		C    1.188439   0.000973   0.025377
| 19> 		H   -1.925621  -0.049276   0.843042
| 20> 		H   -0.165939   1.489380  -0.572068
| 21> 		H    1.516493  -0.972890   0.449993
| 22> 		H    2.190823   0.638198   0.009928
| 23> *
| 24>
| 25>                          ****END OF INPUT****

CARTESIAN COORDINATES (ANGSTROEM)
---------------------------------
  C     -1.221004   -0.297880    0.025282
  O     -1.481358   -1.356954   -0.597009
  C     -0.022814    0.515325   -0.183598
  C      1.188439    0.000973    0.025377
  H     -1.925621   -0.049276    0.843042
  H     -0.165939    1.489380   -0.572068
  H      1.516493   -0.972890    0.449993
  H      2.190823    0.638198    0.009928

 Total Charge           Charge          ....    0
 Multiplicity           Mult            ....    1
 Number of Electrons    NEL             ....   30
 Basis Dimension        Dim             ....   44

ORBITAL ENERGIES
----------------

  NO   OCC          E(Eh)            E(eV)
   0   2.0000     -19.150898      -521.1224
   1   2.0000     -10.282256      -279.7944
   2   2.0000     -10.217484      -278.0319
   3   2.0000     -10.209078      -277.8031
   4   2.0000      -1.044950       -28.4345
   5   2.0000      -0.802496       -21.8370
   6   2.0000      -0.656846       -17.8737
   7   2.0000      -0.563568       -15.3355
   8   2.0000      -0.503836       -13.7101
   9   2.0000      -0.467588       -12.7237
  10   2.0000      -0.429418       -11.6851
  11   2.0000      -0.371311       -10.1039
  12   2.0000      -0.368152       -10.0179
  13   2.0000      -0.290307        -7.8997
  14   2.0000      -0.253167        -6.8890
  15   0.0000      -0.050478        -1.3736
  16   0.0000      -0.001619        -0.0441
  17   0.0000       0.104526         2.8443
  18   0.0000       0.120004         3.2655
  19   0.0000       0.134919         3.6713

MULLIKEN ATOMIC CHARGES
-----------------------
   0 C :    0.156003
   1 O :   -0.372850
   2 C :   -0.115204
   3 C :   -0.255716
   4 H :    0.125827
   5 H :    0.168219
   6 H :    0.161990
   7 H :    0.131730
Sum of atomic charges:   -0.0000000

LOEWDIN ATOMIC CHARGES
----------------------
   0 C :    0.123726
   1 O :   -0.247224
   2 C :   -0.165511
   3 C :   -0.179212
   4 H :    0.089071
   5 H :    0.138149
   6 H :    0.127334
   7 H :    0.113667

  Mayer bond orders larger than 0.100000
B(  0-C ,  1-O ) :   1.9037 B(  0-C ,  2-C ) :   0.9357 B(  0-C ,  4-H ) :   0.8859
B(  2-C ,  3-C ) :   1.9333 B(  2-C ,  5-H ) :   0.9234 B(  3-C ,  6-H ) :   0.9365
B(  3-C ,  7-H ) :   0.9415

-----------------------------------------------------------------------------
         ABSORPTION SPECTRUM VIA TRANSITION ELECTRIC DIPOLE MOMENTS
-----------------------------------------------------------------------------
State   Energy    Wavelength  fosc         T2        TX        TY        TZ
        (cm-1)      (nm)                 (au**2)    (au)      (au)      (au)
-----------------------------------------------------------------------------
   1   29421.8    339.9   0.000196072   0.00219  -0.04279  -0.01707   0.00848

FINAL SINGLE POINT ENERGY      -191.585565200478

DIPOLE MOMENT
-------------
                                X             Y             Z
Electronic contribution:     -2.49573      -1.29586      -0.84484
Nuclear contribution   :      3.02186       2.22474       1.37653
                        -----------------------------------------
Total Dipole Moment    :      0.52613       0.92888       0.53170
                        -----------------------------------------
Magnitude (a.u.)       :      1.19261
Magnitude (Debye)      :      3.03139

Rotational constants in cm-1:     0.829053     0.183399     0.160375
Rotational constants in MHz : 24854.395852  5498.174950  4807.920940

                             ****ORCA TERMINATED NORMALLY****
TOTAL RUN TIME: 0 days 0 hours 1 minutes 0 seconds 892 msec
