                         Program Version 5.0.3 -  RELEASE  -
|  1> ! B3LYP 6-31G
|  2> !TightSCF
|  3> %scf
|  4>  ConvForced true
|  5>  convergence tight
|  6>  MaxIter 500
|  7> end
|  8>
|  9> %tddft
| 10>  nroots 1
| 11> end
| 12>
| 13> # 	26579
| 14> * xyz 0 1
| 15> 		C   -0.631016  -0.467064   0.029351
| 16> 		O   -0.592079  -1.682296  -0.012174
| 17> 		C    0.654795   0.478444  -0.087723
| 18> 		C    1.858861  -0.095583   0.033411
| 19> 		H   -1.565003   0.127217   0.252946
| 20> 		H    0.497450   1.580592   0.128623
| 21> 		H    2.111638  -1.140615  -0.022474
| 22> 		H    2.894172   0.403244   0.140835
| 23> *
| 24>
| 25>                          ****END OF INPUT****

CARTESIAN COORDINATES (ANGSTROEM)
---------------------------------
  C     -0.631016   -0.467064    0.029351
  O     -0.592079   -1.682296   -0.012174
  C      0.654795    0.478444   -0.087723
  C      1.858861   -0.095583    0.033411
  H     -1.565003    0.127217    0.252946
  H      0.497450    1.580592    0.128623
  H      2.111638   -1.140615   -0.022474
  H      2.894172    0.403244    0.140835

 Total Charge           Charge          ....    0
 Multiplicity           Mult            ....    1
 Number of Electrons    NEL             ....   30
 Basis Dimension        Dim             ....   44

ORBITAL ENERGIES
----------------

  NO   OCC          E(Eh)            E(eV)
   0   2.0000     -19.159401      -521.3538
   1   2.0000     -10.292770      -280.0805
   2   2.0000     -10.215908      -277.9890
   3   2.0000     -10.210895      -277.8526
   4   2.0000      -1.071616       -29.1602
   5   2.0000      -0.783698       -21.3255
   6   2.0000      -0.643449       -17.5092
   7   2.0000      -0.554990       -15.1020
   8   2.0000      -0.492812       -13.4101
   9   2.0000      -0.449012       -12.2182
  10   2.0000      -0.428028       -11.6472
  11   2.0000      -0.401164       -10.9162
  12   2.0000      -0.368416       -10.0251
  13   2.0000      -0.286965        -7.8087
  14   2.0000      -0.258759        -7.0412
  15   0.0000      -0.063542        -1.7291
  16   0.0000       0.039360         1.0710
  17   0.0000       0.088723         2.4143
  18   0.0000       0.123708         3.3663
  19   0.0000       0.138436         3.7670

MULLIKEN ATOMIC CHARGES
-----------------------
   0 C :    0.199496
   1 O :   -0.369037
   2 C :   -0.135406
   3 C :   -0.261407
   4 H :    0.112994
   5 H :    0.136553
   6 H :    0.173868
   7 H :    0.142939
Sum of atomic charges:   -0.0000000

LOEWDIN ATOMIC CHARGES
----------------------
   0 C :    0.126752
   1 O :   -0.225366
   2 C :   -0.178220
   3 C :   -0.173681
   4 H :    0.077533
   5 H :    0.124170
   6 H :    0.129944
   7 H :    0.118867

  Mayer bond orders larger than 0.100000
B(  0-C ,  1-O ) :   1.8745 B(  0-C ,  2-C ) :   0.9135 B(  0-C ,  4-H ) :   0.8640
B(  2-C ,  3-C ) :   1.8917 B(  2-C ,  5-H ) :   0.9283 B(  3-C ,  6-H ) :   0.9279
B(  3-C ,  7-H ) :   0.9374

-----------------------------------------------------------------------------
         ABSORPTION SPECTRUM VIA TRANSITION ELECTRIC DIPOLE MOMENTS
-----------------------------------------------------------------------------
State   Energy    Wavelength  fosc         T2        TX        TY        TZ
        (cm-1)      (nm)                 (au**2)    (au)      (au)      (au)
-----------------------------------------------------------------------------
   1   29606.0    337.8   0.000309937   0.00345   0.05405   0.02286  -0.00172

FINAL SINGLE POINT ENERGY      -191.588500983408

DIPOLE MOMENT
-------------
                                X             Y             Z
Electronic contribution:     -2.17200      -1.75950      -0.33213
Nuclear contribution   :      2.53627       2.69648       0.46821
                        -----------------------------------------
Total Dipole Moment    :      0.36427       0.93698       0.13609
                        -----------------------------------------
Magnitude (a.u.)       :      1.01447
Magnitude (Debye)      :      2.57858

Rotational constants in cm-1:     0.718652     0.195391     0.154242
Rotational constants in MHz : 21544.653392  5857.687212  4624.067050

                             ****ORCA TERMINATED NORMALLY****
TOTAL RUN TIME: 0 days 0 hours 1 minutes 2 seconds 53 msec
