                         Program Version 5.0.3 -  RELEASE  -
|  1> ! B3LYP 6-31G
|  2> !TightSCF
|  3> %scf
|  4>  ConvForced true
|  5>  convergence tight
|  6>  MaxIter 500
|  7> end
|  8>
|  9> %tddft
| 10>  nroots 1
| 11> end
| 12>
| 13> # 	1497
| 14> * xyz 0 1
| 15> 		C   -1.199665  -0.377291   0.000732
| 16> 		O   -2.129707  -0.474181   0.748691
| 17> 		C    0.002279   0.277539   0.401627
| 18> 		C    1.157712   0.102349  -0.226729
| 19> 		H   -1.163235  -0.877346  -0.984939
| 20> 		H   -0.070934   1.213117   1.239604
| 21> 		H    1.238396  -0.602410  -0.999081
| 22> 		H    2.127873   0.758276  -0.067418
| 23> *
| 24>
| 25>                          ****END OF INPUT****

CARTESIAN COORDINATES (ANGSTROEM)
---------------------------------
  C     -1.199665   -0.377291    0.000732
  O     -2.129707   -0.474181    0.748691
  C      0.002279    0.277539    0.401627
  C      1.157712    0.102349   -0.226729
  H     -1.163235   -0.877346   -0.984939
  H     -0.070934    1.213117    1.239604
  H      1.238396   -0.602410   -0.999081
  H      2.127873    0.758276   -0.067418

 Total Charge           Charge          ....    0
 Multiplicity           Mult            ....    1
 Number of Electrons    NEL             ....   30
 Basis Dimension        Dim             ....   44

ORBITAL ENERGIES
----------------

  NO   OCC          E(Eh)            E(eV)
   0   2.0000     -19.148224      -521.0497
   1   2.0000     -10.276053      -279.6256
   2   2.0000     -10.216674      -278.0098
   3   2.0000     -10.214855      -277.9603
   4   2.0000      -1.079779       -29.3823
   5   2.0000      -0.811382       -22.0788
   6   2.0000      -0.652492       -17.7552
   7   2.0000      -0.567810       -15.4509
   8   2.0000      -0.494042       -13.4436
   9   2.0000      -0.463764       -12.6197
  10   2.0000      -0.423132       -11.5140
  11   2.0000      -0.405545       -11.0354
  12   2.0000      -0.370375       -10.0784
  13   2.0000      -0.292981        -7.9724
  14   2.0000      -0.257494        -7.0068
  15   0.0000      -0.065274        -1.7762
  16   0.0000       0.044805         1.2192
  17   0.0000       0.082780         2.2526
  18   0.0000       0.104330         2.8390
  19   0.0000       0.159829         4.3492

MULLIKEN ATOMIC CHARGES
-----------------------
   0 C :    0.162595
   1 O :   -0.362093
   2 C :   -0.070789
   3 C :   -0.287837
   4 H :    0.113315
   5 H :    0.147890
   6 H :    0.144081
   7 H :    0.152839
Sum of atomic charges:    0.0000000

LOEWDIN ATOMIC CHARGES
----------------------
   0 C :    0.098690
   1 O :   -0.214745
   2 C :   -0.150642
   3 C :   -0.184610
   4 H :    0.076546
   5 H :    0.128321
   6 H :    0.117010
   7 H :    0.129429

  Mayer bond orders larger than 0.100000
B(  0-C ,  1-O ) :   1.8366 B(  0-C ,  2-C ) :   1.0044 B(  0-C ,  4-H ) :   0.8791
B(  2-C ,  3-C ) :   1.8235 B(  2-C ,  5-H ) :   0.9287 B(  3-C ,  6-H ) :   0.9422
B(  3-C ,  7-H ) :   0.9389

-----------------------------------------------------------------------------
         ABSORPTION SPECTRUM VIA TRANSITION ELECTRIC DIPOLE MOMENTS
-----------------------------------------------------------------------------
State   Energy    Wavelength  fosc         T2        TX        TY        TZ
        (cm-1)      (nm)                 (au**2)    (au)      (au)      (au)
-----------------------------------------------------------------------------
   1   28970.4    345.2   0.000167899   0.00191   0.02880  -0.02335  -0.02309

FINAL SINGLE POINT ENERGY      -191.583570946529

DIPOLE MOMENT
-------------
                                X             Y             Z
Electronic contribution:     -3.06077      -0.70410       1.00868
Nuclear contribution   :      4.14610       0.92864      -1.64228
                        -----------------------------------------
Total Dipole Moment    :      1.08533       0.22454      -0.63360
                        -----------------------------------------
Magnitude (a.u.)       :      1.27664
Magnitude (Debye)      :      3.24496

Rotational constants in cm-1:     1.511889     0.160844     0.147051
Rotational constants in MHz : 45325.278099  4821.973947  4408.464037

                             ****ORCA TERMINATED NORMALLY****
TOTAL RUN TIME: 0 days 0 hours 1 minutes 1 seconds 376 msec
