                         Program Version 5.0.3 -  RELEASE  -
|  1> ! B3LYP 6-31G
|  2> !TightSCF
|  3> %scf
|  4>  ConvForced true
|  5>  convergence tight
|  6>  MaxIter 500
|  7> end
|  8>
|  9> %tddft
| 10>  nroots 1
| 11> end
| 12>
| 13> # 	24645
| 14> * xyz 0 1
| 15> 		C   -0.560946  -0.459913   0.034377
| 16> 		O   -0.567708  -1.609009  -0.028322
| 17> 		C    0.637323   0.457967  -0.046599
| 18> 		C    1.819651  -0.144586   0.016038
| 19> 		H   -1.689141  -0.092360   0.268788
| 20> 		H    0.514679   1.500608  -0.079947
| 21> 		H    1.709024  -1.219968   0.199429
| 22> 		H    2.835862   0.296010   0.005216
| 23> *
| 24>
| 25>                          ****END OF INPUT****

CARTESIAN COORDINATES (ANGSTROEM)
---------------------------------
  C     -0.560946   -0.459913    0.034377
  O     -0.567708   -1.609009   -0.028322
  C      0.637323    0.457967   -0.046599
  C      1.819651   -0.144586    0.016038
  H     -1.689141   -0.092360    0.268788
  H      0.514679    1.500608   -0.079947
  H      1.709024   -1.219968    0.199429
  H      2.835862    0.296010    0.005216

 Total Charge           Charge          ....    0
 Multiplicity           Mult            ....    1
 Number of Electrons    NEL             ....   30
 Basis Dimension        Dim             ....   44

ORBITAL ENERGIES
----------------

  NO   OCC          E(Eh)            E(eV)
   0   2.0000     -19.150188      -521.1031
   1   2.0000     -10.285216      -279.8750
   2   2.0000     -10.207188      -277.7517
   3   2.0000     -10.203190      -277.6429
   4   2.0000      -1.113916       -30.3112
   5   2.0000      -0.802207       -21.8292
   6   2.0000      -0.637849       -17.3568
   7   2.0000      -0.537862       -14.6360
   8   2.0000      -0.525618       -14.3028
   9   2.0000      -0.449765       -12.2387
  10   2.0000      -0.437855       -11.9147
  11   2.0000      -0.421817       -11.4782
  12   2.0000      -0.382630       -10.4119
  13   2.0000      -0.291615        -7.9353
  14   2.0000      -0.249925        -6.8008
  15   0.0000      -0.056098        -1.5265
  16   0.0000       0.063909         1.7390
  17   0.0000       0.097460         2.6520
  18   0.0000       0.127627         3.4729
  19   0.0000       0.153736         4.1834

MULLIKEN ATOMIC CHARGES
-----------------------
   0 C :    0.143733
   1 O :   -0.314993
   2 C :   -0.102925
   3 C :   -0.275223
   4 H :    0.080399
   5 H :    0.141159
   6 H :    0.170395
   7 H :    0.157455
Sum of atomic charges:   -0.0000000

LOEWDIN ATOMIC CHARGES
----------------------
   0 C :    0.103521
   1 O :   -0.204180
   2 C :   -0.180548
   3 C :   -0.164258
   4 H :    0.057312
   5 H :    0.125107
   6 H :    0.133153
   7 H :    0.129893

  Mayer bond orders larger than 0.100000
B(  0-C ,  1-O ) :   1.9042 B(  0-C ,  2-C ) :   0.9282 B(  0-C ,  4-H ) :   0.8771
B(  2-C ,  3-C ) :   1.8751 B(  2-C ,  5-H ) :   0.9362 B(  3-C ,  6-H ) :   0.9274
B(  3-C ,  7-H ) :   0.9388

-----------------------------------------------------------------------------
         ABSORPTION SPECTRUM VIA TRANSITION ELECTRIC DIPOLE MOMENTS
-----------------------------------------------------------------------------
State   Energy    Wavelength  fosc         T2        TX        TY        TZ
        (cm-1)      (nm)                 (au**2)    (au)      (au)      (au)
-----------------------------------------------------------------------------
   1   29918.8    334.2   0.000164769   0.00181  -0.01043  -0.00079  -0.04127

FINAL SINGLE POINT ENERGY      -191.575009856474

DIPOLE MOMENT
-------------
                                X             Y             Z
Electronic contribution:     -1.54104      -1.36672      -0.28000
Nuclear contribution   :      2.00536       2.24592       0.36946
                        -----------------------------------------
Total Dipole Moment    :      0.46432       0.87920       0.08946
                        -----------------------------------------
Magnitude (a.u.)       :      0.99829
Magnitude (Debye)      :      2.53745

Rotational constants in cm-1:     0.786678     0.213193     0.168322
Rotational constants in MHz : 23584.026101  6391.352203  5046.166124

                             ****ORCA TERMINATED NORMALLY****
TOTAL RUN TIME: 0 days 0 hours 1 minutes 1 seconds 72 msec
