                         Program Version 5.0.3 -  RELEASE  -
|  1> ! B3LYP 6-31G
|  2> !TightSCF
|  3> %scf
|  4>  ConvForced true
|  5>  convergence tight
|  6>  MaxIter 500
|  7> end
|  8>
|  9> %tddft
| 10>  nroots 1
| 11> end
| 12>
| 13> # 	23852
| 14> * xyz 0 1
| 15> 		C   -0.558139  -0.411932  -0.000802
| 16> 		O   -0.593827  -1.629101   0.012603
| 17> 		C    0.598529   0.362812  -0.029522
| 18> 		C    1.861341  -0.093325   0.002139
| 19> 		H   -1.416348   0.268425  -0.161847
| 20> 		H    0.420653   1.372209   0.362250
| 21> 		H    2.023583  -1.221752   0.033880
| 22> 		H    2.665446   0.410770  -0.085513
| 23> *
| 24>
| 25>                          ****END OF INPUT****

CARTESIAN COORDINATES (ANGSTROEM)
---------------------------------
  C     -0.558139   -0.411932   -0.000802
  O     -0.593827   -1.629101    0.012603
  C      0.598529    0.362812   -0.029522
  C      1.861341   -0.093325    0.002139
  H     -1.416348    0.268425   -0.161847
  H      0.420653    1.372209    0.362250
  H      2.023583   -1.221752    0.033880
  H      2.665446    0.410770   -0.085513

 Total Charge           Charge          ....    0
 Multiplicity           Mult            ....    1
 Number of Electrons    NEL             ....   30
 Basis Dimension        Dim             ....   44

ORBITAL ENERGIES
----------------

  NO   OCC          E(Eh)            E(eV)
   0   2.0000     -19.146404      -521.0002
   1   2.0000     -10.267995      -279.4063
   2   2.0000     -10.207275      -277.7541
   3   2.0000     -10.197908      -277.4992
   4   2.0000      -1.062854       -28.9217
   5   2.0000      -0.810891       -22.0655
   6   2.0000      -0.690074       -18.7779
   7   2.0000      -0.553366       -15.0579
   8   2.0000      -0.514065       -13.9884
   9   2.0000      -0.452835       -12.3223
  10   2.0000      -0.432148       -11.7594
  11   2.0000      -0.411710       -11.2032
  12   2.0000      -0.370415       -10.0795
  13   2.0000      -0.283667        -7.7190
  14   2.0000      -0.255234        -6.9453
  15   0.0000      -0.080079        -2.1791
  16   0.0000       0.058156         1.5825
  17   0.0000       0.111622         3.0374
  18   0.0000       0.132527         3.6063
  19   0.0000       0.166815         4.5393

MULLIKEN ATOMIC CHARGES
-----------------------
   0 C :    0.172134
   1 O :   -0.378926
   2 C :   -0.111025
   3 C :   -0.219644
   4 H :    0.100893
   5 H :    0.130288
   6 H :    0.167906
   7 H :    0.138375
Sum of atomic charges:    0.0000000

LOEWDIN ATOMIC CHARGES
----------------------
   0 C :    0.099918
   1 O :   -0.231820
   2 C :   -0.181144
   3 C :   -0.132818
   4 H :    0.073058
   5 H :    0.121676
   6 H :    0.134567
   7 H :    0.116563

  Mayer bond orders larger than 0.100000
B(  0-C ,  1-O ) :   1.8669 B(  0-C ,  2-C ) :   1.0289 B(  0-C ,  4-H ) :   0.8780
B(  1-O ,  3-C ) :   0.1216 B(  2-C ,  3-C ) :   1.8579 B(  2-C ,  5-H ) :   0.9343
B(  3-C ,  6-H ) :   0.9388 B(  3-C ,  7-H ) :   0.9372

-----------------------------------------------------------------------------
         ABSORPTION SPECTRUM VIA TRANSITION ELECTRIC DIPOLE MOMENTS
-----------------------------------------------------------------------------
State   Energy    Wavelength  fosc         T2        TX        TY        TZ
        (cm-1)      (nm)                 (au**2)    (au)      (au)      (au)
-----------------------------------------------------------------------------
   1   25699.7    389.1   0.000209901   0.00269  -0.04193  -0.00560  -0.02999

FINAL SINGLE POINT ENERGY      -191.588245105527

DIPOLE MOMENT
-------------
                                X             Y             Z
Electronic contribution:     -1.71057      -1.55459      -0.07614
Nuclear contribution   :      2.30952       2.56454       0.13888
                        -----------------------------------------
Total Dipole Moment    :      0.59896       1.00995       0.06274
                        -----------------------------------------
Magnitude (a.u.)       :      1.17587
Magnitude (Debye)      :      2.98883

Rotational constants in cm-1:     0.787891     0.212190     0.167769
Rotational constants in MHz : 23620.376347  6361.310579  5029.580586

                             ****ORCA TERMINATED NORMALLY****
TOTAL RUN TIME: 0 days 0 hours 0 minutes 59 seconds 797 msec
