                         Program Version 5.0.3 -  RELEASE  -
|  1> ! B3LYP 6-31G
|  2> !TightSCF
|  3> %scf
|  4>  ConvForced true
|  5>  convergence tight
|  6>  MaxIter 500
|  7> end
|  8>
|  9> %tddft
| 10>  nroots 1
| 11> end
| 12>
| 13> # 	26498
| 14> * xyz 0 1
| 15> 		C   -0.549679  -0.418916   0.011296
| 16> 		O   -0.594895  -1.602043  -0.005725
| 17> 		C    0.622964   0.334066  -0.060444
| 18> 		C    1.822845  -0.095744   0.027210
| 19> 		H   -1.527034   0.114134   0.262568
| 20> 		H    0.574986   1.407484   0.018433
| 21> 		H    1.999352  -1.106212  -0.101211
| 22> 		H    2.747722   0.416705   0.180370
| 23> *
| 24>
| 25>                          ****END OF INPUT****

CARTESIAN COORDINATES (ANGSTROEM)
---------------------------------
  C     -0.549679   -0.418916    0.011296
  O     -0.594895   -1.602043   -0.005725
  C      0.622964    0.334066   -0.060444
  C      1.822845   -0.095744    0.027210
  H     -1.527034    0.114134    0.262568
  H      0.574986    1.407484    0.018433
  H      1.999352   -1.106212   -0.101211
  H      2.747722    0.416705    0.180370

 Total Charge           Charge          ....    0
 Multiplicity           Mult            ....    1
 Number of Electrons    NEL             ....   30
 Basis Dimension        Dim             ....   44

ORBITAL ENERGIES
----------------

  NO   OCC          E(Eh)            E(eV)
   0   2.0000     -19.143310      -520.9159
   1   2.0000     -10.272509      -279.5292
   2   2.0000     -10.196081      -277.4495
   3   2.0000     -10.190521      -277.2982
   4   2.0000      -1.086220       -29.5576
   5   2.0000      -0.821900       -22.3650
   6   2.0000      -0.672947       -18.3118
   7   2.0000      -0.551452       -15.0058
   8   2.0000      -0.531019       -14.4498
   9   2.0000      -0.460159       -12.5216
  10   2.0000      -0.431727       -11.7479
  11   2.0000      -0.418013       -11.3747
  12   2.0000      -0.368813       -10.0359
  13   2.0000      -0.296287        -8.0624
  14   2.0000      -0.253740        -6.9046
  15   0.0000      -0.065296        -1.7768
  16   0.0000       0.077108         2.0982
  17   0.0000       0.103629         2.8199
  18   0.0000       0.143620         3.9081
  19   0.0000       0.169255         4.6057

MULLIKEN ATOMIC CHARGES
-----------------------
   0 C :    0.149950
   1 O :   -0.347274
   2 C :   -0.093614
   3 C :   -0.253532
   4 H :    0.095578
   5 H :    0.132628
   6 H :    0.157967
   7 H :    0.158297
Sum of atomic charges:   -0.0000000

LOEWDIN ATOMIC CHARGES
----------------------
   0 C :    0.105561
   1 O :   -0.220305
   2 C :   -0.179287
   3 C :   -0.147281
   4 H :    0.069709
   5 H :    0.121692
   6 H :    0.122474
   7 H :    0.127438

  Mayer bond orders larger than 0.100000
B(  0-C ,  1-O ) :   1.8972 B(  0-C ,  2-C ) :   1.0016 B(  0-C ,  4-H ) :   0.8834
B(  1-O ,  3-C ) :   0.1071 B(  2-C ,  3-C ) :   1.8867 B(  2-C ,  5-H ) :   0.9346
B(  3-C ,  6-H ) :   0.9394 B(  3-C ,  7-H ) :   0.9365

-----------------------------------------------------------------------------
         ABSORPTION SPECTRUM VIA TRANSITION ELECTRIC DIPOLE MOMENTS
-----------------------------------------------------------------------------
State   Energy    Wavelength  fosc         T2        TX        TY        TZ
        (cm-1)      (nm)                 (au**2)    (au)      (au)      (au)
-----------------------------------------------------------------------------
   1   28179.2    354.9   0.000250879   0.00293   0.04264   0.01111   0.03146

FINAL SINGLE POINT ENERGY      -191.586812001946

DIPOLE MOMENT
-------------
                                X             Y             Z
Electronic contribution:     -1.83478      -1.60912      -0.27904
Nuclear contribution   :      2.40369       2.56878       0.33727
                        -----------------------------------------
Total Dipole Moment    :      0.56892       0.95965       0.05823
                        -----------------------------------------
Magnitude (a.u.)       :      1.11714
Magnitude (Debye)      :      2.83954

Rotational constants in cm-1:     0.863895     0.213724     0.171922
Rotational constants in MHz : 25898.925631  6407.272548  5154.085833

                             ****ORCA TERMINATED NORMALLY****
TOTAL RUN TIME: 0 days 0 hours 1 minutes 0 seconds 536 msec
