                         Program Version 5.0.3 -  RELEASE  -
|  1> ! B3LYP 6-31G
|  2> !TightSCF
|  3> %scf
|  4>  ConvForced true
|  5>  convergence tight
|  6>  MaxIter 500
|  7> end
|  8>
|  9> %tddft
| 10>  nroots 1
| 11> end
| 12>
| 13> # 	14361
| 14> * xyz 0 1
| 15> 		C   -1.149396  -0.376240  -0.068089
| 16> 		O   -1.249679  -1.579906   0.085570
| 17> 		C   -0.046791   0.501841   0.038091
| 18> 		C    1.192363  -0.070297  -0.072152
| 19> 		H   -2.230096   0.205245   0.004098
| 20> 		H   -0.084038   1.635668   0.163269
| 21> 		H    1.423917  -1.033070  -0.166004
| 22> 		H    2.136479   0.651205   0.023507
| 23> *
| 24>
| 25>                          ****END OF INPUT****

CARTESIAN COORDINATES (ANGSTROEM)
---------------------------------
  C     -1.149396   -0.376240   -0.068089
  O     -1.249679   -1.579906    0.085570
  C     -0.046791    0.501841    0.038091
  C      1.192363   -0.070297   -0.072152
  H     -2.230096    0.205245    0.004098
  H     -0.084038    1.635668    0.163269
  H      1.423917   -1.033070   -0.166004
  H      2.136479    0.651205    0.023507

 Total Charge           Charge          ....    0
 Multiplicity           Mult            ....    1
 Number of Electrons    NEL             ....   30
 Basis Dimension        Dim             ....   44

ORBITAL ENERGIES
----------------

  NO   OCC          E(Eh)            E(eV)
   0   2.0000     -19.148958      -521.0696
   1   2.0000     -10.282264      -279.7946
   2   2.0000     -10.222771      -278.1757
   3   2.0000     -10.218709      -278.0652
   4   2.0000      -1.065531       -28.9946
   5   2.0000      -0.810374       -22.0514
   6   2.0000      -0.665520       -18.1097
   7   2.0000      -0.550528       -14.9806
   8   2.0000      -0.507031       -13.7970
   9   2.0000      -0.451766       -12.2932
  10   2.0000      -0.408723       -11.1219
  11   2.0000      -0.402569       -10.9545
  12   2.0000      -0.393414       -10.7053
  13   2.0000      -0.290272        -7.8987
  14   2.0000      -0.248459        -6.7609
  15   0.0000      -0.079210        -2.1554
  16   0.0000       0.055952         1.5225
  17   0.0000       0.069229         1.8838
  18   0.0000       0.124824         3.3966
  19   0.0000       0.145610         3.9622

MULLIKEN ATOMIC CHARGES
-----------------------
   0 C :    0.159320
   1 O :   -0.370625
   2 C :   -0.097548
   3 C :   -0.229036
   4 H :    0.062449
   5 H :    0.168171
   6 H :    0.172204
   7 H :    0.135065
Sum of atomic charges:    0.0000000

LOEWDIN ATOMIC CHARGES
----------------------
   0 C :    0.109835
   1 O :   -0.236949
   2 C :   -0.174849
   3 C :   -0.133831
   4 H :    0.045117
   5 H :    0.141517
   6 H :    0.129521
   7 H :    0.119639

  Mayer bond orders larger than 0.100000
B(  0-C ,  1-O ) :   1.8540 B(  0-C ,  2-C ) :   1.0021 B(  0-C ,  4-H ) :   0.8796
B(  1-O ,  3-C ) :   0.1194 B(  2-C ,  3-C ) :   1.8108 B(  2-C ,  5-H ) :   0.9294
B(  3-C ,  6-H ) :   0.9355 B(  3-C ,  7-H ) :   0.9474

-----------------------------------------------------------------------------
         ABSORPTION SPECTRUM VIA TRANSITION ELECTRIC DIPOLE MOMENTS
-----------------------------------------------------------------------------
State   Energy    Wavelength  fosc         T2        TX        TY        TZ
        (cm-1)      (nm)                 (au**2)    (au)      (au)      (au)
-----------------------------------------------------------------------------
   1   24834.2    402.7   0.000478496   0.00634  -0.06842   0.01377   0.03837

FINAL SINGLE POINT ENERGY      -191.594130127265

DIPOLE MOMENT
-------------
                                X             Y             Z
Electronic contribution:     -1.66701      -1.89449      -0.08878
Nuclear contribution   :      2.41297       2.90061       0.01336
                        -----------------------------------------
Total Dipole Moment    :      0.74596       1.00612      -0.07542
                        -----------------------------------------
Magnitude (a.u.)       :      1.25476
Magnitude (Debye)      :      3.18934

Rotational constants in cm-1:     0.765200     0.207456     0.163983
Rotational constants in MHz : 22940.120064  6219.361538  4916.080458

                             ****ORCA TERMINATED NORMALLY****
TOTAL RUN TIME: 0 days 0 hours 1 minutes 0 seconds 791 msec
