                         Program Version 5.0.3 -  RELEASE  -
|  1> ! B3LYP 6-31G
|  2> !TightSCF
|  3> %scf
|  4>  ConvForced true
|  5>  convergence tight
|  6>  MaxIter 500
|  7> end
|  8>
|  9> %tddft
| 10>  nroots 1
| 11> end
| 12>
| 13> # 	31014
| 14> * xyz 0 1
| 15> 		C   -0.572182  -0.407111  -0.019222
| 16> 		O   -0.570173  -1.618084   0.016561
| 17> 		C    0.606985   0.396933   0.023235
| 18> 		C    1.810401  -0.140115  -0.002769
| 19> 		H   -1.466222  -0.002574  -0.262823
| 20> 		H    0.594536   1.545461   0.217422
| 21> 		H    2.148698  -1.177095  -0.005303
| 22> 		H    2.760321   0.376356  -0.225494
| 23> *
| 24>
| 25>                          ****END OF INPUT****

CARTESIAN COORDINATES (ANGSTROEM)
---------------------------------
  C     -0.572182   -0.407111   -0.019222
  O     -0.570173   -1.618084    0.016561
  C      0.606985    0.396933    0.023235
  C      1.810401   -0.140115   -0.002769
  H     -1.466222   -0.002574   -0.262823
  H      0.594536    1.545461    0.217422
  H      2.148698   -1.177095   -0.005303
  H      2.760321    0.376356   -0.225494

 Total Charge           Charge          ....    0
 Multiplicity           Mult            ....    1
 Number of Electrons    NEL             ....   30
 Basis Dimension        Dim             ....   44

ORBITAL ENERGIES
----------------

  NO   OCC          E(Eh)            E(eV)
   0   2.0000     -19.138518      -520.7855
   1   2.0000     -10.262399      -279.2541
   2   2.0000     -10.208905      -277.7984
   3   2.0000     -10.207982      -277.7733
   4   2.0000      -1.065430       -28.9918
   5   2.0000      -0.803761       -21.8715
   6   2.0000      -0.669317       -18.2131
   7   2.0000      -0.567586       -15.4448
   8   2.0000      -0.515189       -14.0190
   9   2.0000      -0.453634       -12.3440
  10   2.0000      -0.419783       -11.4229
  11   2.0000      -0.402438       -10.9509
  12   2.0000      -0.365003        -9.9322
  13   2.0000      -0.285289        -7.7631
  14   2.0000      -0.251326        -6.8389
  15   0.0000      -0.069184        -1.8826
  16   0.0000       0.056486         1.5371
  17   0.0000       0.102520         2.7897
  18   0.0000       0.131033         3.5656
  19   0.0000       0.165222         4.4959

MULLIKEN ATOMIC CHARGES
-----------------------
   0 C :    0.168459
   1 O :   -0.369524
   2 C :   -0.122892
   3 C :   -0.253664
   4 H :    0.108000
   5 H :    0.147886
   6 H :    0.177174
   7 H :    0.144562
Sum of atomic charges:   -0.0000000

LOEWDIN ATOMIC CHARGES
----------------------
   0 C :    0.105887
   1 O :   -0.241271
   2 C :   -0.170792
   3 C :   -0.155185
   4 H :    0.082583
   5 H :    0.128638
   6 H :    0.131019
   7 H :    0.119122

  Mayer bond orders larger than 0.100000
B(  0-C ,  1-O ) :   1.8865 B(  0-C ,  2-C ) :   1.0001 B(  0-C ,  4-H ) :   0.9107
B(  1-O ,  3-C ) :   0.1144 B(  2-C ,  3-C ) :   1.8674 B(  2-C ,  5-H ) :   0.9284
B(  3-C ,  6-H ) :   0.9298 B(  3-C ,  7-H ) :   0.9372

-----------------------------------------------------------------------------
         ABSORPTION SPECTRUM VIA TRANSITION ELECTRIC DIPOLE MOMENTS
-----------------------------------------------------------------------------
State   Energy    Wavelength  fosc         T2        TX        TY        TZ
        (cm-1)      (nm)                 (au**2)    (au)      (au)      (au)
-----------------------------------------------------------------------------
   1   26730.0    374.1   0.000091522   0.00113   0.02904   0.00648   0.01556

FINAL SINGLE POINT ENERGY      -191.591366456947

DIPOLE MOMENT
-------------
                                X             Y             Z
Electronic contribution:     -2.14349      -1.47867       0.19757
Nuclear contribution   :      2.62950       2.48302      -0.25898
                        -----------------------------------------
Total Dipole Moment    :      0.48600       1.00435      -0.06141
                        -----------------------------------------
Magnitude (a.u.)       :      1.11745
Magnitude (Debye)      :      2.84034

Rotational constants in cm-1:     0.771867     0.215866     0.169312
Rotational constants in MHz : 23139.988411  6471.486204  5075.840502

                             ****ORCA TERMINATED NORMALLY****
TOTAL RUN TIME: 0 days 0 hours 1 minutes 1 seconds 381 msec
