                         Program Version 5.0.3 -  RELEASE  -
|  1> ! B3LYP 6-31G
|  2> !TightSCF
|  3> %scf
|  4>  ConvForced true
|  5>  convergence tight
|  6>  MaxIter 500
|  7> end
|  8>
|  9> %tddft
| 10>  nroots 1
| 11> end
| 12>
| 13> # 	4420
| 14> * xyz 0 1
| 15> 		C   -1.201958  -0.305565   0.021283
| 16> 		O   -1.177367  -1.542270   0.082434
| 17> 		C    0.016749   0.495306   0.087594
| 18> 		C    1.234277  -0.044747   0.054229
| 19> 		H   -2.199324   0.246057  -0.125037
| 20> 		H   -0.141055   1.558866  -0.068617
| 21> 		H    1.398910  -1.126258  -0.181949
| 22> 		H    2.056526   0.742952   0.124935
| 23> *
| 24>
| 25>                          ****END OF INPUT****

CARTESIAN COORDINATES (ANGSTROEM)
---------------------------------
  C     -1.201958   -0.305565    0.021283
  O     -1.177367   -1.542270    0.082434
  C      0.016749    0.495306    0.087594
  C      1.234277   -0.044747    0.054229
  H     -2.199324    0.246057   -0.125037
  H     -0.141055    1.558866   -0.068617
  H      1.398910   -1.126258   -0.181949
  H      2.056526    0.742952    0.124935

 Total Charge           Charge          ....    0
 Multiplicity           Mult            ....    1
 Number of Electrons    NEL             ....   30
 Basis Dimension        Dim             ....   44

ORBITAL ENERGIES
----------------

  NO   OCC          E(Eh)            E(eV)
   0   2.0000     -19.145974      -520.9884
   1   2.0000     -10.277878      -279.6753
   2   2.0000     -10.218179      -278.0508
   3   2.0000     -10.202111      -277.6135
   4   2.0000      -1.051602       -28.6156
   5   2.0000      -0.802322       -21.8323
   6   2.0000      -0.659239       -17.9388
   7   2.0000      -0.535423       -14.5696
   8   2.0000      -0.513938       -13.9850
   9   2.0000      -0.445027       -12.1098
  10   2.0000      -0.417430       -11.3589
  11   2.0000      -0.398343       -10.8395
  12   2.0000      -0.381198       -10.3729
  13   2.0000      -0.285105        -7.7581
  14   2.0000      -0.254261        -6.9188
  15   0.0000      -0.074110        -2.0166
  16   0.0000       0.058779         1.5995
  17   0.0000       0.089657         2.4397
  18   0.0000       0.113885         3.0990
  19   0.0000       0.152940         4.1617

MULLIKEN ATOMIC CHARGES
-----------------------
   0 C :    0.183605
   1 O :   -0.393731
   2 C :   -0.108903
   3 C :   -0.254391
   4 H :    0.108475
   5 H :    0.138052
   6 H :    0.183091
   7 H :    0.143802
Sum of atomic charges:   -0.0000000

LOEWDIN ATOMIC CHARGES
----------------------
   0 C :    0.111100
   1 O :   -0.252526
   2 C :   -0.187045
   3 C :   -0.148480
   4 H :    0.078689
   5 H :    0.121638
   6 H :    0.147244
   7 H :    0.129381

  Mayer bond orders larger than 0.100000
B(  0-C ,  1-O ) :   1.8425 B(  0-C ,  2-C ) :   1.0108 B(  0-C ,  4-H ) :   0.8759
B(  1-O ,  3-C ) :   0.1090 B(  2-C ,  3-C ) :   1.8408 B(  2-C ,  5-H ) :   0.9312
B(  3-C ,  6-H ) :   0.9301 B(  3-C ,  7-H ) :   0.9428

-----------------------------------------------------------------------------
         ABSORPTION SPECTRUM VIA TRANSITION ELECTRIC DIPOLE MOMENTS
-----------------------------------------------------------------------------
State   Energy    Wavelength  fosc         T2        TX        TY        TZ
        (cm-1)      (nm)                 (au**2)    (au)      (au)      (au)
-----------------------------------------------------------------------------
   1   26381.6    379.1   0.000161925   0.00202  -0.02327  -0.01814   0.03391

FINAL SINGLE POINT ENERGY      -191.611440948921

DIPOLE MOMENT
-------------
                                X             Y             Z
Electronic contribution:     -1.71500      -1.70934       0.28345
Nuclear contribution   :      2.17940       2.75573      -0.43725
                        -----------------------------------------
Total Dipole Moment    :      0.46440       1.04639      -0.15380
                        -----------------------------------------
Magnitude (a.u.)       :      1.15510
Magnitude (Debye)      :      2.93603

Rotational constants in cm-1:     0.745370     0.211634     0.165294
Rotational constants in MHz : 22345.624032  6344.620108  4955.380192

                             ****ORCA TERMINATED NORMALLY****
TOTAL RUN TIME: 0 days 0 hours 1 minutes 1 seconds 531 msec
