                         Program Version 5.0.3 -  RELEASE  -
|  1> ! B3LYP 6-31G
|  2> !TightSCF
|  3> %scf
|  4>  ConvForced true
|  5>  convergence tight
|  6>  MaxIter 500
|  7> end
|  8>
|  9> %tddft
| 10>  nroots 1
| 11> end
| 12>
| 13> # 	23333
| 14> * xyz 0 1
| 15> 		C   -0.541654  -0.433892  -0.027766
| 16> 		O   -0.630106  -1.671984   0.024912
| 17> 		C    0.650838   0.404925   0.009451
| 18> 		C    1.834635  -0.059932  -0.018182
| 19> 		H   -1.438420   0.121607  -0.114189
| 20> 		H    0.654025   1.436927   0.158630
| 21> 		H    1.976903  -1.105433  -0.124823
| 22> 		H    2.633960   0.377697   0.138042
| 23> *
| 24>
| 25>                          ****END OF INPUT****

CARTESIAN COORDINATES (ANGSTROEM)
---------------------------------
  C     -0.541654   -0.433892   -0.027766
  O     -0.630106   -1.671984    0.024912
  C      0.650838    0.404925    0.009451
  C      1.834635   -0.059932   -0.018182
  H     -1.438420    0.121607   -0.114189
  H      0.654025    1.436927    0.158630
  H      1.976903   -1.105433   -0.124823
  H      2.633960    0.377697    0.138042

 Total Charge           Charge          ....    0
 Multiplicity           Mult            ....    1
 Number of Electrons    NEL             ....   30
 Basis Dimension        Dim             ....   44

ORBITAL ENERGIES
----------------

  NO   OCC          E(Eh)            E(eV)
   0   2.0000     -19.149040      -521.0719
   1   2.0000     -10.273599      -279.5589
   2   2.0000     -10.191942      -277.3368
   3   2.0000     -10.181186      -277.0441
   4   2.0000      -1.049308       -28.5531
   5   2.0000      -0.823713       -22.4144
   6   2.0000      -0.678399       -18.4602
   7   2.0000      -0.570184       -15.5155
   8   2.0000      -0.534528       -14.5453
   9   2.0000      -0.455402       -12.3921
  10   2.0000      -0.430481       -11.7140
  11   2.0000      -0.395892       -10.7728
  12   2.0000      -0.378019       -10.2864
  13   2.0000      -0.297758        -8.1024
  14   2.0000      -0.256448        -6.9783
  15   0.0000      -0.069263        -1.8847
  16   0.0000       0.070070         1.9067
  17   0.0000       0.120004         3.2655
  18   0.0000       0.145346         3.9551
  19   0.0000       0.175821         4.7843

MULLIKEN ATOMIC CHARGES
-----------------------
   0 C :    0.181504
   1 O :   -0.387816
   2 C :   -0.104937
   3 C :   -0.220556
   4 H :    0.105985
   5 H :    0.135302
   6 H :    0.162912
   7 H :    0.127605
Sum of atomic charges:   -0.0000000

LOEWDIN ATOMIC CHARGES
----------------------
   0 C :    0.127669
   1 O :   -0.247355
   2 C :   -0.173221
   3 C :   -0.150066
   4 H :    0.077524
   5 H :    0.126589
   6 H :    0.127168
   7 H :    0.111692

  Mayer bond orders larger than 0.100000
B(  0-C ,  1-O ) :   1.8725 B(  0-C ,  2-C ) :   0.9844 B(  0-C ,  4-H ) :   0.8967
B(  2-C ,  3-C ) :   1.9039 B(  2-C ,  5-H ) :   0.9406 B(  3-C ,  6-H ) :   0.9448
B(  3-C ,  7-H ) :   0.9393

-----------------------------------------------------------------------------
         ABSORPTION SPECTRUM VIA TRANSITION ELECTRIC DIPOLE MOMENTS
-----------------------------------------------------------------------------
State   Energy    Wavelength  fosc         T2        TX        TY        TZ
        (cm-1)      (nm)                 (au**2)    (au)      (au)      (au)
-----------------------------------------------------------------------------
   1   27388.5    365.1   0.000024023   0.00029   0.00131  -0.00383  -0.01650

FINAL SINGLE POINT ENERGY      -191.577243410447

DIPOLE MOMENT
-------------
                                X             Y             Z
Electronic contribution:     -1.87492      -1.47416      -0.04212
Nuclear contribution   :      2.42990       2.56779       0.05323
                        -----------------------------------------
Total Dipole Moment    :      0.55499       1.09362       0.01111
                        -----------------------------------------
Magnitude (a.u.)       :      1.22644
Magnitude (Debye)      :      3.11736

Rotational constants in cm-1:     0.845874     0.202217     0.163511
Rotational constants in MHz : 25358.670462  6062.318496  4901.925846

                             ****ORCA TERMINATED NORMALLY****
TOTAL RUN TIME: 0 days 0 hours 1 minutes 0 seconds 630 msec
