                         Program Version 5.0.3 -  RELEASE  -
|  1> ! B3LYP 6-31G
|  2> !TightSCF
|  3> %scf
|  4>  ConvForced true
|  5>  convergence tight
|  6>  MaxIter 500
|  7> end
|  8>
|  9> %tddft
| 10>  nroots 1
| 11> end
| 12>
| 13> # 	17143
| 14> * xyz 0 1
| 15> 		C   -1.166794  -0.274790  -0.035031
| 16> 		O   -1.177991  -1.548828   0.000699
| 17> 		C    0.016670   0.567150   0.006113
| 18> 		C    1.230506  -0.032494  -0.081797
| 19> 		H   -2.228081   0.194869   0.142987
| 20> 		H   -0.181834   1.666722   0.011433
| 21> 		H    1.287846  -1.111389  -0.128410
| 22> 		H    2.245819   0.548232   0.028708
| 23> *
| 24>
| 25>                          ****END OF INPUT****

CARTESIAN COORDINATES (ANGSTROEM)
---------------------------------
  C     -1.166794   -0.274790   -0.035031
  O     -1.177991   -1.548828    0.000699
  C      0.016670    0.567150    0.006113
  C      1.230506   -0.032494   -0.081797
  H     -2.228081    0.194869    0.142987
  H     -0.181834    1.666722    0.011433
  H      1.287846   -1.111389   -0.128410
  H      2.245819    0.548232    0.028708

 Total Charge           Charge          ....    0
 Multiplicity           Mult            ....    1
 Number of Electrons    NEL             ....   30
 Basis Dimension        Dim             ....   44

ORBITAL ENERGIES
----------------

  NO   OCC          E(Eh)            E(eV)
   0   2.0000     -19.144583      -520.9506
   1   2.0000     -10.281444      -279.7723
   2   2.0000     -10.225195      -278.2417
   3   2.0000     -10.216257      -277.9985
   4   2.0000      -1.029965       -28.0268
   5   2.0000      -0.801802       -21.8181
   6   2.0000      -0.659391       -17.9429
   7   2.0000      -0.538584       -14.6556
   8   2.0000      -0.507011       -13.7965
   9   2.0000      -0.448252       -12.1976
  10   2.0000      -0.410082       -11.1589
  11   2.0000      -0.389195       -10.5905
  12   2.0000      -0.379822       -10.3355
  13   2.0000      -0.285540        -7.7699
  14   2.0000      -0.252280        -6.8649
  15   0.0000      -0.081095        -2.2067
  16   0.0000       0.051403         1.3988
  17   0.0000       0.083906         2.2832
  18   0.0000       0.117998         3.2109
  19   0.0000       0.144836         3.9412

MULLIKEN ATOMIC CHARGES
-----------------------
   0 C :    0.166954
   1 O :   -0.409840
   2 C :   -0.097020
   3 C :   -0.257314
   4 H :    0.111705
   5 H :    0.151285
   6 H :    0.184990
   7 H :    0.149239
Sum of atomic charges:    0.0000000

LOEWDIN ATOMIC CHARGES
----------------------
   0 C :    0.110086
   1 O :   -0.277860
   2 C :   -0.175745
   3 C :   -0.138894
   4 H :    0.083047
   5 H :    0.130012
   6 H :    0.141279
   7 H :    0.128074

  Mayer bond orders larger than 0.100000
B(  0-C ,  1-O ) :   1.8131 B(  0-C ,  2-C ) :   1.0052 B(  0-C ,  4-H ) :   0.8898
B(  1-O ,  3-C ) :   0.1180 B(  2-C ,  3-C ) :   1.8279 B(  2-C ,  5-H ) :   0.9279
B(  3-C ,  6-H ) :   0.9233 B(  3-C ,  7-H ) :   0.9391

-----------------------------------------------------------------------------
         ABSORPTION SPECTRUM VIA TRANSITION ELECTRIC DIPOLE MOMENTS
-----------------------------------------------------------------------------
State   Energy    Wavelength  fosc         T2        TX        TY        TZ
        (cm-1)      (nm)                 (au**2)    (au)      (au)      (au)
-----------------------------------------------------------------------------
   1   24451.2    409.0   0.000163614   0.00220  -0.02477   0.00073   0.03986

FINAL SINGLE POINT ENERGY      -191.618549313540

DIPOLE MOMENT
-------------
                                X             Y             Z
Electronic contribution:     -1.61117      -1.48691      -0.13430
Nuclear contribution   :      2.16235       2.56275       0.13625
                        -----------------------------------------
Total Dipole Moment    :      0.55117       1.07584       0.00195
                        -----------------------------------------
Magnitude (a.u.)       :      1.20881
Magnitude (Debye)      :      3.07256

Rotational constants in cm-1:     0.709972     0.210418     0.162496
Rotational constants in MHz : 21284.416781  6308.170214  4871.494838

                             ****ORCA TERMINATED NORMALLY****
TOTAL RUN TIME: 0 days 0 hours 1 minutes 1 seconds 662 msec
