                         Program Version 5.0.3 -  RELEASE  -
|  1> ! B3LYP 6-31G
|  2> !TightSCF
|  3> %scf
|  4>  ConvForced true
|  5>  convergence tight
|  6>  MaxIter 500
|  7> end
|  8>
|  9> %tddft
| 10>  nroots 1
| 11> end
| 12>
| 13> # 	17605
| 14> * xyz 0 1
| 15> 		C   -1.187750  -0.273937  -0.079819
| 16> 		O   -1.327110  -1.307654  -0.670209
| 17> 		C    0.065736   0.576581  -0.195454
| 18> 		C    1.238460   0.025161   0.124707
| 19> 		H   -1.983493   0.100466   0.927458
| 20> 		H   -0.077684   1.466135  -0.688419
| 21> 		H    0.996732  -1.120367   0.452664
| 22> 		H    2.271987   0.531330   0.120384
| 23> *
| 24>
| 25>                          ****END OF INPUT****

CARTESIAN COORDINATES (ANGSTROEM)
---------------------------------
  C     -1.187750   -0.273937   -0.079819
  O     -1.327110   -1.307654   -0.670209
  C      0.065736    0.576581   -0.195454
  C      1.238460    0.025161    0.124707
  H     -1.983493    0.100466    0.927458
  H     -0.077684    1.466135   -0.688419
  H      0.996732   -1.120367    0.452664
  H      2.271987    0.531330    0.120384

 Total Charge           Charge          ....    0
 Multiplicity           Mult            ....    1
 Number of Electrons    NEL             ....   30
 Basis Dimension        Dim             ....   44

ORBITAL ENERGIES
----------------

  NO   OCC          E(Eh)            E(eV)
   0   2.0000     -19.170561      -521.6575
   1   2.0000     -10.305602      -280.4297
   2   2.0000     -10.220308      -278.1087
   3   2.0000     -10.203467      -277.6504
   4   2.0000      -1.094063       -29.7710
   5   2.0000      -0.799011       -21.7422
   6   2.0000      -0.636052       -17.3079
   7   2.0000      -0.543349       -14.7853
   8   2.0000      -0.497633       -13.5413
   9   2.0000      -0.452704       -12.3187
  10   2.0000      -0.442334       -12.0365
  11   2.0000      -0.396829       -10.7983
  12   2.0000      -0.378370       -10.2960
  13   2.0000      -0.286993        -7.8095
  14   2.0000      -0.259312        -7.0562
  15   0.0000      -0.044189        -1.2024
  16   0.0000      -0.002683        -0.0730
  17   0.0000       0.067484         1.8363
  18   0.0000       0.095135         2.5887
  19   0.0000       0.128084         3.4853

MULLIKEN ATOMIC CHARGES
-----------------------
   0 C :    0.181201
   1 O :   -0.333559
   2 C :   -0.107732
   3 C :   -0.268083
   4 H :    0.068274
   5 H :    0.156838
   6 H :    0.144399
   7 H :    0.158661
Sum of atomic charges:   -0.0000000

LOEWDIN ATOMIC CHARGES
----------------------
   0 C :    0.128409
   1 O :   -0.196866
   2 C :   -0.182929
   3 C :   -0.186867
   4 H :    0.047649
   5 H :    0.126559
   6 H :    0.127827
   7 H :    0.136218

  Mayer bond orders larger than 0.100000
B(  0-C ,  1-O ) :   1.9047 B(  0-C ,  2-C ) :   0.9115 B(  0-C ,  4-H ) :   0.8258
B(  2-C ,  3-C ) :   1.9153 B(  2-C ,  5-H ) :   0.9295 B(  3-C ,  6-H ) :   0.9452
B(  3-C ,  7-H ) :   0.9384

-----------------------------------------------------------------------------
         ABSORPTION SPECTRUM VIA TRANSITION ELECTRIC DIPOLE MOMENTS
-----------------------------------------------------------------------------
State   Energy    Wavelength  fosc         T2        TX        TY        TZ
        (cm-1)      (nm)                 (au**2)    (au)      (au)      (au)
-----------------------------------------------------------------------------
   1   32641.0    306.4   0.001054160   0.01063  -0.07781  -0.01684   0.06553

FINAL SINGLE POINT ENERGY      -191.538285504550

DIPOLE MOMENT
-------------
                                X             Y             Z
Electronic contribution:     -1.90574      -1.15559      -1.22844
Nuclear contribution   :      2.36429       1.97289       1.53905
                        -----------------------------------------
Total Dipole Moment    :      0.45855       0.81729       0.31061
                        -----------------------------------------
Magnitude (a.u.)       :      0.98727
Magnitude (Debye)      :      2.50945

Rotational constants in cm-1:     0.790292     0.189805     0.165380
Rotational constants in MHz : 23692.367337  5690.208978  4957.967350

                             ****ORCA TERMINATED NORMALLY****
TOTAL RUN TIME: 0 days 0 hours 1 minutes 1 seconds 126 msec
