                         Program Version 5.0.3 -  RELEASE  -
|  1> ! B3LYP 6-31G
|  2> !TightSCF
|  3> %scf
|  4>  ConvForced true
|  5>  convergence tight
|  6>  MaxIter 500
|  7> end
|  8>
|  9> %tddft
| 10>  nroots 1
| 11> end
| 12>
| 13> # 	19205
| 14> * xyz 0 1
| 15> 		C   -1.193130  -0.310460   0.037384
| 16> 		O   -1.438853  -1.307974  -0.663661
| 17> 		C   -0.023179   0.467390  -0.181866
| 18> 		C    1.213112   0.022626   0.091833
| 19> 		H   -1.945943  -0.114628   0.773107
| 20> 		H   -0.077706   1.626832  -0.594828
| 21> 		H    1.247152  -1.097865   0.541687
| 22> 		H    2.137075   0.656505   0.034566
| 23> *
| 24>
| 25>                          ****END OF INPUT****

CARTESIAN COORDINATES (ANGSTROEM)
---------------------------------
  C     -1.193130   -0.310460    0.037384
  O     -1.438853   -1.307974   -0.663661
  C     -0.023179    0.467390   -0.181866
  C      1.213112    0.022626    0.091833
  H     -1.945943   -0.114628    0.773107
  H     -0.077706    1.626832   -0.594828
  H      1.247152   -1.097865    0.541687
  H      2.137075    0.656505    0.034566

 Total Charge           Charge          ....    0
 Multiplicity           Mult            ....    1
 Number of Electrons    NEL             ....   30
 Basis Dimension        Dim             ....   44

ORBITAL ENERGIES
----------------

  NO   OCC          E(Eh)            E(eV)
   0   2.0000     -19.148482      -521.0567
   1   2.0000     -10.277769      -279.6723
   2   2.0000     -10.219183      -278.0781
   3   2.0000     -10.217606      -278.0352
   4   2.0000      -1.054390       -28.6914
   5   2.0000      -0.800464       -21.7817
   6   2.0000      -0.658156       -17.9093
   7   2.0000      -0.553413       -15.0591
   8   2.0000      -0.502060       -13.6618
   9   2.0000      -0.456418       -12.4198
  10   2.0000      -0.428734       -11.6664
  11   2.0000      -0.381799       -10.3893
  12   2.0000      -0.358046        -9.7429
  13   2.0000      -0.288410        -7.8480
  14   2.0000      -0.253574        -6.9001
  15   0.0000      -0.050821        -1.3829
  16   0.0000      -0.002303        -0.0627
  17   0.0000       0.089088         2.4242
  18   0.0000       0.100234         2.7275
  19   0.0000       0.138914         3.7801

MULLIKEN ATOMIC CHARGES
-----------------------
   0 C :    0.134825
   1 O :   -0.367172
   2 C :   -0.089185
   3 C :   -0.267469
   4 H :    0.135344
   5 H :    0.156127
   6 H :    0.144675
   7 H :    0.152855
Sum of atomic charges:   -0.0000000

LOEWDIN ATOMIC CHARGES
----------------------
   0 C :    0.112239
   1 O :   -0.242276
   2 C :   -0.162140
   3 C :   -0.188929
   4 H :    0.096137
   5 H :    0.131632
   6 H :    0.122914
   7 H :    0.130423

  Mayer bond orders larger than 0.100000
B(  0-C ,  1-O ) :   1.8942 B(  0-C ,  2-C ) :   0.9659 B(  0-C ,  4-H ) :   0.8949
B(  2-C ,  3-C ) :   1.8936 B(  2-C ,  5-H ) :   0.9121 B(  3-C ,  6-H ) :   0.9474
B(  3-C ,  7-H ) :   0.9406

-----------------------------------------------------------------------------
         ABSORPTION SPECTRUM VIA TRANSITION ELECTRIC DIPOLE MOMENTS
-----------------------------------------------------------------------------
State   Energy    Wavelength  fosc         T2        TX        TY        TZ
        (cm-1)      (nm)                 (au**2)    (au)      (au)      (au)
-----------------------------------------------------------------------------
   1   29438.5    339.7   0.000099066   0.00111  -0.02737   0.01264  -0.01411

FINAL SINGLE POINT ENERGY      -191.572058717721

DIPOLE MOMENT
-------------
                                X             Y             Z
Electronic contribution:     -2.24418      -1.25735      -0.81664
Nuclear contribution   :      2.71256       2.17408       1.40298
                        -----------------------------------------
Total Dipole Moment    :      0.46838       0.91673       0.58633
                        -----------------------------------------
Magnitude (a.u.)       :      1.18472
Magnitude (Debye)      :      3.01131

Rotational constants in cm-1:     0.848004     0.185976     0.165239
Rotational constants in MHz : 25422.512633  5575.433567  4953.747018

                             ****ORCA TERMINATED NORMALLY****
TOTAL RUN TIME: 0 days 0 hours 0 minutes 52 seconds 439 msec
