                         Program Version 5.0.3 -  RELEASE  -
|  1> ! B3LYP 6-31G
|  2> !TightSCF
|  3> %scf
|  4>  ConvForced true
|  5>  convergence tight
|  6>  MaxIter 500
|  7> end
|  8>
|  9> %tddft
| 10>  nroots 1
| 11> end
| 12>
| 13> # 	14544
| 14> * xyz 0 1
| 15> 		C   -1.155812  -0.310619   0.004597
| 16> 		O   -1.296745  -1.422764   0.428490
| 17> 		C    0.011021   0.605840   0.115281
| 18> 		C    1.235027   0.029605  -0.070373
| 19> 		H   -1.969733   0.101487  -0.550847
| 20> 		H   -0.177098   1.655756   0.331622
| 21> 		H    1.183024  -1.195462  -0.178242
| 22> 		H    2.196699   0.582050  -0.037971
| 23> *
| 24>
| 25>                          ****END OF INPUT****

CARTESIAN COORDINATES (ANGSTROEM)
---------------------------------
  C     -1.155812   -0.310619    0.004597
  O     -1.296745   -1.422764    0.428490
  C      0.011021    0.605840    0.115281
  C      1.235027    0.029605   -0.070373
  H     -1.969733    0.101487   -0.550847
  H     -0.177098    1.655756    0.331622
  H      1.183024   -1.195462   -0.178242
  H      2.196699    0.582050   -0.037971

 Total Charge           Charge          ....    0
 Multiplicity           Mult            ....    1
 Number of Electrons    NEL             ....   30
 Basis Dimension        Dim             ....   44

ORBITAL ENERGIES
----------------

  NO   OCC          E(Eh)            E(eV)
   0   2.0000     -19.150513      -521.1119
   1   2.0000     -10.274483      -279.5829
   2   2.0000     -10.223351      -278.1915
   3   2.0000     -10.208506      -277.7876
   4   2.0000      -1.078296       -29.3419
   5   2.0000      -0.793642       -21.5961
   6   2.0000      -0.652185       -17.7468
   7   2.0000      -0.547110       -14.8876
   8   2.0000      -0.513524       -13.9737
   9   2.0000      -0.443046       -12.0559
  10   2.0000      -0.435897       -11.8614
  11   2.0000      -0.392437       -10.6788
  12   2.0000      -0.379931       -10.3384
  13   2.0000      -0.283958        -7.7269
  14   2.0000      -0.254254        -6.9186
  15   0.0000      -0.054431        -1.4812
  16   0.0000       0.028116         0.7651
  17   0.0000       0.093187         2.5358
  18   0.0000       0.114445         3.1142
  19   0.0000       0.154491         4.2039

MULLIKEN ATOMIC CHARGES
-----------------------
   0 C :    0.159719
   1 O :   -0.353964
   2 C :   -0.103193
   3 C :   -0.276012
   4 H :    0.103368
   5 H :    0.157257
   6 H :    0.162938
   7 H :    0.149886
Sum of atomic charges:    0.0000000

LOEWDIN ATOMIC CHARGES
----------------------
   0 C :    0.113236
   1 O :   -0.223587
   2 C :   -0.182561
   3 C :   -0.172567
   4 H :    0.071120
   5 H :    0.131490
   6 H :    0.135616
   7 H :    0.127253

  Mayer bond orders larger than 0.100000
B(  0-C ,  1-O ) :   1.8991 B(  0-C ,  2-C ) :   0.9440 B(  0-C ,  4-H ) :   0.8863
B(  2-C ,  3-C ) :   1.8649 B(  2-C ,  5-H ) :   0.9275 B(  3-C ,  6-H ) :   0.9339
B(  3-C ,  7-H ) :   0.9392

-----------------------------------------------------------------------------
         ABSORPTION SPECTRUM VIA TRANSITION ELECTRIC DIPOLE MOMENTS
-----------------------------------------------------------------------------
State   Energy    Wavelength  fosc         T2        TX        TY        TZ
        (cm-1)      (nm)                 (au**2)    (au)      (au)      (au)
-----------------------------------------------------------------------------
   1   30472.1    328.2   0.000193388   0.00209  -0.04521  -0.00074   0.00669

FINAL SINGLE POINT ENERGY      -191.580540404552

DIPOLE MOMENT
-------------
                                X             Y             Z
Electronic contribution:     -1.92754      -1.27024       0.56804
Nuclear contribution   :      2.37532       2.24207      -0.87333
                        -----------------------------------------
Total Dipole Moment    :      0.44777       0.97183      -0.30529
                        -----------------------------------------
Magnitude (a.u.)       :      1.11273
Magnitude (Debye)      :      2.82833

Rotational constants in cm-1:     0.781797     0.198065     0.162859
Rotational constants in MHz : 23437.696418  5937.838777  4882.389157

                             ****ORCA TERMINATED NORMALLY****
TOTAL RUN TIME: 0 days 0 hours 0 minutes 56 seconds 234 msec
