                         Program Version 5.0.3 -  RELEASE  -
|  1> ! B3LYP 6-31G
|  2> !TightSCF
|  3> %scf
|  4>  ConvForced true
|  5>  convergence tight
|  6>  MaxIter 500
|  7> end
|  8>
|  9> %tddft
| 10>  nroots 1
| 11> end
| 12>
| 13> # 	25105
| 14> * xyz 0 1
| 15> 		C   -0.548960  -0.435441  -0.014421
| 16> 		O   -0.610871  -1.632866   0.009417
| 17> 		C    0.620754   0.388508   0.002800
| 18> 		C    1.858428  -0.114809   0.039138
| 19> 		H   -1.364508   0.352943   0.018249
| 20> 		H    0.337727   1.304720  -0.109495
| 21> 		H    2.027412  -1.136410  -0.367776
| 22> 		H    2.628396   0.603478  -0.018798
| 23> *
| 24>
| 25>                          ****END OF INPUT****

CARTESIAN COORDINATES (ANGSTROEM)
---------------------------------
  C     -0.548960   -0.435441   -0.014421
  O     -0.610871   -1.632866    0.009417
  C      0.620754    0.388508    0.002800
  C      1.858428   -0.114809    0.039138
  H     -1.364508    0.352943    0.018249
  H      0.337727    1.304720   -0.109495
  H      2.027412   -1.136410   -0.367776
  H      2.628396    0.603478   -0.018798

 Total Charge           Charge          ....    0
 Multiplicity           Mult            ....    1
 Number of Electrons    NEL             ....   30
 Basis Dimension        Dim             ....   44

ORBITAL ENERGIES
----------------

  NO   OCC          E(Eh)            E(eV)
   0   2.0000     -19.151506      -521.1390
   1   2.0000     -10.270749      -279.4813
   2   2.0000     -10.210367      -277.8382
   3   2.0000     -10.187278      -277.2099
   4   2.0000      -1.075416       -29.2636
   5   2.0000      -0.815406       -22.1883
   6   2.0000      -0.684850       -18.6357
   7   2.0000      -0.540117       -14.6973
   8   2.0000      -0.521287       -14.1849
   9   2.0000      -0.452627       -12.3166
  10   2.0000      -0.423839       -11.5332
  11   2.0000      -0.413159       -11.2426
  12   2.0000      -0.393732       -10.7140
  13   2.0000      -0.287773        -7.8307
  14   2.0000      -0.253254        -6.8914
  15   0.0000      -0.078066        -2.1243
  16   0.0000       0.062720         1.7067
  17   0.0000       0.104480         2.8430
  18   0.0000       0.126605         3.4451
  19   0.0000       0.172338         4.6896

MULLIKEN ATOMIC CHARGES
-----------------------
   0 C :    0.177549
   1 O :   -0.368353
   2 C :   -0.090973
   3 C :   -0.230708
   4 H :    0.080519
   5 H :    0.120303
   6 H :    0.172298
   7 H :    0.139367
Sum of atomic charges:    0.0000000

LOEWDIN ATOMIC CHARGES
----------------------
   0 C :    0.101766
   1 O :   -0.214983
   2 C :   -0.187908
   3 C :   -0.140968
   4 H :    0.058636
   5 H :    0.116061
   6 H :    0.144163
   7 H :    0.123233

  Mayer bond orders larger than 0.100000
B(  0-C ,  1-O ) :   1.8894 B(  0-C ,  2-C ) :   1.0282 B(  0-C ,  4-H ) :   0.8664
B(  1-O ,  3-C ) :   0.1097 B(  2-C ,  3-C ) :   1.8575 B(  2-C ,  5-H ) :   0.9361
B(  3-C ,  6-H ) :   0.9353 B(  3-C ,  7-H ) :   0.9403

-----------------------------------------------------------------------------
         ABSORPTION SPECTRUM VIA TRANSITION ELECTRIC DIPOLE MOMENTS
-----------------------------------------------------------------------------
State   Energy    Wavelength  fosc         T2        TX        TY        TZ
        (cm-1)      (nm)                 (au**2)    (au)      (au)      (au)
-----------------------------------------------------------------------------
   1   25974.2    385.0   0.000093525   0.00119  -0.02532   0.00670  -0.02234

FINAL SINGLE POINT ENERGY      -191.583310491595

DIPOLE MOMENT
-------------
                                X             Y             Z
Electronic contribution:     -1.69276      -1.81061       0.28186
Nuclear contribution   :      2.24862       2.84095      -0.44811
                        -----------------------------------------
Total Dipole Moment    :      0.55586       1.03034      -0.16625
                        -----------------------------------------
Magnitude (a.u.)       :      1.18247
Magnitude (Debye)      :      3.00559

Rotational constants in cm-1:     0.799742     0.209815     0.166773
Rotational constants in MHz : 23975.655597  6290.109959  4999.742549

                             ****ORCA TERMINATED NORMALLY****
TOTAL RUN TIME: 0 days 0 hours 1 minutes 1 seconds 428 msec
