                         Program Version 5.0.3 -  RELEASE  -
|  1> ! B3LYP 6-31G
|  2> !TightSCF
|  3> %scf
|  4>  ConvForced true
|  5>  convergence tight
|  6>  MaxIter 500
|  7> end
|  8>
|  9> %tddft
| 10>  nroots 1
| 11> end
| 12>
| 13> # 	717
| 14> * xyz 0 1
| 15> 		C   -1.148664  -0.375288  -0.036693
| 16> 		O   -2.125313  -0.482405   0.716438
| 17> 		C   -0.007736   0.467549   0.259675
| 18> 		C    1.207658   0.089527  -0.205216
| 19> 		H   -1.161949  -0.929691  -0.918540
| 20> 		H   -0.217068   1.248960   0.983733
| 21> 		H    1.236309  -0.730435  -0.947282
| 22> 		H    2.152770   0.713277   0.121270
| 23> *
| 24>
| 25>                          ****END OF INPUT****

CARTESIAN COORDINATES (ANGSTROEM)
---------------------------------
  C     -1.148664   -0.375288   -0.036693
  O     -2.125313   -0.482405    0.716438
  C     -0.007736    0.467549    0.259675
  C      1.207658    0.089527   -0.205216
  H     -1.161949   -0.929691   -0.918540
  H     -0.217068    1.248960    0.983733
  H      1.236309   -0.730435   -0.947282
  H      2.152770    0.713277    0.121270

 Total Charge           Charge          ....    0
 Multiplicity           Mult            ....    1
 Number of Electrons    NEL             ....   30
 Basis Dimension        Dim             ....   44

ORBITAL ENERGIES
----------------

  NO   OCC          E(Eh)            E(eV)
   0   2.0000     -19.142982      -520.9070
   1   2.0000     -10.268387      -279.4170
   2   2.0000     -10.228168      -278.3226
   3   2.0000     -10.208387      -277.7843
   4   2.0000      -1.050347       -28.5814
   5   2.0000      -0.808638       -22.0041
   6   2.0000      -0.648687       -17.6517
   7   2.0000      -0.586087       -15.9482
   8   2.0000      -0.487805       -13.2738
   9   2.0000      -0.462742       -12.5918
  10   2.0000      -0.418031       -11.3752
  11   2.0000      -0.395183       -10.7535
  12   2.0000      -0.386275       -10.5111
  13   2.0000      -0.289300        -7.8723
  14   2.0000      -0.252808        -6.8793
  15   0.0000      -0.066138        -1.7997
  16   0.0000       0.038814         1.0562
  17   0.0000       0.089088         2.4242
  18   0.0000       0.112274         3.0551
  19   0.0000       0.162015         4.4087

MULLIKEN ATOMIC CHARGES
-----------------------
   0 C :    0.173623
   1 O :   -0.391756
   2 C :   -0.079051
   3 C :   -0.288777
   4 H :    0.113445
   5 H :    0.165425
   6 H :    0.152345
   7 H :    0.154745
Sum of atomic charges:   -0.0000000

LOEWDIN ATOMIC CHARGES
----------------------
   0 C :    0.104380
   1 O :   -0.251402
   2 C :   -0.157179
   3 C :   -0.176543
   4 H :    0.083315
   5 H :    0.136280
   6 H :    0.127492
   7 H :    0.133658

  Mayer bond orders larger than 0.100000
B(  0-C ,  1-O ) :   1.8310 B(  0-C ,  2-C ) :   1.0125 B(  0-C ,  4-H ) :   0.8987
B(  1-O ,  3-C ) :   0.1023 B(  2-C ,  3-C ) :   1.8148 B(  2-C ,  5-H ) :   0.9285
B(  3-C ,  6-H ) :   0.9417 B(  3-C ,  7-H ) :   0.9410

-----------------------------------------------------------------------------
         ABSORPTION SPECTRUM VIA TRANSITION ELECTRIC DIPOLE MOMENTS
-----------------------------------------------------------------------------
State   Energy    Wavelength  fosc         T2        TX        TY        TZ
        (cm-1)      (nm)                 (au**2)    (au)      (au)      (au)
-----------------------------------------------------------------------------
   1   27769.8    360.1   0.000346324   0.00411   0.06355   0.00763  -0.00304

FINAL SINGLE POINT ENERGY      -191.605026482180

DIPOLE MOMENT
-------------
                                X             Y             Z
Electronic contribution:     -2.81058      -0.40460       0.84534
Nuclear contribution   :      3.96182       0.62776      -1.43626
                        -----------------------------------------
Total Dipole Moment    :      1.15124       0.22316      -0.59091
                        -----------------------------------------
Magnitude (a.u.)       :      1.31314
Magnitude (Debye)      :      3.33774

Rotational constants in cm-1:     1.419871     0.158170     0.145843
Rotational constants in MHz : 42566.656894  4741.807199  4372.253699

                             ****ORCA TERMINATED NORMALLY****
TOTAL RUN TIME: 0 days 0 hours 1 minutes 1 seconds 351 msec
