                         Program Version 5.0.3 -  RELEASE  -
|  1> ! RKS CAM-B3LYP 6-31G
|  2> !TightSCF
|  3> %scf
|  4>  ConvForced true
|  5>  convergence tight
|  6>  MaxIter 500
|  7> end
|  8>
|  9> %tddft
| 10>  nroots 1
| 11> end
| 12>
| 13> # 	26168
| 14> * xyz 0 1
| 15> 		C   -0.545997  -0.467203   0.003923
| 16> 		O   -0.592330  -1.640119  -0.001744
| 17> 		C    0.667562   0.444030  -0.002394
| 18> 		C    1.790115  -0.112063  -0.011452
| 19> 		H   -1.492091   0.104080  -0.036268
| 20> 		H    0.503929   1.600980   0.084787
| 21> 		H    1.739455  -1.280118   0.133406
| 22> 		H    2.868483   0.446084  -0.035720
| 23> *
| 24>
| 25>                          ****END OF INPUT****

CARTESIAN COORDINATES (ANGSTROEM)
---------------------------------
  C     -0.545997   -0.467203    0.003923
  O     -0.592330   -1.640119   -0.001744
  C      0.667562    0.444030   -0.002394
  C      1.790115   -0.112063   -0.011452
  H     -1.492091    0.104080   -0.036268
  H      0.503929    1.600980    0.084787
  H      1.739455   -1.280118    0.133406
  H      2.868483    0.446084   -0.035720

 Total Charge           Charge          ....    0
 Multiplicity           Mult            ....    1
 Number of Electrons    NEL             ....   30
 Basis Dimension        Dim             ....   44

ORBITAL ENERGIES
----------------

  NO   OCC          E(Eh)            E(eV)
   0   2.0000     -19.233699      -523.3755
   1   2.0000     -10.359668      -281.9009
   2   2.0000     -10.287607      -279.9400
   3   2.0000     -10.276996      -279.6513
   4   2.0000      -1.183063       -32.1928
   5   2.0000      -0.896633       -24.3986
   6   2.0000      -0.721271       -19.6268
   7   2.0000      -0.600382       -16.3372
   8   2.0000      -0.589210       -16.0332
   9   2.0000      -0.520998       -14.1771
  10   2.0000      -0.499248       -13.5852
  11   2.0000      -0.490475       -13.3465
  12   2.0000      -0.426023       -11.5927
  13   2.0000      -0.362940        -9.8761
  14   2.0000      -0.324058        -8.8181
  15   0.0000      -0.002836        -0.0772
  16   0.0000       0.121518         3.3067
  17   0.0000       0.133853         3.6423
  18   0.0000       0.159355         4.3363
  19   0.0000       0.199201         5.4205

MULLIKEN ATOMIC CHARGES
-----------------------
   0 C :    0.163392
   1 O :   -0.335638
   2 C :   -0.101892
   3 C :   -0.303239
   4 H :    0.100172
   5 H :    0.153622
   6 H :    0.174335
   7 H :    0.149248
Sum of atomic charges:    0.0000000

LOEWDIN ATOMIC CHARGES
----------------------
   0 C :    0.115947
   1 O :   -0.206970
   2 C :   -0.200543
   3 C :   -0.168363
   4 H :    0.067641
   5 H :    0.126441
   6 H :    0.138262
   7 H :    0.127585

  Mayer bond orders larger than 0.100000
B(  0-C ,  1-O ) :   1.9276 B(  0-C ,  2-C ) :   0.9259 B(  0-C ,  4-H ) :   0.8887
B(  2-C ,  3-C ) :   1.8788 B(  2-C ,  5-H ) :   0.9316 B(  3-C ,  6-H ) :   0.9314
B(  3-C ,  7-H ) :   0.9408

-----------------------------------------------------------------------------
         ABSORPTION SPECTRUM VIA TRANSITION ELECTRIC DIPOLE MOMENTS
-----------------------------------------------------------------------------
State   Energy    Wavelength  fosc         T2        TX        TY        TZ
        (cm-1)      (nm)                 (au**2)    (au)      (au)      (au)
-----------------------------------------------------------------------------
   1   32498.6    307.7   0.000239394   0.00243  -0.00900  -0.00697  -0.04791

FINAL SINGLE POINT ENERGY      -191.565957081703

DIPOLE MOMENT
-------------
                                X             Y             Z
Electronic contribution:     -1.86909      -1.65089      -0.07631
Nuclear contribution   :      2.23588       2.60642       0.13712
                        -----------------------------------------
Total Dipole Moment    :      0.36679       0.95553       0.06082
                        -----------------------------------------
Magnitude (a.u.)       :      1.02531
Magnitude (Debye)      :      2.60614

Rotational constants in cm-1:     0.808254     0.209461     0.166448
Rotational constants in MHz : 24230.858956  6279.470912  4989.983033

                             ****ORCA TERMINATED NORMALLY****
TOTAL RUN TIME: 0 days 0 hours 0 minutes 36 seconds 436 msec
