                         Program Version 5.0.3 -  RELEASE  -
|  1> ! RKS CAM-B3LYP 6-31G
|  2> !TightSCF
|  3> %scf
|  4>  ConvForced true
|  5>  convergence tight
|  6>  MaxIter 500
|  7> end
|  8>
|  9> %tddft
| 10>  nroots 1
| 11> end
| 12>
| 13> # 	12320
| 14> * xyz 0 1
| 15> 		C   -1.166806  -0.202710   0.032248
| 16> 		O   -1.143666  -1.469622  -0.007873
| 17> 		C   -0.000081   0.536708  -0.042760
| 18> 		C    1.265922   0.049035   0.033031
| 19> 		H   -2.233547   0.204081   0.033862
| 20> 		H   -0.148292   1.613445   0.067655
| 21> 		H    1.120553  -1.244051   0.112139
| 22> 		H    2.227477   0.558793  -0.204535
| 23> *
| 24>
| 25>                          ****END OF INPUT****

CARTESIAN COORDINATES (ANGSTROEM)
---------------------------------
  C     -1.166806   -0.202710    0.032248
  O     -1.143666   -1.469622   -0.007873
  C     -0.000081    0.536708   -0.042760
  C      1.265922    0.049035    0.033031
  H     -2.233547    0.204081    0.033862
  H     -0.148292    1.613445    0.067655
  H      1.120553   -1.244051    0.112139
  H      2.227477    0.558793   -0.204535

 Total Charge           Charge          ....    0
 Multiplicity           Mult            ....    1
 Number of Electrons    NEL             ....   30
 Basis Dimension        Dim             ....   44

ORBITAL ENERGIES
----------------

  NO   OCC          E(Eh)            E(eV)
   0   2.0000     -19.216900      -522.9184
   1   2.0000     -10.353394      -281.7302
   2   2.0000     -10.312325      -280.6126
   3   2.0000     -10.280790      -279.7545
   4   2.0000      -1.119658       -30.4674
   5   2.0000      -0.887084       -24.1388
   6   2.0000      -0.745427       -20.2841
   7   2.0000      -0.611844       -16.6491
   8   2.0000      -0.584875       -15.9153
   9   2.0000      -0.521884       -14.2012
  10   2.0000      -0.483604       -13.1595
  11   2.0000      -0.464532       -12.6406
  12   2.0000      -0.412032       -11.2120
  13   2.0000      -0.339905        -9.2493
  14   2.0000      -0.321612        -8.7515
  15   0.0000      -0.037210        -1.0125
  16   0.0000       0.118513         3.2249
  17   0.0000       0.134983         3.6731
  18   0.0000       0.145570         3.9612
  19   0.0000       0.200906         5.4669

MULLIKEN ATOMIC CHARGES
-----------------------
   0 C :    0.153028
   1 O :   -0.407330
   2 C :   -0.109660
   3 C :   -0.265575
   4 H :    0.144064
   5 H :    0.139448
   6 H :    0.175369
   7 H :    0.170657
Sum of atomic charges:   -0.0000000

LOEWDIN ATOMIC CHARGES
----------------------
   0 C :    0.102628
   1 O :   -0.279352
   2 C :   -0.196956
   3 C :   -0.144118
   4 H :    0.104957
   5 H :    0.121046
   6 H :    0.148927
   7 H :    0.142868

  Mayer bond orders larger than 0.100000
B(  0-C ,  1-O ) :   1.8217 B(  0-C ,  2-C ) :   1.0416 B(  0-C ,  4-H ) :   0.9061
B(  1-O ,  3-C ) :   0.1258 B(  2-C ,  3-C ) :   1.8096 B(  2-C ,  5-H ) :   0.9342
B(  3-C ,  6-H ) :   0.9222 B(  3-C ,  7-H ) :   0.9366

-----------------------------------------------------------------------------
         ABSORPTION SPECTRUM VIA TRANSITION ELECTRIC DIPOLE MOMENTS
-----------------------------------------------------------------------------
State   Energy    Wavelength  fosc         T2        TX        TY        TZ
        (cm-1)      (nm)                 (au**2)    (au)      (au)      (au)
-----------------------------------------------------------------------------
   1   25299.2    395.3   0.000321182   0.00418  -0.00848   0.00058  -0.06409

FINAL SINGLE POINT ENERGY      -191.593468927721

DIPOLE MOMENT
-------------
                                X             Y             Z
Electronic contribution:     -1.51830      -1.12886       0.01403
Nuclear contribution   :      1.97375       2.23471      -0.00189
                        -----------------------------------------
Total Dipole Moment    :      0.45545       1.10585       0.01214
                        -----------------------------------------
Magnitude (a.u.)       :      1.19603
Magnitude (Debye)      :      3.04007

Rotational constants in cm-1:     0.741241     0.215792     0.167491
Rotational constants in MHz : 22221.834753  6469.284847  5021.260631

                             ****ORCA TERMINATED NORMALLY****
TOTAL RUN TIME: 0 days 0 hours 0 minutes 33 seconds 884 msec
