                         Program Version 5.0.3 -  RELEASE  -
|  1> ! RKS CAM-B3LYP 6-31G
|  2> !TightSCF
|  3> %scf
|  4>  ConvForced true
|  5>  convergence tight
|  6>  MaxIter 500
|  7> end
|  8>
|  9> %tddft
| 10>  nroots 1
| 11> end
| 12>
| 13> # 	29819
| 14> * xyz 0 1
| 15> 		C   -0.582404  -0.432210  -0.075703
| 16> 		O   -0.603871  -1.623812   0.039431
| 17> 		C    0.627936   0.401219   0.052628
| 18> 		C    1.893240  -0.129252  -0.015107
| 19> 		H   -1.517779   0.101753  -0.159115
| 20> 		H    0.306593   1.372228   0.229123
| 21> 		H    2.093587  -1.207998  -0.080193
| 22> 		H    2.545017   0.681856  -0.154752
| 23> *
| 24>
| 25>                          ****END OF INPUT****

CARTESIAN COORDINATES (ANGSTROEM)
---------------------------------
  C     -0.582404   -0.432210   -0.075703
  O     -0.603871   -1.623812    0.039431
  C      0.627936    0.401219    0.052628
  C      1.893240   -0.129252   -0.015107
  H     -1.517779    0.101753   -0.159115
  H      0.306593    1.372228    0.229123
  H      2.093587   -1.207998   -0.080193
  H      2.545017    0.681856   -0.154752

 Total Charge           Charge          ....    0
 Multiplicity           Mult            ....    1
 Number of Electrons    NEL             ....   30
 Basis Dimension        Dim             ....   44

ORBITAL ENERGIES
----------------

  NO   OCC          E(Eh)            E(eV)
   0   2.0000     -19.219442      -522.9876
   1   2.0000     -10.345471      -281.5146
   2   2.0000     -10.287823      -279.9459
   3   2.0000     -10.275557      -279.6121
   4   2.0000      -1.156652       -31.4741
   5   2.0000      -0.879568       -23.9343
   6   2.0000      -0.748516       -20.3682
   7   2.0000      -0.620780       -16.8923
   8   2.0000      -0.591827       -16.1044
   9   2.0000      -0.521176       -14.1819
  10   2.0000      -0.490458       -13.3460
  11   2.0000      -0.475370       -12.9355
  12   2.0000      -0.461520       -12.5586
  13   2.0000      -0.340835        -9.2746
  14   2.0000      -0.314454        -8.5567
  15   0.0000      -0.019617        -0.5338
  16   0.0000       0.114562         3.1174
  17   0.0000       0.160057         4.3554
  18   0.0000       0.170372         4.6361
  19   0.0000       0.218280         5.9397

MULLIKEN ATOMIC CHARGES
-----------------------
   0 C :    0.158527
   1 O :   -0.357022
   2 C :   -0.130401
   3 C :   -0.249412
   4 H :    0.105335
   5 H :    0.137042
   6 H :    0.188658
   7 H :    0.147274
Sum of atomic charges:   -0.0000000

LOEWDIN ATOMIC CHARGES
----------------------
   0 C :    0.099830
   1 O :   -0.231114
   2 C :   -0.188380
   3 C :   -0.163165
   4 H :    0.075170
   5 H :    0.122169
   6 H :    0.151765
   7 H :    0.133724

  Mayer bond orders larger than 0.100000
B(  0-C ,  1-O ) :   1.9149 B(  0-C ,  2-C ) :   0.9861 B(  0-C ,  4-H ) :   0.8922
B(  2-C ,  3-C ) :   1.8839 B(  2-C ,  5-H ) :   0.9363 B(  3-C ,  6-H ) :   0.9341
B(  3-C ,  7-H ) :   0.9499

-----------------------------------------------------------------------------
         ABSORPTION SPECTRUM VIA TRANSITION ELECTRIC DIPOLE MOMENTS
-----------------------------------------------------------------------------
State   Energy    Wavelength  fosc         T2        TX        TY        TZ
        (cm-1)      (nm)                 (au**2)    (au)      (au)      (au)
-----------------------------------------------------------------------------
   1   28323.4    353.1   0.000109016   0.00127  -0.02160  -0.00648  -0.02754

FINAL SINGLE POINT ENERGY      -191.599975616827

DIPOLE MOMENT
-------------
                                X             Y             Z
Electronic contribution:     -1.65079      -1.64605       0.05158
Nuclear contribution   :      2.05881       2.67617      -0.15456
                        -----------------------------------------
Total Dipole Moment    :      0.40802       1.03012      -0.10298
                        -----------------------------------------
Magnitude (a.u.)       :      1.11276
Magnitude (Debye)      :      2.82841

Rotational constants in cm-1:     0.771449     0.205732     0.163168
Rotational constants in MHz : 23127.446350  6167.683785  4891.661121

                             ****ORCA TERMINATED NORMALLY****
TOTAL RUN TIME: 0 days 0 hours 0 minutes 35 seconds 521 msec
