                         Program Version 5.0.3 -  RELEASE  -
|  1> ! RKS CAM-B3LYP 6-31G
|  2> !TightSCF
|  3> %scf
|  4>  ConvForced true
|  5>  convergence tight
|  6>  MaxIter 500
|  7> end
|  8>
|  9> %tddft
| 10>  nroots 1
| 11> end
| 12>
| 13> # 	25059
| 14> * xyz 0 1
| 15> 		C   -0.615691  -0.409146   0.006010
| 16> 		O   -0.576527  -1.639337  -0.006821
| 17> 		C    0.587448   0.332640  -0.073951
| 18> 		C    1.894279  -0.069283   0.022216
| 19> 		H   -1.535889   0.273466   0.306718
| 20> 		H    0.445318   1.556503   0.173939
| 21> 		H    2.046814  -1.204762   0.088388
| 22> 		H    2.885232   0.419000   0.090381
| 23> *
| 24>
| 25>                          ****END OF INPUT****

CARTESIAN COORDINATES (ANGSTROEM)
---------------------------------
  C     -0.615691   -0.409146    0.006010
  O     -0.576527   -1.639337   -0.006821
  C      0.587448    0.332640   -0.073951
  C      1.894279   -0.069283    0.022216
  H     -1.535889    0.273466    0.306718
  H      0.445318    1.556503    0.173939
  H      2.046814   -1.204762    0.088388
  H      2.885232    0.419000    0.090381

 Total Charge           Charge          ....    0
 Multiplicity           Mult            ....    1
 Number of Electrons    NEL             ....   30
 Basis Dimension        Dim             ....   44

ORBITAL ENERGIES
----------------

  NO   OCC          E(Eh)            E(eV)
   0   2.0000     -19.229485      -523.2609
   1   2.0000     -10.366039      -282.0743
   2   2.0000     -10.303374      -280.3691
   3   2.0000     -10.297261      -280.2027
   4   2.0000      -1.146603       -31.2007
   5   2.0000      -0.876442       -23.8492
   6   2.0000      -0.750981       -20.4352
   7   2.0000      -0.614000       -16.7078
   8   2.0000      -0.568729       -15.4759
   9   2.0000      -0.521975       -14.2037
  10   2.0000      -0.498417       -13.5626
  11   2.0000      -0.473488       -12.8843
  12   2.0000      -0.412474       -11.2240
  13   2.0000      -0.343458        -9.3460
  14   2.0000      -0.327331        -8.9071
  15   0.0000      -0.034556        -0.9403
  16   0.0000       0.112557         3.0628
  17   0.0000       0.114055         3.1036
  18   0.0000       0.164682         4.4812
  19   0.0000       0.192311         5.2331

MULLIKEN ATOMIC CHARGES
-----------------------
   0 C :    0.183864
   1 O :   -0.383736
   2 C :   -0.119552
   3 C :   -0.259976
   4 H :    0.125076
   5 H :    0.112204
   6 H :    0.164644
   7 H :    0.177477
Sum of atomic charges:    0.0000000

LOEWDIN ATOMIC CHARGES
----------------------
   0 C :    0.107368
   1 O :   -0.235592
   2 C :   -0.176525
   3 C :   -0.158883
   4 H :    0.089368
   5 H :    0.105014
   6 H :    0.129431
   7 H :    0.139819

  Mayer bond orders larger than 0.100000
B(  0-C ,  1-O ) :   1.8529 B(  0-C ,  2-C ) :   0.9983 B(  0-C ,  4-H ) :   0.8769
B(  1-O ,  3-C ) :   0.1054 B(  2-C ,  3-C ) :   1.8576 B(  2-C ,  5-H ) :   0.9375
B(  3-C ,  6-H ) :   0.9396 B(  3-C ,  7-H ) :   0.9340

-----------------------------------------------------------------------------
         ABSORPTION SPECTRUM VIA TRANSITION ELECTRIC DIPOLE MOMENTS
-----------------------------------------------------------------------------
State   Energy    Wavelength  fosc         T2        TX        TY        TZ
        (cm-1)      (nm)                 (au**2)    (au)      (au)      (au)
-----------------------------------------------------------------------------
   1   27463.3    364.1   0.000380485   0.00456   0.04035   0.03351   0.04255

FINAL SINGLE POINT ENERGY      -191.586979170169

DIPOLE MOMENT
-------------
                                X             Y             Z
Electronic contribution:     -1.91438      -1.79755      -0.46720
Nuclear contribution   :      2.44894       2.76485       0.61813
                        -----------------------------------------
Total Dipole Moment    :      0.53456       0.96730       0.15093
                        -----------------------------------------
Magnitude (a.u.)       :      1.11544
Magnitude (Debye)      :      2.83522

Rotational constants in cm-1:     0.746406     0.204146     0.160957
Rotational constants in MHz : 22376.679596  6120.149976  4825.367029

                             ****ORCA TERMINATED NORMALLY****
TOTAL RUN TIME: 0 days 0 hours 0 minutes 35 seconds 808 msec
