                         Program Version 5.0.3 -  RELEASE  -
|  1> ! RKS CAM-B3LYP 6-31G
|  2> !TightSCF
|  3> %scf
|  4>  ConvForced true
|  5>  convergence tight
|  6>  MaxIter 500
|  7> end
|  8>
|  9> %tddft
| 10>  nroots 1
| 11> end
| 12>
| 13> # 	7722
| 14> * xyz 0 1
| 15> 		C   -1.130978  -0.318799   0.021409
| 16> 		O   -1.194812  -1.513380  -0.279174
| 17> 		C    0.078475   0.534902  -0.104044
| 18> 		C    1.249527  -0.056932   0.104524
| 19> 		H   -2.221751   0.193168   0.365462
| 20> 		H   -0.188657   1.551517  -0.300706
| 21> 		H    1.431882  -1.048400   0.239221
| 22> 		H    2.036606   0.683168  -0.041982
| 23> *
| 24>
| 25>                          ****END OF INPUT****

CARTESIAN COORDINATES (ANGSTROEM)
---------------------------------
  C     -1.130978   -0.318799    0.021409
  O     -1.194812   -1.513380   -0.279174
  C      0.078475    0.534902   -0.104044
  C      1.249527   -0.056932    0.104524
  H     -2.221751    0.193168    0.365462
  H     -0.188657    1.551517   -0.300706
  H      1.431882   -1.048400    0.239221
  H      2.036606    0.683168   -0.041982

 Total Charge           Charge          ....    0
 Multiplicity           Mult            ....    1
 Number of Electrons    NEL             ....   30
 Basis Dimension        Dim             ....   44

ORBITAL ENERGIES
----------------

  NO   OCC          E(Eh)            E(eV)
   0   2.0000     -19.225926      -523.1640
   1   2.0000     -10.365831      -282.0686
   2   2.0000     -10.285378      -279.8794
   3   2.0000     -10.281489      -279.7735
   4   2.0000      -1.139595       -31.0100
   5   2.0000      -0.893159       -24.3041
   6   2.0000      -0.737417       -20.0661
   7   2.0000      -0.618272       -16.8240
   8   2.0000      -0.581970       -15.8362
   9   2.0000      -0.534657       -14.5488
  10   2.0000      -0.492387       -13.3985
  11   2.0000      -0.458665       -12.4809
  12   2.0000      -0.454975       -12.3805
  13   2.0000      -0.353352        -9.6152
  14   2.0000      -0.315621        -8.5885
  15   0.0000      -0.013669        -0.3720
  16   0.0000       0.095423         2.5966
  17   0.0000       0.137749         3.7483
  18   0.0000       0.170936         4.6514
  19   0.0000       0.193392         5.2625

MULLIKEN ATOMIC CHARGES
-----------------------
   0 C :    0.161553
   1 O :   -0.377343
   2 C :   -0.112431
   3 C :   -0.251373
   4 H :    0.093254
   5 H :    0.161422
   6 H :    0.179355
   7 H :    0.145564
Sum of atomic charges:   -0.0000000

LOEWDIN ATOMIC CHARGES
----------------------
   0 C :    0.113936
   1 O :   -0.249954
   2 C :   -0.172606
   3 C :   -0.162578
   4 H :    0.066757
   5 H :    0.132924
   6 H :    0.141418
   7 H :    0.130103

  Mayer bond orders larger than 0.100000
B(  0-C ,  1-O ) :   1.8830 B(  0-C ,  2-C ) :   0.9581 B(  0-C ,  4-H ) :   0.8740
B(  2-C ,  3-C ) :   1.9037 B(  2-C ,  5-H ) :   0.9305 B(  3-C ,  6-H ) :   0.9380
B(  3-C ,  7-H ) :   0.9530

-----------------------------------------------------------------------------
         ABSORPTION SPECTRUM VIA TRANSITION ELECTRIC DIPOLE MOMENTS
-----------------------------------------------------------------------------
State   Energy    Wavelength  fosc         T2        TX        TY        TZ
        (cm-1)      (nm)                 (au**2)    (au)      (au)      (au)
-----------------------------------------------------------------------------
   1   28833.7    346.8   0.000366156   0.00418   0.05157  -0.01187   0.03715

FINAL SINGLE POINT ENERGY      -191.594120795699

DIPOLE MOMENT
-------------
                                X             Y             Z
Electronic contribution:     -1.50643      -1.64496      -0.31300
Nuclear contribution   :      2.02888       2.67696       0.50640
                        -----------------------------------------
Total Dipole Moment    :      0.52245       1.03199       0.19340
                        -----------------------------------------
Magnitude (a.u.)       :      1.17276
Magnitude (Debye)      :      2.98092

Rotational constants in cm-1:     0.751104     0.206630     0.165293
Rotational constants in MHz : 22517.539489  6194.622410  4955.347704

                             ****ORCA TERMINATED NORMALLY****
TOTAL RUN TIME: 0 days 0 hours 0 minutes 38 seconds 13 msec
