                         Program Version 5.0.3 -  RELEASE  -
|  1> ! RKS CAM-B3LYP 6-31G
|  2> !TightSCF
|  3> %scf
|  4>  ConvForced true
|  5>  convergence tight
|  6>  MaxIter 500
|  7> end
|  8>
|  9> %tddft
| 10>  nroots 1
| 11> end
| 12>
| 13> # 	32344
| 14> * xyz 0 1
| 15> 		C   -0.534862  -0.433511  -0.004155
| 16> 		O   -0.614279  -1.639786  -0.000203
| 17> 		C    0.613673   0.410159  -0.037749
| 18> 		C    1.844058  -0.108769   0.040117
| 19> 		H   -1.391422   0.046327   0.127970
| 20> 		H    0.547816   1.476893   0.098410
| 21> 		H    1.972383  -1.210771  -0.095350
| 22> 		H    2.694736   0.523790  -0.108685
| 23> *
| 24>
| 25>                          ****END OF INPUT****

CARTESIAN COORDINATES (ANGSTROEM)
---------------------------------
  C     -0.534862   -0.433511   -0.004155
  O     -0.614279   -1.639786   -0.000203
  C      0.613673    0.410159   -0.037749
  C      1.844058   -0.108769    0.040117
  H     -1.391422    0.046327    0.127970
  H      0.547816    1.476893    0.098410
  H      1.972383   -1.210771   -0.095350
  H      2.694736    0.523790   -0.108685

 Total Charge           Charge          ....    0
 Multiplicity           Mult            ....    1
 Number of Electrons    NEL             ....   30
 Basis Dimension        Dim             ....   44

ORBITAL ENERGIES
----------------

  NO   OCC          E(Eh)            E(eV)
   0   2.0000     -19.218548      -522.9633
   1   2.0000     -10.337885      -281.3082
   2   2.0000     -10.286122      -279.8996
   3   2.0000     -10.274781      -279.5910
   4   2.0000      -1.149938       -31.2914
   5   2.0000      -0.892667       -24.2907
   6   2.0000      -0.753838       -20.5130
   7   2.0000      -0.630982       -17.1699
   8   2.0000      -0.602432       -16.3930
   9   2.0000      -0.513652       -13.9772
  10   2.0000      -0.496359       -13.5066
  11   2.0000      -0.473652       -12.8887
  12   2.0000      -0.449905       -12.2425
  13   2.0000      -0.349146        -9.5007
  14   2.0000      -0.319692        -8.6993
  15   0.0000      -0.023299        -0.6340
  16   0.0000       0.125128         3.4049
  17   0.0000       0.155947         4.2435
  18   0.0000       0.181150         4.9293
  19   0.0000       0.232863         6.3365

MULLIKEN ATOMIC CHARGES
-----------------------
   0 C :    0.172827
   1 O :   -0.367255
   2 C :   -0.123426
   3 C :   -0.252450
   4 H :    0.098112
   5 H :    0.149784
   6 H :    0.176354
   7 H :    0.146053
Sum of atomic charges:   -0.0000000

LOEWDIN ATOMIC CHARGES
----------------------
   0 C :    0.107461
   1 O :   -0.238031
   2 C :   -0.188786
   3 C :   -0.149935
   4 H :    0.076016
   5 H :    0.129284
   6 H :    0.138452
   7 H :    0.125539

  Mayer bond orders larger than 0.100000
B(  0-C ,  1-O ) :   1.9142 B(  0-C ,  2-C ) :   0.9998 B(  0-C ,  4-H ) :   0.9190
B(  2-C ,  3-C ) :   1.8590 B(  2-C ,  5-H ) :   0.9394 B(  3-C ,  6-H ) :   0.9400
B(  3-C ,  7-H ) :   0.9445

-----------------------------------------------------------------------------
         ABSORPTION SPECTRUM VIA TRANSITION ELECTRIC DIPOLE MOMENTS
-----------------------------------------------------------------------------
State   Energy    Wavelength  fosc         T2        TX        TY        TZ
        (cm-1)      (nm)                 (au**2)    (au)      (au)      (au)
-----------------------------------------------------------------------------
   1   28082.5    356.1   0.000277592   0.00325  -0.04751  -0.00441  -0.03127

FINAL SINGLE POINT ENERGY      -191.602822886884

DIPOLE MOMENT
-------------
                                X             Y             Z
Electronic contribution:     -1.91707      -1.48730      -0.03436
Nuclear contribution   :      2.42746       2.57327       0.02111
                        -----------------------------------------
Total Dipole Moment    :      0.51039       1.08597      -0.01325
                        -----------------------------------------
Magnitude (a.u.)       :      1.20000
Magnitude (Debye)      :      3.05015

Rotational constants in cm-1:     0.815157     0.208103     0.166055
Rotational constants in MHz : 24437.782639  6238.765843  4978.194530

                             ****ORCA TERMINATED NORMALLY****
TOTAL RUN TIME: 0 days 0 hours 0 minutes 35 seconds 65 msec
