                         Program Version 5.0.3 -  RELEASE  -
|  1> ! RKS CAM-B3LYP 6-31G
|  2> !TightSCF
|  3> %scf
|  4>  ConvForced true
|  5>  convergence tight
|  6>  MaxIter 500
|  7> end
|  8>
|  9> %tddft
| 10>  nroots 1
| 11> end
| 12>
| 13> # 	15255
| 14> * xyz 0 1
| 15> 		C   -1.147504  -0.365232  -0.123506
| 16> 		O   -1.930228  -0.773076  -0.973763
| 17> 		C    0.047497   0.444515  -0.352579
| 18> 		C    1.136876   0.025027   0.228069
| 19> 		H   -1.295274  -0.669945   1.074295
| 20> 		H    0.048146   1.317929  -1.020389
| 21> 		H    1.193570  -0.731694   1.065084
| 22> 		H    1.962520   0.737495   0.056209
| 23> *
| 24>
| 25>                          ****END OF INPUT****

CARTESIAN COORDINATES (ANGSTROEM)
---------------------------------
  C     -1.147504   -0.365232   -0.123506
  O     -1.930228   -0.773076   -0.973763
  C      0.047497    0.444515   -0.352579
  C      1.136876    0.025027    0.228069
  H     -1.295274   -0.669945    1.074295
  H      0.048146    1.317929   -1.020389
  H      1.193570   -0.731694    1.065084
  H      1.962520    0.737495    0.056209

 Total Charge           Charge          ....    0
 Multiplicity           Mult            ....    1
 Number of Electrons    NEL             ....   30
 Basis Dimension        Dim             ....   44

ORBITAL ENERGIES
----------------

  NO   OCC          E(Eh)            E(eV)
   0   2.0000     -19.232389      -523.3399
   1   2.0000     -10.370888      -282.2062
   2   2.0000     -10.287668      -279.9417
   3   2.0000     -10.283968      -279.8410
   4   2.0000      -1.148092       -31.2412
   5   2.0000      -0.905787       -24.6477
   6   2.0000      -0.722989       -19.6735
   7   2.0000      -0.638005       -17.3610
   8   2.0000      -0.554844       -15.0981
   9   2.0000      -0.537464       -14.6251
  10   2.0000      -0.503722       -13.7070
  11   2.0000      -0.459514       -12.5040
  12   2.0000      -0.451721       -12.2920
  13   2.0000      -0.359459        -9.7814
  14   2.0000      -0.321331        -8.7438
  15   0.0000      -0.007079        -0.1926
  16   0.0000       0.074921         2.0387
  17   0.0000       0.147481         4.0132
  18   0.0000       0.158736         4.3194
  19   0.0000       0.174477         4.7478

MULLIKEN ATOMIC CHARGES
-----------------------
   0 C :    0.165615
   1 O :   -0.363465
   2 C :   -0.107065
   3 C :   -0.275088
   4 H :    0.093378
   5 H :    0.180039
   6 H :    0.162341
   7 H :    0.144245
Sum of atomic charges:   -0.0000000

LOEWDIN ATOMIC CHARGES
----------------------
   0 C :    0.121210
   1 O :   -0.228873
   2 C :   -0.168835
   3 C :   -0.192361
   4 H :    0.066158
   5 H :    0.141418
   6 H :    0.133610
   7 H :    0.127673

  Mayer bond orders larger than 0.100000
B(  0-C ,  1-O ) :   1.8956 B(  0-C ,  2-C ) :   0.9553 B(  0-C ,  4-H ) :   0.8708
B(  2-C ,  3-C ) :   1.8834 B(  2-C ,  5-H ) :   0.9298 B(  3-C ,  6-H ) :   0.9458
B(  3-C ,  7-H ) :   0.9513

-----------------------------------------------------------------------------
         ABSORPTION SPECTRUM VIA TRANSITION ELECTRIC DIPOLE MOMENTS
-----------------------------------------------------------------------------
State   Energy    Wavelength  fosc         T2        TX        TY        TZ
        (cm-1)      (nm)                 (au**2)    (au)      (au)      (au)
-----------------------------------------------------------------------------
   1   30878.9    323.8   0.000143559   0.00153  -0.01974   0.03378  -0.00015

FINAL SINGLE POINT ENERGY      -191.585475880515

DIPOLE MOMENT
-------------
                                X             Y             Z
Electronic contribution:     -2.72359      -0.74816      -1.59380
Nuclear contribution   :      3.67858       1.30461       2.25564
                        -----------------------------------------
Total Dipole Moment    :      0.95499       0.55645       0.66184
                        -----------------------------------------
Magnitude (a.u.)       :      1.28828
Magnitude (Debye)      :      3.27456

Rotational constants in cm-1:     1.222285     0.163111     0.152568
Rotational constants in MHz : 36643.188683  4889.949786  4573.884896

                             ****ORCA TERMINATED NORMALLY****
TOTAL RUN TIME: 0 days 0 hours 0 minutes 35 seconds 962 msec
