                         Program Version 5.0.3 -  RELEASE  -
|  1> ! RKS CAM-B3LYP 6-31G
|  2> !TightSCF
|  3> %scf
|  4>  ConvForced true
|  5>  convergence tight
|  6>  MaxIter 500
|  7> end
|  8>
|  9> %tddft
| 10>  nroots 1
| 11> end
| 12>
| 13> # 	6819
| 14> * xyz 0 1
| 15> 		C   -1.220100  -0.259258  -0.051608
| 16> 		O   -2.144519  -0.213112  -0.789363
| 17> 		C    0.080797   0.421964  -0.274234
| 18> 		C    1.156851   0.087132   0.381803
| 19> 		H   -1.142604  -1.123558   0.710403
| 20> 		H    0.022517   1.139331  -1.079124
| 21> 		H    1.254426  -0.705681   0.957139
| 22> 		H    2.045310   0.646073   0.182009
| 23> *
| 24>
| 25>                          ****END OF INPUT****

CARTESIAN COORDINATES (ANGSTROEM)
---------------------------------
  C     -1.220100   -0.259258   -0.051608
  O     -2.144519   -0.213112   -0.789363
  C      0.080797    0.421964   -0.274234
  C      1.156851    0.087132    0.381803
  H     -1.142604   -1.123558    0.710403
  H      0.022517    1.139331   -1.079124
  H      1.254426   -0.705681    0.957139
  H      2.045310    0.646073    0.182009

 Total Charge           Charge          ....    0
 Multiplicity           Mult            ....    1
 Number of Electrons    NEL             ....   30
 Basis Dimension        Dim             ....   44

ORBITAL ENERGIES
----------------

  NO   OCC          E(Eh)            E(eV)
   0   2.0000     -19.229491      -523.2610
   1   2.0000     -10.358588      -281.8715
   2   2.0000     -10.277554      -279.6665
   3   2.0000     -10.273502      -279.5562
   4   2.0000      -1.173187       -31.9240
   5   2.0000      -0.899202       -24.4685
   6   2.0000      -0.732514       -19.9327
   7   2.0000      -0.652668       -17.7600
   8   2.0000      -0.568874       -15.4798
   9   2.0000      -0.547951       -14.9105
  10   2.0000      -0.494093       -13.4450
  11   2.0000      -0.485157       -13.2018
  12   2.0000      -0.466537       -12.6951
  13   2.0000      -0.358113        -9.7447
  14   2.0000      -0.318583        -8.6691
  15   0.0000      -0.011876        -0.3232
  16   0.0000       0.109967         2.9923
  17   0.0000       0.164567         4.4781
  18   0.0000       0.169791         4.6203
  19   0.0000       0.211938         5.7671

MULLIKEN ATOMIC CHARGES
-----------------------
   0 C :    0.167715
   1 O :   -0.345676
   2 C :   -0.095719
   3 C :   -0.275574
   4 H :    0.092218
   5 H :    0.160599
   6 H :    0.145588
   7 H :    0.150849
Sum of atomic charges:    0.0000000

LOEWDIN ATOMIC CHARGES
----------------------
   0 C :    0.107235
   1 O :   -0.208550
   2 C :   -0.159381
   3 C :   -0.185506
   4 H :    0.062749
   5 H :    0.131312
   6 H :    0.121846
   7 H :    0.130294

  Mayer bond orders larger than 0.100000
B(  0-C ,  1-O ) :   1.8857 B(  0-C ,  2-C ) :   0.9642 B(  0-C ,  4-H ) :   0.8848
B(  2-C ,  3-C ) :   1.8981 B(  2-C ,  5-H ) :   0.9329 B(  3-C ,  6-H ) :   0.9478
B(  3-C ,  7-H ) :   0.9467

-----------------------------------------------------------------------------
         ABSORPTION SPECTRUM VIA TRANSITION ELECTRIC DIPOLE MOMENTS
-----------------------------------------------------------------------------
State   Energy    Wavelength  fosc         T2        TX        TY        TZ
        (cm-1)      (nm)                 (au**2)    (au)      (au)      (au)
-----------------------------------------------------------------------------
   1   30258.8    330.5   0.000563851   0.00613  -0.02554   0.07015  -0.02371

FINAL SINGLE POINT ENERGY      -191.593288377567

DIPOLE MOMENT
-------------
                                X             Y             Z
Electronic contribution:     -3.03670       0.04473      -0.95640
Nuclear contribution   :      4.15701      -0.01384       1.46244
                        -----------------------------------------
Total Dipole Moment    :      1.12031       0.03089       0.50604
                        -----------------------------------------
Magnitude (a.u.)       :      1.22968
Magnitude (Debye)      :      3.12561

Rotational constants in cm-1:     1.620353     0.157721     0.144669
Rotational constants in MHz : 48576.947730  4728.354088  4337.056047

                             ****ORCA TERMINATED NORMALLY****
TOTAL RUN TIME: 0 days 0 hours 0 minutes 35 seconds 357 msec
