                         Program Version 5.0.3 -  RELEASE  -
|  1> ! RKS CAM-B3LYP 6-31G
|  2> !TightSCF
|  3> %scf
|  4>  ConvForced true
|  5>  convergence tight
|  6>  MaxIter 500
|  7> end
|  8>
|  9> %tddft
| 10>  nroots 1
| 11> end
| 12>
| 13> # 	26802
| 14> * xyz 0 1
| 15> 		C   -0.583489  -0.426823   0.065093
| 16> 		O   -0.597860  -1.646447  -0.033650
| 17> 		C    0.631605   0.389585  -0.041768
| 18> 		C    1.862472  -0.082478   0.033005
| 19> 		H   -1.592063   0.159996   0.013090
| 20> 		H    0.373400   1.394244  -0.099685
| 21> 		H    1.992520  -1.239554   0.067360
| 22> 		H    2.886286   0.502885  -0.131187
| 23> *
| 24>
| 25>                          ****END OF INPUT****

CARTESIAN COORDINATES (ANGSTROEM)
---------------------------------
  C     -0.583489   -0.426823    0.065093
  O     -0.597860   -1.646447   -0.033650
  C      0.631605    0.389585   -0.041768
  C      1.862472   -0.082478    0.033005
  H     -1.592063    0.159996    0.013090
  H      0.373400    1.394244   -0.099685
  H      1.992520   -1.239554    0.067360
  H      2.886286    0.502885   -0.131187

 Total Charge           Charge          ....    0
 Multiplicity           Mult            ....    1
 Number of Electrons    NEL             ....   30
 Basis Dimension        Dim             ....   44

ORBITAL ENERGIES
----------------

  NO   OCC          E(Eh)            E(eV)
   0   2.0000     -19.226638      -523.1834
   1   2.0000     -10.361540      -281.9518
   2   2.0000     -10.301155      -280.3087
   3   2.0000     -10.275547      -279.6118
   4   2.0000      -1.146448       -31.1964
   5   2.0000      -0.886059       -24.1109
   6   2.0000      -0.737535       -20.0694
   7   2.0000      -0.610431       -16.6107
   8   2.0000      -0.583840       -15.8871
   9   2.0000      -0.522363       -14.2142
  10   2.0000      -0.492475       -13.4009
  11   2.0000      -0.471959       -12.8427
  12   2.0000      -0.434479       -11.8228
  13   2.0000      -0.351503        -9.5649
  14   2.0000      -0.322754        -8.7826
  15   0.0000      -0.022288        -0.6065
  16   0.0000       0.117026         3.1844
  17   0.0000       0.135082         3.6758
  18   0.0000       0.156746         4.2653
  19   0.0000       0.204431         5.5628

MULLIKEN ATOMIC CHARGES
-----------------------
   0 C :    0.164374
   1 O :   -0.370619
   2 C :   -0.096916
   3 C :   -0.274731
   4 H :    0.112311
   5 H :    0.137315
   6 H :    0.171418
   7 H :    0.156847
Sum of atomic charges:   -0.0000000

LOEWDIN ATOMIC CHARGES
----------------------
   0 C :    0.113637
   1 O :   -0.238886
   2 C :   -0.193758
   3 C :   -0.151743
   4 H :    0.079496
   5 H :    0.121769
   6 H :    0.137056
   7 H :    0.132429

  Mayer bond orders larger than 0.100000
B(  0-C ,  1-O ) :   1.8882 B(  0-C ,  2-C ) :   0.9777 B(  0-C ,  4-H ) :   0.8846
B(  2-C ,  3-C ) :   1.8754 B(  2-C ,  5-H ) :   0.9358 B(  3-C ,  6-H ) :   0.9352
B(  3-C ,  7-H ) :   0.9406

-----------------------------------------------------------------------------
         ABSORPTION SPECTRUM VIA TRANSITION ELECTRIC DIPOLE MOMENTS
-----------------------------------------------------------------------------
State   Energy    Wavelength  fosc         T2        TX        TY        TZ
        (cm-1)      (nm)                 (au**2)    (au)      (au)      (au)
-----------------------------------------------------------------------------
   1   28426.2    351.8   0.000282282   0.00327  -0.03951   0.01039  -0.04000

FINAL SINGLE POINT ENERGY      -191.603433154061

DIPOLE MOMENT
-------------
                                X             Y             Z
Electronic contribution:     -1.82011      -1.52910       0.15042
Nuclear contribution   :      2.27776       2.55407      -0.14072
                        -----------------------------------------
Total Dipole Moment    :      0.45765       1.02497       0.00970
                        -----------------------------------------
Magnitude (a.u.)       :      1.12255
Magnitude (Debye)      :      2.85328

Rotational constants in cm-1:     0.776483     0.203078     0.161393
Rotational constants in MHz : 23278.383093  6088.119384  4838.444827

                             ****ORCA TERMINATED NORMALLY****
TOTAL RUN TIME: 0 days 0 hours 0 minutes 36 seconds 991 msec
