                         Program Version 5.0.3 -  RELEASE  -
|  1> ! RKS CAM-B3LYP 6-31G
|  2> !TightSCF
|  3> %scf
|  4>  ConvForced true
|  5>  convergence tight
|  6>  MaxIter 500
|  7> end
|  8>
|  9> %tddft
| 10>  nroots 1
| 11> end
| 12>
| 13> # 	24925
| 14> * xyz 0 1
| 15> 		C   -0.580610  -0.416403   0.010673
| 16> 		O   -0.578593  -1.640903  -0.011900
| 17> 		C    0.611844   0.399602  -0.026364
| 18> 		C    1.839569  -0.078733   0.026773
| 19> 		H   -1.606060   0.018157   0.166383
| 20> 		H    0.570369   1.440649  -0.061607
| 21> 		H    1.950037  -1.425847  -0.012323
| 22> 		H    2.943395   0.384960  -0.043106
| 23> *
| 24>
| 25>                          ****END OF INPUT****

CARTESIAN COORDINATES (ANGSTROEM)
---------------------------------
  C     -0.580610   -0.416403    0.010673
  O     -0.578593   -1.640903   -0.011900
  C      0.611844    0.399602   -0.026364
  C      1.839569   -0.078733    0.026773
  H     -1.606060    0.018157    0.166383
  H      0.570369    1.440649   -0.061607
  H      1.950037   -1.425847   -0.012323
  H      2.943395    0.384960   -0.043106

 Total Charge           Charge          ....    0
 Multiplicity           Mult            ....    1
 Number of Electrons    NEL             ....   30
 Basis Dimension        Dim             ....   44

ORBITAL ENERGIES
----------------

  NO   OCC          E(Eh)            E(eV)
   0   2.0000     -19.221851      -523.0532
   1   2.0000     -10.358351      -281.8651
   2   2.0000     -10.314773      -280.6792
   3   2.0000     -10.277528      -279.6658
   4   2.0000      -1.144945       -31.1555
   5   2.0000      -0.888178       -24.1686
   6   2.0000      -0.728898       -19.8343
   7   2.0000      -0.611596       -16.6424
   8   2.0000      -0.593496       -16.1498
   9   2.0000      -0.520963       -14.1761
  10   2.0000      -0.489544       -13.3212
  11   2.0000      -0.470557       -12.8045
  12   2.0000      -0.403172       -10.9709
  13   2.0000      -0.351691        -9.5700
  14   2.0000      -0.322858        -8.7854
  15   0.0000      -0.021173        -0.5761
  16   0.0000       0.117961         3.2099
  17   0.0000       0.129446         3.5224
  18   0.0000       0.135468         3.6863
  19   0.0000       0.197753         5.3811

MULLIKEN ATOMIC CHARGES
-----------------------
   0 C :    0.165801
   1 O :   -0.369812
   2 C :   -0.123393
   3 C :   -0.256452
   4 H :    0.124535
   5 H :    0.150097
   6 H :    0.140361
   7 H :    0.168863
Sum of atomic charges:   -0.0000000

LOEWDIN ATOMIC CHARGES
----------------------
   0 C :    0.116598
   1 O :   -0.244589
   2 C :   -0.205439
   3 C :   -0.143178
   4 H :    0.090962
   5 H :    0.129637
   6 H :    0.118189
   7 H :    0.137819

  Mayer bond orders larger than 0.100000
B(  0-C ,  1-O ) :   1.8914 B(  0-C ,  2-C ) :   0.9813 B(  0-C ,  4-H ) :   0.9004
B(  2-C ,  3-C ) :   1.8481 B(  2-C ,  5-H ) :   0.9369 B(  3-C ,  6-H ) :   0.9403
B(  3-C ,  7-H ) :   0.9318

-----------------------------------------------------------------------------
         ABSORPTION SPECTRUM VIA TRANSITION ELECTRIC DIPOLE MOMENTS
-----------------------------------------------------------------------------
State   Energy    Wavelength  fosc         T2        TX        TY        TZ
        (cm-1)      (nm)                 (au**2)    (au)      (au)      (au)
-----------------------------------------------------------------------------
   1   28412.1    352.0   0.000194859   0.00226   0.00143   0.00134  -0.04748

FINAL SINGLE POINT ENERGY      -191.575550303526

DIPOLE MOMENT
-------------
                                X             Y             Z
Electronic contribution:     -2.00851      -1.10008      -0.04788
Nuclear contribution   :      2.46144       2.18080       0.04663
                        -----------------------------------------
Total Dipole Moment    :      0.45293       1.08072      -0.00125
                        -----------------------------------------
Magnitude (a.u.)       :      1.17179
Magnitude (Debye)      :      2.97846

Rotational constants in cm-1:     0.767730     0.207004     0.163214
Rotational constants in MHz : 23015.956128  6205.821895  4893.033750

                             ****ORCA TERMINATED NORMALLY****
TOTAL RUN TIME: 0 days 0 hours 0 minutes 35 seconds 479 msec
