                         Program Version 5.0.3 -  RELEASE  -
|  1> ! RKS CAM-B3LYP 6-31G
|  2> !TightSCF
|  3> %scf
|  4>  ConvForced true
|  5>  convergence tight
|  6>  MaxIter 500
|  7> end
|  8>
|  9> %tddft
| 10>  nroots 1
| 11> end
| 12>
| 13> # 	30280
| 14> * xyz 0 1
| 15> 		C   -0.622169  -0.450205  -0.040789
| 16> 		O   -0.635154  -1.657123   0.025883
| 17> 		C    0.672844   0.345021   0.038118
| 18> 		C    1.904565  -0.048913  -0.034457
| 19> 		H   -1.589904   0.253381  -0.107397
| 20> 		H    0.514312   1.477428   0.078131
| 21> 		H    2.285024  -0.995426  -0.052688
| 22> 		H    2.545757   0.693931   0.126619
| 23> *
| 24>
| 25>                          ****END OF INPUT****

CARTESIAN COORDINATES (ANGSTROEM)
---------------------------------
  C     -0.622169   -0.450205   -0.040789
  O     -0.635154   -1.657123    0.025883
  C      0.672844    0.345021    0.038118
  C      1.904565   -0.048913   -0.034457
  H     -1.589904    0.253381   -0.107397
  H      0.514312    1.477428    0.078131
  H      2.285024   -0.995426   -0.052688
  H      2.545757    0.693931    0.126619

 Total Charge           Charge          ....    0
 Multiplicity           Mult            ....    1
 Number of Electrons    NEL             ....   30
 Basis Dimension        Dim             ....   44

ORBITAL ENERGIES
----------------

  NO   OCC          E(Eh)            E(eV)
   0   2.0000     -19.234613      -523.4004
   1   2.0000     -10.370745      -282.2023
   2   2.0000     -10.281411      -279.7714
   3   2.0000     -10.262428      -279.2549
   4   2.0000      -1.159835       -31.5607
   5   2.0000      -0.890208       -24.2238
   6   2.0000      -0.739189       -20.1144
   7   2.0000      -0.619961       -16.8700
   8   2.0000      -0.587387       -15.9836
   9   2.0000      -0.522822       -14.2267
  10   2.0000      -0.505746       -13.7621
  11   2.0000      -0.475755       -12.9460
  12   2.0000      -0.448111       -12.1937
  13   2.0000      -0.356108        -9.6902
  14   2.0000      -0.323100        -8.7920
  15   0.0000      -0.015646        -0.4257
  16   0.0000       0.121694         3.3115
  17   0.0000       0.134017         3.6468
  18   0.0000       0.176350         4.7987
  19   0.0000       0.208095         5.6625

MULLIKEN ATOMIC CHARGES
-----------------------
   0 C :    0.195832
   1 O :   -0.360660
   2 C :   -0.148649
   3 C :   -0.223884
   4 H :    0.107691
   5 H :    0.127071
   6 H :    0.168101
   7 H :    0.134498
Sum of atomic charges:    0.0000000

LOEWDIN ATOMIC CHARGES
----------------------
   0 C :    0.119688
   1 O :   -0.217987
   2 C :   -0.171229
   3 C :   -0.177867
   4 H :    0.076022
   5 H :    0.113606
   6 H :    0.132848
   7 H :    0.124919

  Mayer bond orders larger than 0.100000
B(  0-C ,  1-O ) :   1.9051 B(  0-C ,  2-C ) :   0.9473 B(  0-C ,  4-H ) :   0.8650
B(  2-C ,  3-C ) :   1.9448 B(  2-C ,  5-H ) :   0.9387 B(  3-C ,  6-H ) :   0.9437
B(  3-C ,  7-H ) :   0.9436

-----------------------------------------------------------------------------
         ABSORPTION SPECTRUM VIA TRANSITION ELECTRIC DIPOLE MOMENTS
-----------------------------------------------------------------------------
State   Energy    Wavelength  fosc         T2        TX        TY        TZ
        (cm-1)      (nm)                 (au**2)    (au)      (au)      (au)
-----------------------------------------------------------------------------
   1   29663.2    337.1   0.000222085   0.00246  -0.03830  -0.00724   0.03075

FINAL SINGLE POINT ENERGY      -191.589121510340

DIPOLE MOMENT
-------------
                                X             Y             Z
Electronic contribution:     -1.91946      -2.12298      -0.05363
Nuclear contribution   :      2.36399       3.12562       0.04140
                        -----------------------------------------
Total Dipole Moment    :      0.44453       1.00264      -0.01223
                        -----------------------------------------
Magnitude (a.u.)       :      1.09683
Magnitude (Debye)      :      2.78793

Rotational constants in cm-1:     0.822484     0.191892     0.155876
Rotational constants in MHz : 24657.464797  5752.764193  4673.048898

                             ****ORCA TERMINATED NORMALLY****
TOTAL RUN TIME: 0 days 0 hours 0 minutes 35 seconds 737 msec
