                         Program Version 5.0.3 -  RELEASE  -
|  1> ! RKS CAM-B3LYP 6-31G
|  2> !TightSCF
|  3> %scf
|  4>  ConvForced true
|  5>  convergence tight
|  6>  MaxIter 500
|  7> end
|  8>
|  9> %tddft
| 10>  nroots 1
| 11> end
| 12>
| 13> # 	2940
| 14> * xyz 0 1
| 15> 		C   -1.160436  -0.345449   0.041497
| 16> 		O   -1.180328  -1.494230   0.027847
| 17> 		C    0.000784   0.561348   0.041420
| 18> 		C    1.196752  -0.053481  -0.008141
| 19> 		H   -2.058180   0.321213  -0.057684
| 20> 		H   -0.130668   1.788701  -0.007047
| 21> 		H    1.247558  -1.241521   0.052463
| 22> 		H    2.120136   0.430622  -0.005794
| 23> *
| 24>
| 25>                          ****END OF INPUT****

CARTESIAN COORDINATES (ANGSTROEM)
---------------------------------
  C     -1.160436   -0.345449    0.041497
  O     -1.180328   -1.494230    0.027847
  C      0.000784    0.561348    0.041420
  C      1.196752   -0.053481   -0.008141
  H     -2.058180    0.321213   -0.057684
  H     -0.130668    1.788701   -0.007047
  H      1.247558   -1.241521    0.052463
  H      2.120136    0.430622   -0.005794

 Total Charge           Charge          ....    0
 Multiplicity           Mult            ....    1
 Number of Electrons    NEL             ....   30
 Basis Dimension        Dim             ....   44

ORBITAL ENERGIES
----------------

  NO   OCC          E(Eh)            E(eV)
   0   2.0000     -19.230424      -523.2865
   1   2.0000     -10.354800      -281.7684
   2   2.0000     -10.288282      -279.9584
   3   2.0000     -10.286963      -279.9225
   4   2.0000      -1.195679       -32.5361
   5   2.0000      -0.879285       -23.9266
   6   2.0000      -0.734706       -19.9924
   7   2.0000      -0.612840       -16.6762
   8   2.0000      -0.577272       -15.7084
   9   2.0000      -0.523231       -14.2378
  10   2.0000      -0.499728       -13.5983
  11   2.0000      -0.493436       -13.4271
  12   2.0000      -0.437288       -11.8992
  13   2.0000      -0.348309        -9.4780
  14   2.0000      -0.319686        -8.6991
  15   0.0000      -0.010741        -0.2923
  16   0.0000       0.124290         3.3821
  17   0.0000       0.128939         3.5086
  18   0.0000       0.168277         4.5790
  19   0.0000       0.202913         5.5215

MULLIKEN ATOMIC CHARGES
-----------------------
   0 C :    0.160865
   1 O :   -0.320413
   2 C :   -0.131891
   3 C :   -0.271663
   4 H :    0.085905
   5 H :    0.153878
   6 H :    0.178021
   7 H :    0.145298
Sum of atomic charges:   -0.0000000

LOEWDIN ATOMIC CHARGES
----------------------
   0 C :    0.102602
   1 O :   -0.189037
   2 C :   -0.194442
   3 C :   -0.166051
   4 H :    0.055761
   5 H :    0.129353
   6 H :    0.140900
   7 H :    0.120914

  Mayer bond orders larger than 0.100000
B(  0-C ,  1-O ) :   1.9412 B(  0-C ,  2-C ) :   0.9394 B(  0-C ,  4-H ) :   0.8797
B(  2-C ,  3-C ) :   1.8684 B(  2-C ,  5-H ) :   0.9334 B(  3-C ,  6-H ) :   0.9327
B(  3-C ,  7-H ) :   0.9432

-----------------------------------------------------------------------------
         ABSORPTION SPECTRUM VIA TRANSITION ELECTRIC DIPOLE MOMENTS
-----------------------------------------------------------------------------
State   Energy    Wavelength  fosc         T2        TX        TY        TZ
        (cm-1)      (nm)                 (au**2)    (au)      (au)      (au)
-----------------------------------------------------------------------------
   1   31471.2    317.8   0.000168882   0.00177   0.01838   0.00482  -0.03749

FINAL SINGLE POINT ENERGY      -191.571551541419

DIPOLE MOMENT
-------------
                                X             Y             Z
Electronic contribution:     -1.76963      -1.67356       0.10369
Nuclear contribution   :      2.24772       2.58401      -0.10560
                        -----------------------------------------
Total Dipole Moment    :      0.47809       0.91045      -0.00191
                        -----------------------------------------
Magnitude (a.u.)       :      1.02835
Magnitude (Debye)      :      2.61385

Rotational constants in cm-1:     0.738927     0.220581     0.169948
Rotational constants in MHz : 22152.469149  6612.860315  5094.925467

                             ****ORCA TERMINATED NORMALLY****
TOTAL RUN TIME: 0 days 0 hours 0 minutes 35 seconds 679 msec
