                         Program Version 5.0.3 -  RELEASE  -
|  1> ! RKS CAM-B3LYP 6-31G
|  2> !TightSCF
|  3> %scf
|  4>  ConvForced true
|  5>  convergence tight
|  6>  MaxIter 500
|  7> end
|  8>
|  9> %tddft
| 10>  nroots 1
| 11> end
| 12>
| 13> # 	16453
| 14> * xyz 0 1
| 15> 		C   -1.263996  -0.353707   0.029700
| 16> 		O   -1.789187  -0.909224   0.896443
| 17> 		C    0.010759   0.404134   0.196330
| 18> 		C    1.225146   0.045513  -0.121271
| 19> 		H   -1.654176  -0.456163  -1.041215
| 20> 		H   -0.100107   1.421450   0.698954
| 21> 		H    1.522941  -0.796875  -0.643054
| 22> 		H    2.016867   0.633137  -0.037762
| 23> *
| 24>
| 25>                          ****END OF INPUT****

CARTESIAN COORDINATES (ANGSTROEM)
---------------------------------
  C     -1.263996   -0.353707    0.029700
  O     -1.789187   -0.909224    0.896443
  C      0.010759    0.404134    0.196330
  C      1.225146    0.045513   -0.121271
  H     -1.654176   -0.456163   -1.041215
  H     -0.100107    1.421450    0.698954
  H      1.522941   -0.796875   -0.643054
  H      2.016867    0.633137   -0.037762

 Total Charge           Charge          ....    0
 Multiplicity           Mult            ....    1
 Number of Electrons    NEL             ....   30
 Basis Dimension        Dim             ....   44

ORBITAL ENERGIES
----------------

  NO   OCC          E(Eh)            E(eV)
   0   2.0000     -19.234147      -523.3878
   1   2.0000     -10.364374      -282.0290
   2   2.0000     -10.280450      -279.7453
   3   2.0000     -10.257407      -279.1182
   4   2.0000      -1.196548       -32.5597
   5   2.0000      -0.884877       -24.0787
   6   2.0000      -0.737495       -20.0682
   7   2.0000      -0.640296       -17.4233
   8   2.0000      -0.574546       -15.6342
   9   2.0000      -0.556290       -15.1374
  10   2.0000      -0.518839       -14.1183
  11   2.0000      -0.479728       -13.0541
  12   2.0000      -0.441934       -12.0256
  13   2.0000      -0.352318        -9.5871
  14   2.0000      -0.320600        -8.7240
  15   0.0000       0.021135         0.5751
  16   0.0000       0.063575         1.7300
  17   0.0000       0.165879         4.5138
  18   0.0000       0.182415         4.9638
  19   0.0000       0.200353         5.4519

MULLIKEN ATOMIC CHARGES
-----------------------
   0 C :    0.148447
   1 O :   -0.296471
   2 C :   -0.144995
   3 C :   -0.255196
   4 H :    0.106970
   5 H :    0.158942
   6 H :    0.143087
   7 H :    0.139217
Sum of atomic charges:   -0.0000000

LOEWDIN ATOMIC CHARGES
----------------------
   0 C :    0.113969
   1 O :   -0.179647
   2 C :   -0.157900
   3 C :   -0.216300
   4 H :    0.070805
   5 H :    0.133651
   6 H :    0.117281
   7 H :    0.118142

  Mayer bond orders larger than 0.100000
B(  0-C ,  1-O ) :   1.9710 B(  0-C ,  2-C ) :   0.9001 B(  0-C ,  4-H ) :   0.8747
B(  2-C ,  3-C ) :   1.9946 B(  2-C ,  5-H ) :   0.9308 B(  3-C ,  6-H ) :   0.9550
B(  3-C ,  7-H ) :   0.9485

-----------------------------------------------------------------------------
         ABSORPTION SPECTRUM VIA TRANSITION ELECTRIC DIPOLE MOMENTS
-----------------------------------------------------------------------------
State   Energy    Wavelength  fosc         T2        TX        TY        TZ
        (cm-1)      (nm)                 (au**2)    (au)      (au)      (au)
-----------------------------------------------------------------------------
   1   34616.3    288.9   0.000342871   0.00326   0.03886  -0.00045  -0.04184

FINAL SINGLE POINT ENERGY      -191.556746840401

DIPOLE MOMENT
-------------
                                X             Y             Z
Electronic contribution:     -2.82546      -1.05209       1.26391
Nuclear contribution   :      3.47401       1.58435      -1.92562
                        -----------------------------------------
Total Dipole Moment    :      0.64855       0.53226      -0.66171
                        -----------------------------------------
Magnitude (a.u.)       :      1.06854
Magnitude (Debye)      :      2.71602

Rotational constants in cm-1:     1.174523     0.159769     0.157685
Rotational constants in MHz : 35211.313430  4789.739256  4727.262841

                             ****ORCA TERMINATED NORMALLY****
TOTAL RUN TIME: 0 days 0 hours 0 minutes 35 seconds 611 msec
