                         Program Version 5.0.3 -  RELEASE  -
|  1> ! RKS CAM-B3LYP 6-31G
|  2> !TightSCF
|  3> %scf
|  4>  ConvForced true
|  5>  convergence tight
|  6>  MaxIter 500
|  7> end
|  8>
|  9> %tddft
| 10>  nroots 1
| 11> end
| 12>
| 13> # 	3349
| 14> * xyz 0 1
| 15> 		C   -1.213374  -0.370328  -0.021373
| 16> 		O   -1.526619  -1.235110  -0.789587
| 17> 		C    0.067691   0.484027  -0.241353
| 18> 		C    1.207493   0.029251   0.158410
| 19> 		H   -1.815136   0.006695   1.030206
| 20> 		H   -0.085343   1.436483  -0.713534
| 21> 		H    1.287811  -0.973136   0.599959
| 22> 		H    2.064762   0.583359  -0.007130
| 23> *
| 24>
| 25>                          ****END OF INPUT****

CARTESIAN COORDINATES (ANGSTROEM)
---------------------------------
  C     -1.213374   -0.370328   -0.021373
  O     -1.526619   -1.235110   -0.789587
  C      0.067691    0.484027   -0.241353
  C      1.207493    0.029251    0.158410
  H     -1.815136    0.006695    1.030206
  H     -0.085343    1.436483   -0.713534
  H      1.287811   -0.973136    0.599959
  H      2.064762    0.583359   -0.007130

 Total Charge           Charge          ....    0
 Multiplicity           Mult            ....    1
 Number of Electrons    NEL             ....   30
 Basis Dimension        Dim             ....   44

ORBITAL ENERGIES
----------------

  NO   OCC          E(Eh)            E(eV)
   0   2.0000     -19.244931      -523.6812
   1   2.0000     -10.380996      -282.4813
   2   2.0000     -10.275799      -279.6187
   3   2.0000     -10.263961      -279.2966
   4   2.0000      -1.173903       -31.9435
   5   2.0000      -0.886761       -24.1300
   6   2.0000      -0.717483       -19.5237
   7   2.0000      -0.623544       -16.9675
   8   2.0000      -0.572617       -15.5817
   9   2.0000      -0.532345       -14.4858
  10   2.0000      -0.517275       -14.0758
  11   2.0000      -0.465583       -12.6691
  12   2.0000      -0.456755       -12.4289
  13   2.0000      -0.354225        -9.6389
  14   2.0000      -0.320053        -8.7091
  15   0.0000       0.019335         0.5261
  16   0.0000       0.059177         1.6103
  17   0.0000       0.132765         3.6127
  18   0.0000       0.176518         4.8033
  19   0.0000       0.184071         5.0088

MULLIKEN ATOMIC CHARGES
-----------------------
   0 C :    0.177706
   1 O :   -0.334713
   2 C :   -0.128467
   3 C :   -0.268219
   4 H :    0.097825
   5 H :    0.162972
   6 H :    0.151433
   7 H :    0.141462
Sum of atomic charges:    0.0000000

LOEWDIN ATOMIC CHARGES
----------------------
   0 C :    0.128844
   1 O :   -0.196439
   2 C :   -0.168681
   3 C :   -0.210138
   4 H :    0.067388
   5 H :    0.131630
   6 H :    0.125318
   7 H :    0.122078

  Mayer bond orders larger than 0.100000
B(  0-C ,  1-O ) :   1.9344 B(  0-C ,  2-C ) :   0.8979 B(  0-C ,  4-H ) :   0.8427
B(  2-C ,  3-C ) :   1.9730 B(  2-C ,  5-H ) :   0.9314 B(  3-C ,  6-H ) :   0.9531
B(  3-C ,  7-H ) :   0.9536

-----------------------------------------------------------------------------
         ABSORPTION SPECTRUM VIA TRANSITION ELECTRIC DIPOLE MOMENTS
-----------------------------------------------------------------------------
State   Energy    Wavelength  fosc         T2        TX        TY        TZ
        (cm-1)      (nm)                 (au**2)    (au)      (au)      (au)
-----------------------------------------------------------------------------
   1   33035.3    302.7   0.000206569   0.00206  -0.04387   0.00996  -0.00587

FINAL SINGLE POINT ENERGY      -191.568430901007

DIPOLE MOMENT
-------------
                                X             Y             Z
Electronic contribution:     -2.35156      -1.35356      -1.21176
Nuclear contribution   :      2.83281       2.11118       1.71309
                        -----------------------------------------
Total Dipole Moment    :      0.48125       0.75762       0.50134
                        -----------------------------------------
Magnitude (a.u.)       :      1.02807
Magnitude (Debye)      :      2.61315

Rotational constants in cm-1:     0.898911     0.173462     0.161780
Rotational constants in MHz : 26948.673764  5200.262970  4850.043170

                             ****ORCA TERMINATED NORMALLY****
TOTAL RUN TIME: 0 days 0 hours 0 minutes 36 seconds 362 msec
