                         Program Version 5.0.3 -  RELEASE  -
|  1> ! RKS CAM-B3LYP 6-31G
|  2> !TightSCF
|  3> %scf
|  4>  ConvForced true
|  5>  convergence tight
|  6>  MaxIter 500
|  7> end
|  8>
|  9> %tddft
| 10>  nroots 1
| 11> end
| 12>
| 13> # 	28778
| 14> * xyz 0 1
| 15> 		C   -0.615940  -0.453820  -0.005609
| 16> 		O   -0.548929  -1.579912   0.003665
| 17> 		C    0.645989   0.398537   0.013797
| 18> 		C    1.827498  -0.136499  -0.001978
| 19> 		H   -1.599456   0.121284  -0.043838
| 20> 		H    0.392306   1.387574  -0.034260
| 21> 		H    1.909714  -1.300190  -0.051463
| 22> 		H    2.796755   0.409023  -0.002753
| 23> *
| 24>
| 25>                          ****END OF INPUT****

CARTESIAN COORDINATES (ANGSTROEM)
---------------------------------
  C     -0.615940   -0.453820   -0.005609
  O     -0.548929   -1.579912    0.003665
  C      0.645989    0.398537    0.013797
  C      1.827498   -0.136499   -0.001978
  H     -1.599456    0.121284   -0.043838
  H      0.392306    1.387574   -0.034260
  H      1.909714   -1.300190   -0.051463
  H      2.796755    0.409023   -0.002753

 Total Charge           Charge          ....    0
 Multiplicity           Mult            ....    1
 Number of Electrons    NEL             ....   30
 Basis Dimension        Dim             ....   44

ORBITAL ENERGIES
----------------

  NO   OCC          E(Eh)            E(eV)
   0   2.0000     -19.228922      -523.2456
   1   2.0000     -10.356763      -281.8219
   2   2.0000     -10.280496      -279.7465
   3   2.0000     -10.261255      -279.2230
   4   2.0000      -1.211136       -32.9567
   5   2.0000      -0.878545       -23.9064
   6   2.0000      -0.724568       -19.7165
   7   2.0000      -0.616561       -16.7775
   8   2.0000      -0.589453       -16.0398
   9   2.0000      -0.526557       -14.3283
  10   2.0000      -0.511554       -13.9201
  11   2.0000      -0.504061       -13.7162
  12   2.0000      -0.436626       -11.8812
  13   2.0000      -0.351427        -9.5628
  14   2.0000      -0.317842        -8.6489
  15   0.0000       0.001824         0.0496
  16   0.0000       0.134232         3.6526
  17   0.0000       0.149692         4.0733
  18   0.0000       0.171966         4.6794
  19   0.0000       0.215179         5.8553

MULLIKEN ATOMIC CHARGES
-----------------------
   0 C :    0.146213
   1 O :   -0.290166
   2 C :   -0.105715
   3 C :   -0.290796
   4 H :    0.099016
   5 H :    0.124784
   6 H :    0.165963
   7 H :    0.150700
Sum of atomic charges:   -0.0000000

LOEWDIN ATOMIC CHARGES
----------------------
   0 C :    0.103027
   1 O :   -0.175772
   2 C :   -0.199928
   3 C :   -0.169094
   4 H :    0.064948
   5 H :    0.115041
   6 H :    0.134613
   7 H :    0.127165

  Mayer bond orders larger than 0.100000
B(  0-C ,  1-O ) :   1.9733 B(  0-C ,  2-C ) :   0.9359 B(  0-C ,  4-H ) :   0.8679
B(  2-C ,  3-C ) :   1.9166 B(  2-C ,  5-H ) :   0.9371 B(  3-C ,  6-H ) :   0.9327
B(  3-C ,  7-H ) :   0.9437

-----------------------------------------------------------------------------
         ABSORPTION SPECTRUM VIA TRANSITION ELECTRIC DIPOLE MOMENTS
-----------------------------------------------------------------------------
State   Energy    Wavelength  fosc         T2        TX        TY        TZ
        (cm-1)      (nm)                 (au**2)    (au)      (au)      (au)
-----------------------------------------------------------------------------
   1   32932.7    303.7   0.000080614   0.00081  -0.00897  -0.00516   0.02643

FINAL SINGLE POINT ENERGY      -191.570132874898

DIPOLE MOMENT
-------------
                                X             Y             Z
Electronic contribution:     -1.86828      -1.51644       0.08611
Nuclear contribution   :      2.12870       2.36770      -0.12407
                        -----------------------------------------
Total Dipole Moment    :      0.26042       0.85126      -0.03796
                        -----------------------------------------
Magnitude (a.u.)       :      0.89101
Magnitude (Debye)      :      2.26478

Rotational constants in cm-1:     0.794449     0.216641     0.170252
Rotational constants in MHz : 23816.992980  6494.728301  5104.035893

                             ****ORCA TERMINATED NORMALLY****
TOTAL RUN TIME: 0 days 0 hours 0 minutes 34 seconds 690 msec
