                         Program Version 5.0.3 -  RELEASE  -
|  1> ! RKS CAM-B3LYP 6-31G
|  2> !TightSCF
|  3> %scf
|  4>  ConvForced true
|  5>  convergence tight
|  6>  MaxIter 500
|  7> end
|  8>
|  9> %tddft
| 10>  nroots 1
| 11> end
| 12>
| 13> # 	29263
| 14> * xyz 0 1
| 15> 		C   -0.620179  -0.459635   0.011307
| 16> 		O   -0.567608  -1.629983  -0.020457
| 17> 		C    0.643348   0.447303  -0.028599
| 18> 		C    1.860394  -0.127655   0.030384
| 19> 		H   -1.685819   0.015123   0.256709
| 20> 		H    0.419930   1.566722  -0.083322
| 21> 		H    1.927509  -1.316591   0.114969
| 22> 		H    2.868088   0.517719  -0.136360
| 23> *
| 24>
| 25>                          ****END OF INPUT****

CARTESIAN COORDINATES (ANGSTROEM)
---------------------------------
  C     -0.620179   -0.459635    0.011307
  O     -0.567608   -1.629983   -0.020457
  C      0.643348    0.447303   -0.028599
  C      1.860394   -0.127655    0.030384
  H     -1.685819    0.015123    0.256709
  H      0.419930    1.566722   -0.083322
  H      1.927509   -1.316591    0.114969
  H      2.868088    0.517719   -0.136360

 Total Charge           Charge          ....    0
 Multiplicity           Mult            ....    1
 Number of Electrons    NEL             ....   30
 Basis Dimension        Dim             ....   44

ORBITAL ENERGIES
----------------

  NO   OCC          E(Eh)            E(eV)
   0   2.0000     -19.231403      -523.3131
   1   2.0000     -10.368447      -282.1398
   2   2.0000     -10.302306      -280.3400
   3   2.0000     -10.289940      -280.0035
   4   2.0000      -1.183658       -32.2090
   5   2.0000      -0.865859       -23.5612
   6   2.0000      -0.708348       -19.2751
   7   2.0000      -0.603027       -16.4092
   8   2.0000      -0.575439       -15.6585
   9   2.0000      -0.515287       -14.0217
  10   2.0000      -0.498738       -13.5713
  11   2.0000      -0.481877       -13.1125
  12   2.0000      -0.436143       -11.8680
  13   2.0000      -0.346536        -9.4297
  14   2.0000      -0.320020        -8.7082
  15   0.0000      -0.009401        -0.2558
  16   0.0000       0.111408         3.0316
  17   0.0000       0.130040         3.5386
  18   0.0000       0.147039         4.0011
  19   0.0000       0.181706         4.9445

MULLIKEN ATOMIC CHARGES
-----------------------
   0 C :    0.165763
   1 O :   -0.329518
   2 C :   -0.129545
   3 C :   -0.286726
   4 H :    0.102983
   5 H :    0.148491
   6 H :    0.179189
   7 H :    0.149363
Sum of atomic charges:    0.0000000

LOEWDIN ATOMIC CHARGES
----------------------
   0 C :    0.108424
   1 O :   -0.209090
   2 C :   -0.195348
   3 C :   -0.176049
   4 H :    0.071707
   5 H :    0.125658
   6 H :    0.143989
   7 H :    0.130709

  Mayer bond orders larger than 0.100000
B(  0-C ,  1-O ) :   1.9168 B(  0-C ,  2-C ) :   0.9229 B(  0-C ,  4-H ) :   0.8738
B(  2-C ,  3-C ) :   1.8799 B(  2-C ,  5-H ) :   0.9324 B(  3-C ,  6-H ) :   0.9294
B(  3-C ,  7-H ) :   0.9441

-----------------------------------------------------------------------------
         ABSORPTION SPECTRUM VIA TRANSITION ELECTRIC DIPOLE MOMENTS
-----------------------------------------------------------------------------
State   Energy    Wavelength  fosc         T2        TX        TY        TZ
        (cm-1)      (nm)                 (au**2)    (au)      (au)      (au)
-----------------------------------------------------------------------------
   1   31153.2    321.0   0.000365003   0.00386   0.03675   0.00225  -0.05002

FINAL SINGLE POINT ENERGY      -191.577458008393

DIPOLE MOMENT
-------------
                                X             Y             Z
Electronic contribution:     -1.83169      -1.61872      -0.12868
Nuclear contribution   :      2.15396       2.52286       0.14343
                        -----------------------------------------
Total Dipole Moment    :      0.32227       0.90414       0.01475
                        -----------------------------------------
Magnitude (a.u.)       :      0.95997
Magnitude (Debye)      :      2.44006

Rotational constants in cm-1:     0.734795     0.203920     0.160029
Rotational constants in MHz : 22028.596984  6113.382469  4797.563438

                             ****ORCA TERMINATED NORMALLY****
TOTAL RUN TIME: 0 days 0 hours 0 minutes 35 seconds 190 msec
