                         Program Version 5.0.3 -  RELEASE  -
|  1> ! RKS CAM-B3LYP 6-31G
|  2> !TightSCF
|  3> %scf
|  4>  ConvForced true
|  5>  convergence tight
|  6>  MaxIter 500
|  7> end
|  8>
|  9> %tddft
| 10>  nroots 1
| 11> end
| 12>
| 13> # 	2142
| 14> * xyz 0 1
| 15> 		C   -1.287979  -0.345498  -0.026703
| 16> 		O   -1.174986  -1.484891   0.128944
| 17> 		C   -0.023721   0.440841   0.109547
| 18> 		C    1.221402  -0.050490  -0.035927
| 19> 		H   -2.060509   0.415244  -0.357280
| 20> 		H   -0.111657   1.686584   0.191515
| 21> 		H    1.280146  -1.093806   0.019395
| 22> 		H    2.178882   0.411434  -0.047737
| 23> *
| 24>
| 25>                          ****END OF INPUT****

CARTESIAN COORDINATES (ANGSTROEM)
---------------------------------
  C     -1.287979   -0.345498   -0.026703
  O     -1.174986   -1.484891    0.128944
  C     -0.023721    0.440841    0.109547
  C      1.221402   -0.050490   -0.035927
  H     -2.060509    0.415244   -0.357280
  H     -0.111657    1.686584    0.191515
  H      1.280146   -1.093806    0.019395
  H      2.178882    0.411434   -0.047737

 Total Charge           Charge          ....    0
 Multiplicity           Mult            ....    1
 Number of Electrons    NEL             ....   30
 Basis Dimension        Dim             ....   44

ORBITAL ENERGIES
----------------

  NO   OCC          E(Eh)            E(eV)
   0   2.0000     -19.238660      -523.5105
   1   2.0000     -10.368153      -282.1318
   2   2.0000     -10.282552      -279.8025
   3   2.0000     -10.269859      -279.4571
   4   2.0000      -1.201728       -32.7007
   5   2.0000      -0.868440       -23.6315
   6   2.0000      -0.741586       -20.1796
   7   2.0000      -0.621047       -16.8996
   8   2.0000      -0.573714       -15.6116
   9   2.0000      -0.528326       -14.3765
  10   2.0000      -0.516333       -14.0501
  11   2.0000      -0.493541       -13.4299
  12   2.0000      -0.424196       -11.5430
  13   2.0000      -0.340802        -9.2737
  14   2.0000      -0.323630        -8.8064
  15   0.0000      -0.010182        -0.2771
  16   0.0000       0.111749         3.0408
  17   0.0000       0.138666         3.7733
  18   0.0000       0.172135         4.6840
  19   0.0000       0.199982         5.4418

MULLIKEN ATOMIC CHARGES
-----------------------
   0 C :    0.198099
   1 O :   -0.336288
   2 C :   -0.160446
   3 C :   -0.263325
   4 H :    0.135443
   5 H :    0.108022
   6 H :    0.158982
   7 H :    0.159513
Sum of atomic charges:   -0.0000000

LOEWDIN ATOMIC CHARGES
----------------------
   0 C :    0.105807
   1 O :   -0.177483
   2 C :   -0.180997
   3 C :   -0.190589
   4 H :    0.089874
   5 H :    0.097092
   6 H :    0.126295
   7 H :    0.130001

  Mayer bond orders larger than 0.100000
B(  0-C ,  1-O ) :   1.9107 B(  0-C ,  2-C ) :   0.9410 B(  0-C ,  4-H ) :   0.8594
B(  2-C ,  3-C ) :   1.9261 B(  2-C ,  5-H ) :   0.9352 B(  3-C ,  6-H ) :   0.9403
B(  3-C ,  7-H ) :   0.9434

-----------------------------------------------------------------------------
         ABSORPTION SPECTRUM VIA TRANSITION ELECTRIC DIPOLE MOMENTS
-----------------------------------------------------------------------------
State   Energy    Wavelength  fosc         T2        TX        TY        TZ
        (cm-1)      (nm)                 (au**2)    (au)      (au)      (au)
-----------------------------------------------------------------------------
   1   31350.2    319.0   0.000141877   0.00149   0.02503  -0.02320   0.01803

FINAL SINGLE POINT ENERGY      -191.561834346795

DIPOLE MOMENT
-------------
                                X             Y             Z
Electronic contribution:     -2.19784      -1.96428       0.20336
Nuclear contribution   :      2.43890       2.77384      -0.34355
                        -----------------------------------------
Total Dipole Moment    :      0.24106       0.80956      -0.14019
                        -----------------------------------------
Magnitude (a.u.)       :      0.85624
Magnitude (Debye)      :      2.17639

Rotational constants in cm-1:     0.752680     0.215899     0.169288
Rotational constants in MHz : 22564.793462  6472.480908  5075.111752

                             ****ORCA TERMINATED NORMALLY****
TOTAL RUN TIME: 0 days 0 hours 0 minutes 36 seconds 214 msec
