                         Program Version 5.0.3 -  RELEASE  -
|  1> ! RKS CAM-B3LYP 6-31G
|  2> !TightSCF
|  3> %scf
|  4>  ConvForced true
|  5>  convergence tight
|  6>  MaxIter 500
|  7> end
|  8>
|  9> %tddft
| 10>  nroots 1
| 11> end
| 12>
| 13> # 	23288
| 14> * xyz 0 1
| 15> 		C   -0.606698  -0.454461  -0.050404
| 16> 		O   -0.588887  -1.643058   0.018172
| 17> 		C    0.637328   0.443367   0.033216
| 18> 		C    1.870314  -0.106512   0.013090
| 19> 		H   -1.556482   0.054409   0.069134
| 20> 		H    0.490006   1.494763  -0.058218
| 21> 		H    2.041723  -1.314831  -0.176934
| 22> 		H    2.695120   0.494857  -0.078218
| 23> *
| 24>
| 25>                          ****END OF INPUT****

CARTESIAN COORDINATES (ANGSTROEM)
---------------------------------
  C     -0.606698   -0.454461   -0.050404
  O     -0.588887   -1.643058    0.018172
  C      0.637328    0.443367    0.033216
  C      1.870314   -0.106512    0.013090
  H     -1.556482    0.054409    0.069134
  H      0.490006    1.494763   -0.058218
  H      2.041723   -1.314831   -0.176934
  H      2.695120    0.494857   -0.078218

 Total Charge           Charge          ....    0
 Multiplicity           Mult            ....    1
 Number of Electrons    NEL             ....   30
 Basis Dimension        Dim             ....   44

ORBITAL ENERGIES
----------------

  NO   OCC          E(Eh)            E(eV)
   0   2.0000     -19.227006      -523.1934
   1   2.0000     -10.356434      -281.8129
   2   2.0000     -10.288552      -279.9657
   3   2.0000     -10.279704      -279.7250
   4   2.0000      -1.166316       -31.7371
   5   2.0000      -0.872063       -23.7300
   6   2.0000      -0.729668       -19.8553
   7   2.0000      -0.624818       -17.0022
   8   2.0000      -0.583853       -15.8875
   9   2.0000      -0.512236       -13.9387
  10   2.0000      -0.502633       -13.6773
  11   2.0000      -0.477292       -12.9878
  12   2.0000      -0.441118       -12.0034
  13   2.0000      -0.344633        -9.3779
  14   2.0000      -0.320420        -8.7191
  15   0.0000      -0.014715        -0.4004
  16   0.0000       0.108544         2.9536
  17   0.0000       0.151533         4.1234
  18   0.0000       0.168513         4.5855
  19   0.0000       0.208710         5.6793

MULLIKEN ATOMIC CHARGES
-----------------------
   0 C :    0.178398
   1 O :   -0.346884
   2 C :   -0.141518
   3 C :   -0.249689
   4 H :    0.108916
   5 H :    0.141504
   6 H :    0.169512
   7 H :    0.139760
Sum of atomic charges:   -0.0000000

LOEWDIN ATOMIC CHARGES
----------------------
   0 C :    0.114806
   1 O :   -0.218647
   2 C :   -0.192069
   3 C :   -0.164876
   4 H :    0.076501
   5 H :    0.123839
   6 H :    0.140668
   7 H :    0.119778

  Mayer bond orders larger than 0.100000
B(  0-C ,  1-O ) :   1.9144 B(  0-C ,  2-C ) :   0.9464 B(  0-C ,  4-H ) :   0.8924
B(  2-C ,  3-C ) :   1.8903 B(  2-C ,  5-H ) :   0.9375 B(  3-C ,  6-H ) :   0.9387
B(  3-C ,  7-H ) :   0.9441

-----------------------------------------------------------------------------
         ABSORPTION SPECTRUM VIA TRANSITION ELECTRIC DIPOLE MOMENTS
-----------------------------------------------------------------------------
State   Energy    Wavelength  fosc         T2        TX        TY        TZ
        (cm-1)      (nm)                 (au**2)    (au)      (au)      (au)
-----------------------------------------------------------------------------
   1   29793.3    335.6   0.000285259   0.00315  -0.04962  -0.01112   0.02380

FINAL SINGLE POINT ENERGY      -191.591584509245

DIPOLE MOMENT
-------------
                                X             Y             Z
Electronic contribution:     -1.92947      -1.45875       0.09255
Nuclear contribution   :      2.28493       2.47185      -0.22855
                        -----------------------------------------
Total Dipole Moment    :      0.35546       1.01310      -0.13600
                        -----------------------------------------
Magnitude (a.u.)       :      1.08223
Magnitude (Debye)      :      2.75080

Rotational constants in cm-1:     0.752341     0.202905     0.160100
Rotational constants in MHz : 22554.610478  6082.948207  4799.681822

                             ****ORCA TERMINATED NORMALLY****
TOTAL RUN TIME: 0 days 0 hours 0 minutes 36 seconds 182 msec
