                         Program Version 5.0.3 -  RELEASE  -
|  1> ! RKS CAM-B3LYP 6-31G
|  2> !TightSCF
|  3> %scf
|  4>  ConvForced true
|  5>  convergence tight
|  6>  MaxIter 500
|  7> end
|  8>
|  9> %tddft
| 10>  nroots 1
| 11> end
| 12>
| 13> # 	682
| 14> * xyz 0 1
| 15> 		C   -1.176151  -0.284868  -0.031883
| 16> 		O   -1.252841  -1.508384  -0.071866
| 17> 		C   -0.007377   0.549712  -0.048177
| 18> 		C    1.228268   0.001200   0.032531
| 19> 		H   -2.139386   0.303239  -0.002728
| 20> 		H   -0.225130   1.499876   0.032439
| 21> 		H    1.451765  -1.013829   0.132388
| 22> 		H    2.137671   0.496371   0.011256
| 23> *
| 24>
| 25>                          ****END OF INPUT****

CARTESIAN COORDINATES (ANGSTROEM)
---------------------------------
  C     -1.176151   -0.284868   -0.031883
  O     -1.252841   -1.508384   -0.071866
  C     -0.007377    0.549712   -0.048177
  C      1.228268    0.001200    0.032531
  H     -2.139386    0.303239   -0.002728
  H     -0.225130    1.499876    0.032439
  H      1.451765   -1.013829    0.132388
  H      2.137671    0.496371    0.011256

 Total Charge           Charge          ....    0
 Multiplicity           Mult            ....    1
 Number of Electrons    NEL             ....   30
 Basis Dimension        Dim             ....   44

ORBITAL ENERGIES
----------------

  NO   OCC          E(Eh)            E(eV)
   0   2.0000     -19.220016      -523.0032
   1   2.0000     -10.350372      -281.6479
   2   2.0000     -10.284956      -279.8679
   3   2.0000     -10.273944      -279.5682
   4   2.0000      -1.137938       -30.9649
   5   2.0000      -0.892152       -24.2767
   6   2.0000      -0.760169       -20.6853
   7   2.0000      -0.632667       -17.2158
   8   2.0000      -0.596568       -16.2334
   9   2.0000      -0.530352       -14.4316
  10   2.0000      -0.491151       -13.3649
  11   2.0000      -0.469904       -12.7867
  12   2.0000      -0.457488       -12.4489
  13   2.0000      -0.346435        -9.4270
  14   2.0000      -0.317784        -8.6473
  15   0.0000      -0.027001        -0.7347
  16   0.0000       0.121496         3.3061
  17   0.0000       0.159911         4.3514
  18   0.0000       0.186726         5.0811
  19   0.0000       0.227150         6.1811

MULLIKEN ATOMIC CHARGES
-----------------------
   0 C :    0.151958
   1 O :   -0.377390
   2 C :   -0.080701
   3 C :   -0.244370
   4 H :    0.099631
   5 H :    0.125288
   6 H :    0.175346
   7 H :    0.150238
Sum of atomic charges:   -0.0000000

LOEWDIN ATOMIC CHARGES
----------------------
   0 C :    0.110604
   1 O :   -0.246924
   2 C :   -0.176440
   3 C :   -0.137682
   4 H :    0.071215
   5 H :    0.122884
   6 H :    0.134286
   7 H :    0.122057

  Mayer bond orders larger than 0.100000
B(  0-C ,  1-O ) :   1.8972 B(  0-C ,  2-C ) :   1.0008 B(  0-C ,  4-H ) :   0.8927
B(  1-O ,  3-C ) :   0.1040 B(  2-C ,  3-C ) :   1.8812 B(  2-C ,  5-H ) :   0.9415
B(  3-C ,  6-H ) :   0.9391 B(  3-C ,  7-H ) :   0.9438

-----------------------------------------------------------------------------
         ABSORPTION SPECTRUM VIA TRANSITION ELECTRIC DIPOLE MOMENTS
-----------------------------------------------------------------------------
State   Energy    Wavelength  fosc         T2        TX        TY        TZ
        (cm-1)      (nm)                 (au**2)    (au)      (au)      (au)
-----------------------------------------------------------------------------
   1   27326.7    365.9   0.000123930   0.00149  -0.02605  -0.00189  -0.02848

FINAL SINGLE POINT ENERGY      -191.606914637781

DIPOLE MOMENT
-------------
                                X             Y             Z
Electronic contribution:     -1.72948      -1.44582      -0.17381
Nuclear contribution   :      2.35855       2.50375       0.26546
                        -----------------------------------------
Total Dipole Moment    :      0.62907       1.05793       0.09165
                        -----------------------------------------
Magnitude (a.u.)       :      1.23424
Magnitude (Debye)      :      3.13718

Rotational constants in cm-1:     0.773584     0.207039     0.163469
Rotational constants in MHz : 23191.457740  6206.874506  4900.664213

                             ****ORCA TERMINATED NORMALLY****
TOTAL RUN TIME: 0 days 0 hours 0 minutes 36 seconds 459 msec
