                         Program Version 5.0.3 -  RELEASE  -
|  1> ! RKS CAM-B3LYP 6-31G
|  2> !TightSCF
|  3> %scf
|  4>  ConvForced true
|  5>  convergence tight
|  6>  MaxIter 500
|  7> end
|  8>
|  9> %tddft
| 10>  nroots 1
| 11> end
| 12>
| 13> # 	12055
| 14> * xyz 0 1
| 15> 		C   -1.167739  -0.385553   0.011801
| 16> 		O   -2.044527  -0.766585  -0.732249
| 17> 		C    0.080299   0.425377  -0.319560
| 18> 		C    1.245449   0.142321   0.159965
| 19> 		H   -1.326444  -0.651035   1.077471
| 20> 		H   -0.195127   1.189867  -1.090088
| 21> 		H    1.215887  -0.658188   0.912688
| 22> 		H    2.133565   0.706374  -0.036647
| 23> *
| 24>
| 25>                          ****END OF INPUT****

CARTESIAN COORDINATES (ANGSTROEM)
---------------------------------
  C     -1.167739   -0.385553    0.011801
  O     -2.044527   -0.766585   -0.732249
  C      0.080299    0.425377   -0.319560
  C      1.245449    0.142321    0.159965
  H     -1.326444   -0.651035    1.077471
  H     -0.195127    1.189867   -1.090088
  H      1.215887   -0.658188    0.912688
  H      2.133565    0.706374   -0.036647

 Total Charge           Charge          ....    0
 Multiplicity           Mult            ....    1
 Number of Electrons    NEL             ....   30
 Basis Dimension        Dim             ....   44

ORBITAL ENERGIES
----------------

  NO   OCC          E(Eh)            E(eV)
   0   2.0000     -19.230866      -523.2985
   1   2.0000     -10.361558      -281.9523
   2   2.0000     -10.285194      -279.8744
   3   2.0000     -10.281554      -279.7753
   4   2.0000      -1.156552       -31.4714
   5   2.0000      -0.896437       -24.3933
   6   2.0000      -0.724632       -19.7182
   7   2.0000      -0.644714       -17.5436
   8   2.0000      -0.563454       -15.3324
   9   2.0000      -0.548612       -14.9285
  10   2.0000      -0.502925       -13.6853
  11   2.0000      -0.467404       -12.7187
  12   2.0000      -0.447006       -12.1637
  13   2.0000      -0.362126        -9.8540
  14   2.0000      -0.319623        -8.6974
  15   0.0000      -0.004032        -0.1097
  16   0.0000       0.088076         2.3967
  17   0.0000       0.161236         4.3875
  18   0.0000       0.170324         4.6347
  19   0.0000       0.192340         5.2338

MULLIKEN ATOMIC CHARGES
-----------------------
   0 C :    0.158410
   1 O :   -0.351209
   2 C :   -0.102657
   3 C :   -0.289416
   4 H :    0.109728
   5 H :    0.168088
   6 H :    0.145439
   7 H :    0.161616
Sum of atomic charges:   -0.0000000

LOEWDIN ATOMIC CHARGES
----------------------
   0 C :    0.113330
   1 O :   -0.226089
   2 C :   -0.163231
   3 C :   -0.192540
   4 H :    0.076813
   5 H :    0.132242
   6 H :    0.125019
   7 H :    0.134455

  Mayer bond orders larger than 0.100000
B(  0-C ,  1-O ) :   1.9168 B(  0-C ,  2-C ) :   0.9215 B(  0-C ,  4-H ) :   0.8924
B(  2-C ,  3-C ) :   1.9249 B(  2-C ,  5-H ) :   0.9270 B(  3-C ,  6-H ) :   0.9533
B(  3-C ,  7-H ) :   0.9456

-----------------------------------------------------------------------------
         ABSORPTION SPECTRUM VIA TRANSITION ELECTRIC DIPOLE MOMENTS
-----------------------------------------------------------------------------
State   Energy    Wavelength  fosc         T2        TX        TY        TZ
        (cm-1)      (nm)                 (au**2)    (au)      (au)      (au)
-----------------------------------------------------------------------------
   1   30664.8    326.1   0.000138060   0.00148  -0.03766   0.00719   0.00347

FINAL SINGLE POINT ENERGY      -191.596401132660

DIPOLE MOMENT
-------------
                                X             Y             Z
Electronic contribution:     -2.65633      -0.73540      -1.07674
Nuclear contribution   :      3.63142       1.17679       1.64728
                        -----------------------------------------
Total Dipole Moment    :      0.97509       0.44139       0.57055
                        -----------------------------------------
Magnitude (a.u.)       :      1.21291
Magnitude (Debye)      :      3.08297

Rotational constants in cm-1:     1.419511     0.152075     0.143355
Rotational constants in MHz : 42555.854438  4559.083267  4297.675066

                             ****ORCA TERMINATED NORMALLY****
TOTAL RUN TIME: 0 days 0 hours 0 minutes 37 seconds 460 msec
