                         Program Version 5.0.3 -  RELEASE  -
|  1> ! RKS CAM-B3LYP 6-31G
|  2> !TightSCF
|  3> %scf
|  4>  ConvForced true
|  5>  convergence tight
|  6>  MaxIter 500
|  7> end
|  8>
|  9> %tddft
| 10>  nroots 1
| 11> end
| 12>
| 13> # 	27309
| 14> * xyz 0 1
| 15> 		C   -0.550924  -0.428735   0.035128
| 16> 		O   -0.589203  -1.641234  -0.025757
| 17> 		C    0.586450   0.413090  -0.057136
| 18> 		C    1.862972  -0.112235   0.031551
| 19> 		H   -1.447173   0.236047   0.244580
| 20> 		H    0.364981   1.432641  -0.032009
| 21> 		H    1.901593  -1.288542   0.111899
| 22> 		H    2.846471   0.452290  -0.038607
| 23> *
| 24>
| 25>                          ****END OF INPUT****

CARTESIAN COORDINATES (ANGSTROEM)
---------------------------------
  C     -0.550924   -0.428735    0.035128
  O     -0.589203   -1.641234   -0.025757
  C      0.586450    0.413090   -0.057136
  C      1.862972   -0.112235    0.031551
  H     -1.447173    0.236047    0.244580
  H      0.364981    1.432641   -0.032009
  H      1.901593   -1.288542    0.111899
  H      2.846471    0.452290   -0.038607

 Total Charge           Charge          ....    0
 Multiplicity           Mult            ....    1
 Number of Electrons    NEL             ....   30
 Basis Dimension        Dim             ....   44

ORBITAL ENERGIES
----------------

  NO   OCC          E(Eh)            E(eV)
   0   2.0000     -19.224177      -523.1165
   1   2.0000     -10.352320      -281.7009
   2   2.0000     -10.308435      -280.5068
   3   2.0000     -10.277626      -279.6684
   4   2.0000      -1.148503       -31.2524
   5   2.0000      -0.884757       -24.0755
   6   2.0000      -0.747255       -20.3338
   7   2.0000      -0.609904       -16.5963
   8   2.0000      -0.590156       -16.0590
   9   2.0000      -0.514977       -14.0132
  10   2.0000      -0.494871       -13.4661
  11   2.0000      -0.471106       -12.8194
  12   2.0000      -0.446926       -12.1615
  13   2.0000      -0.342833        -9.3290
  14   2.0000      -0.321763        -8.7556
  15   0.0000      -0.028599        -0.7782
  16   0.0000       0.121650         3.3103
  17   0.0000       0.145741         3.9658
  18   0.0000       0.153464         4.1760
  19   0.0000       0.213620         5.8129

MULLIKEN ATOMIC CHARGES
-----------------------
   0 C :    0.165859
   1 O :   -0.378073
   2 C :   -0.104856
   3 C :   -0.265035
   4 H :    0.100236
   5 H :    0.141022
   6 H :    0.179654
   7 H :    0.161192
Sum of atomic charges:   -0.0000000

LOEWDIN ATOMIC CHARGES
----------------------
   0 C :    0.105362
   1 O :   -0.236208
   2 C :   -0.198173
   3 C :   -0.143216
   4 H :    0.070717
   5 H :    0.124831
   6 H :    0.143026
   7 H :    0.133661

  Mayer bond orders larger than 0.100000
B(  0-C ,  1-O ) :   1.8834 B(  0-C ,  2-C ) :   1.0078 B(  0-C ,  4-H ) :   0.8849
B(  1-O ,  3-C ) :   0.1043 B(  2-C ,  3-C ) :   1.8355 B(  2-C ,  5-H ) :   0.9382
B(  3-C ,  6-H ) :   0.9337 B(  3-C ,  7-H ) :   0.9393

-----------------------------------------------------------------------------
         ABSORPTION SPECTRUM VIA TRANSITION ELECTRIC DIPOLE MOMENTS
-----------------------------------------------------------------------------
State   Energy    Wavelength  fosc         T2        TX        TY        TZ
        (cm-1)      (nm)                 (au**2)    (au)      (au)      (au)
-----------------------------------------------------------------------------
   1   28137.0    355.4   0.000246434   0.00288  -0.03620  -0.00575  -0.03924

FINAL SINGLE POINT ENERGY      -191.606125707891

DIPOLE MOMENT
-------------
                                X             Y             Z
Electronic contribution:     -1.70417      -1.51719      -0.19076
Nuclear contribution   :      2.28332       2.56807       0.26843
                        -----------------------------------------
Total Dipole Moment    :      0.57915       1.05088       0.07767
                        -----------------------------------------
Magnitude (a.u.)       :      1.20241
Magnitude (Debye)      :      3.05628

Rotational constants in cm-1:     0.748817     0.210150     0.164584
Rotational constants in MHz : 22448.959425  6300.124862  4934.106609

                             ****ORCA TERMINATED NORMALLY****
TOTAL RUN TIME: 0 days 0 hours 0 minutes 35 seconds 163 msec
