                         Program Version 5.0.3 -  RELEASE  -
|  1> ! RKS CAM-B3LYP 6-31G
|  2> !TightSCF
|  3> %scf
|  4>  ConvForced true
|  5>  convergence tight
|  6>  MaxIter 500
|  7> end
|  8>
|  9> %tddft
| 10>  nroots 1
| 11> end
| 12>
| 13> # 	14184
| 14> * xyz 0 1
| 15> 		C   -1.164232  -0.328253  -0.042038
| 16> 		O   -1.385783  -1.321740  -0.527336
| 17> 		C    0.035998   0.550092  -0.198165
| 18> 		C    1.240181   0.078722   0.110938
| 19> 		H   -2.048811  -0.056154   0.902696
| 20> 		H   -0.149263   1.492181  -0.551577
| 21> 		H    1.260252  -1.044287   0.378785
| 22> 		H    2.221935   0.616538  -0.003733
| 23> *
| 24>
| 25>                          ****END OF INPUT****

CARTESIAN COORDINATES (ANGSTROEM)
---------------------------------
  C     -1.164232   -0.328253   -0.042038
  O     -1.385783   -1.321740   -0.527336
  C      0.035998    0.550092   -0.198165
  C      1.240181    0.078722    0.110938
  H     -2.048811   -0.056154    0.902696
  H     -0.149263    1.492181   -0.551577
  H      1.260252   -1.044287    0.378785
  H      2.221935    0.616538   -0.003733

 Total Charge           Charge          ....    0
 Multiplicity           Mult            ....    1
 Number of Electrons    NEL             ....   30
 Basis Dimension        Dim             ....   44

ORBITAL ENERGIES
----------------

  NO   OCC          E(Eh)            E(eV)
   0   2.0000     -19.238296      -523.5006
   1   2.0000     -10.375159      -282.3224
   2   2.0000     -10.291376      -280.0426
   3   2.0000     -10.280107      -279.7359
   4   2.0000      -1.218849       -33.1666
   5   2.0000      -0.887768       -24.1574
   6   2.0000      -0.718803       -19.5596
   7   2.0000      -0.616113       -16.7653
   8   2.0000      -0.584906       -15.9161
   9   2.0000      -0.538588       -14.6557
  10   2.0000      -0.522320       -14.2131
  11   2.0000      -0.485314       -13.2061
  12   2.0000      -0.454358       -12.3637
  13   2.0000      -0.354193        -9.6381
  14   2.0000      -0.310837        -8.4583
  15   0.0000       0.019142         0.5209
  16   0.0000       0.062889         1.7113
  17   0.0000       0.142151         3.8681
  18   0.0000       0.161827         4.4035
  19   0.0000       0.181890         4.9495

MULLIKEN ATOMIC CHARGES
-----------------------
   0 C :    0.132728
   1 O :   -0.262408
   2 C :   -0.108678
   3 C :   -0.278174
   4 H :    0.045906
   5 H :    0.159456
   6 H :    0.152475
   7 H :    0.158695
Sum of atomic charges:   -0.0000000

LOEWDIN ATOMIC CHARGES
----------------------
   0 C :    0.110954
   1 O :   -0.163145
   2 C :   -0.177603
   3 C :   -0.186121
   4 H :    0.027253
   5 H :    0.130514
   6 H :    0.126520
   7 H :    0.131629

  Mayer bond orders larger than 0.100000
B(  0-C ,  1-O ) :   1.9909 B(  0-C ,  2-C ) :   0.9019 B(  0-C ,  4-H ) :   0.8526
B(  2-C ,  3-C ) :   1.9320 B(  2-C ,  5-H ) :   0.9347 B(  3-C ,  6-H ) :   0.9506
B(  3-C ,  7-H ) :   0.9453

-----------------------------------------------------------------------------
         ABSORPTION SPECTRUM VIA TRANSITION ELECTRIC DIPOLE MOMENTS
-----------------------------------------------------------------------------
State   Energy    Wavelength  fosc         T2        TX        TY        TZ
        (cm-1)      (nm)                 (au**2)    (au)      (au)      (au)
-----------------------------------------------------------------------------
   1   34916.5    286.4   0.001016445   0.00958  -0.07070   0.03027  -0.06057

FINAL SINGLE POINT ENERGY      -191.536113815916

DIPOLE MOMENT
-------------
                                X             Y             Z
Electronic contribution:     -1.92125      -1.27089      -1.10326
Nuclear contribution   :      2.49679       2.03655       1.29558
                        -----------------------------------------
Total Dipole Moment    :      0.57554       0.76565       0.19231
                        -----------------------------------------
Magnitude (a.u.)       :      0.97696
Magnitude (Debye)      :      2.48325

Rotational constants in cm-1:     0.887266     0.186384     0.163837
Rotational constants in MHz : 26599.579971  5587.648297  4911.699396

                             ****ORCA TERMINATED NORMALLY****
TOTAL RUN TIME: 0 days 0 hours 0 minutes 34 seconds 997 msec
