                         Program Version 5.0.3 -  RELEASE  -
|  1> ! RKS CAM-B3LYP 6-31G
|  2> !TightSCF
|  3> %scf
|  4>  ConvForced true
|  5>  convergence tight
|  6>  MaxIter 500
|  7> end
|  8>
|  9> %tddft
| 10>  nroots 1
| 11> end
| 12>
| 13> # 	32379
| 14> * xyz 0 1
| 15> 		C   -0.567004  -0.441910  -0.035118
| 16> 		O   -0.596592  -1.639894   0.028238
| 17> 		C    0.608637   0.427798   0.019818
| 18> 		C    1.866592  -0.109372   0.000358
| 19> 		H   -1.459783   0.185321  -0.195426
| 20> 		H    0.397311   1.356628   0.182326
| 21> 		H    1.968440  -1.207734  -0.200451
| 22> 		H    2.755913   0.417825  -0.044855
| 23> *
| 24>
| 25>                          ****END OF INPUT****

CARTESIAN COORDINATES (ANGSTROEM)
---------------------------------
  C     -0.567004   -0.441910   -0.035118
  O     -0.596592   -1.639894    0.028238
  C      0.608637    0.427798    0.019818
  C      1.866592   -0.109372    0.000358
  H     -1.459783    0.185321   -0.195426
  H      0.397311    1.356628    0.182326
  H      1.968440   -1.207734   -0.200451
  H      2.755913    0.417825   -0.044855

 Total Charge           Charge          ....    0
 Multiplicity           Mult            ....    1
 Number of Electrons    NEL             ....   30
 Basis Dimension        Dim             ....   44

ORBITAL ENERGIES
----------------

  NO   OCC          E(Eh)            E(eV)
   0   2.0000     -19.225031      -523.1397
   1   2.0000     -10.351495      -281.6785
   2   2.0000     -10.287597      -279.9397
   3   2.0000     -10.269439      -279.4456
   4   2.0000      -1.157417       -31.4949
   5   2.0000      -0.883910       -24.0524
   6   2.0000      -0.751313       -20.4443
   7   2.0000      -0.629145       -17.1199
   8   2.0000      -0.596615       -16.2347
   9   2.0000      -0.518996       -14.1226
  10   2.0000      -0.501946       -13.6586
  11   2.0000      -0.474453       -12.9105
  12   2.0000      -0.457201       -12.4411
  13   2.0000      -0.344228        -9.3669
  14   2.0000      -0.320550        -8.7226
  15   0.0000      -0.021472        -0.5843
  16   0.0000       0.117572         3.1993
  17   0.0000       0.164760         4.4834
  18   0.0000       0.180231         4.9043
  19   0.0000       0.228015         6.2046

MULLIKEN ATOMIC CHARGES
-----------------------
   0 C :    0.164917
   1 O :   -0.360920
   2 C :   -0.096617
   3 C :   -0.246439
   4 H :    0.100132
   5 H :    0.118768
   6 H :    0.171304
   7 H :    0.148854
Sum of atomic charges:   -0.0000000

LOEWDIN ATOMIC CHARGES
----------------------
   0 C :    0.111179
   1 O :   -0.224883
   2 C :   -0.187497
   3 C :   -0.146503
   4 H :    0.069877
   5 H :    0.117366
   6 H :    0.137153
   7 H :    0.123308

  Mayer bond orders larger than 0.100000
B(  0-C ,  1-O ) :   1.9117 B(  0-C ,  2-C ) :   0.9872 B(  0-C ,  4-H ) :   0.8853
B(  2-C ,  3-C ) :   1.8809 B(  2-C ,  5-H ) :   0.9436 B(  3-C ,  6-H ) :   0.9400
B(  3-C ,  7-H ) :   0.9434

-----------------------------------------------------------------------------
         ABSORPTION SPECTRUM VIA TRANSITION ELECTRIC DIPOLE MOMENTS
-----------------------------------------------------------------------------
State   Energy    Wavelength  fosc         T2        TX        TY        TZ
        (cm-1)      (nm)                 (au**2)    (au)      (au)      (au)
-----------------------------------------------------------------------------
   1   29058.7    344.1   0.000081955   0.00093  -0.01930  -0.00072  -0.02357

FINAL SINGLE POINT ENERGY      -191.598276783690

DIPOLE MOMENT
-------------
                                X             Y             Z
Electronic contribution:     -1.78380      -1.45729       0.16632
Nuclear contribution   :      2.27983       2.49312      -0.24281
                        -----------------------------------------
Total Dipole Moment    :      0.49603       1.03583      -0.07649
                        -----------------------------------------
Magnitude (a.u.)       :      1.15102
Magnitude (Debye)      :      2.92565

Rotational constants in cm-1:     0.769426     0.207622     0.163969
Rotational constants in MHz : 23066.803426  6224.337434  4915.669256

                             ****ORCA TERMINATED NORMALLY****
TOTAL RUN TIME: 0 days 0 hours 0 minutes 35 seconds 723 msec
