                         Program Version 5.0.3 -  RELEASE  -
|  1> ! RKS CAM-B3LYP 6-31G
|  2> !TightSCF
|  3> %scf
|  4>  ConvForced true
|  5>  convergence tight
|  6>  MaxIter 500
|  7> end
|  8>
|  9> %tddft
| 10>  nroots 1
| 11> end
| 12>
| 13> # 	12417
| 14> * xyz 0 1
| 15> 		C   -1.265525  -0.371168  -0.042623
| 16> 		O   -2.116487  -0.715200  -0.794152
| 17> 		C   -0.008104   0.372453  -0.320954
| 18> 		C    1.177000   0.106952   0.265805
| 19> 		H   -1.146404  -0.813258   0.872952
| 20> 		H   -0.010012   1.272397  -0.981529
| 21> 		H    1.342060  -0.547088   0.941625
| 22> 		H    2.083617   0.639948   0.115026
| 23> *
| 24>
| 25>                          ****END OF INPUT****

CARTESIAN COORDINATES (ANGSTROEM)
---------------------------------
  C     -1.265525   -0.371168   -0.042623
  O     -2.116487   -0.715200   -0.794152
  C     -0.008104    0.372453   -0.320954
  C      1.177000    0.106952    0.265805
  H     -1.146404   -0.813258    0.872952
  H     -0.010012    1.272397   -0.981529
  H      1.342060   -0.547088    0.941625
  H      2.083617    0.639948    0.115026

 Total Charge           Charge          ....    0
 Multiplicity           Mult            ....    1
 Number of Electrons    NEL             ....   30
 Basis Dimension        Dim             ....   44

ORBITAL ENERGIES
----------------

  NO   OCC          E(Eh)            E(eV)
   0   2.0000     -19.231646      -523.3197
   1   2.0000     -10.353481      -281.7326
   2   2.0000     -10.285802      -279.8909
   3   2.0000     -10.273089      -279.5450
   4   2.0000      -1.171325       -31.8734
   5   2.0000      -0.889582       -24.2068
   6   2.0000      -0.748388       -20.3647
   7   2.0000      -0.665885       -18.1196
   8   2.0000      -0.572246       -15.5716
   9   2.0000      -0.545530       -14.8446
  10   2.0000      -0.503699       -13.7063
  11   2.0000      -0.480583       -13.0773
  12   2.0000      -0.453928       -12.3520
  13   2.0000      -0.350068        -9.5258
  14   2.0000      -0.322817        -8.7843
  15   0.0000      -0.013019        -0.3543
  16   0.0000       0.091013         2.4766
  17   0.0000       0.169772         4.6197
  18   0.0000       0.184574         5.0225
  19   0.0000       0.228179         6.2091

MULLIKEN ATOMIC CHARGES
-----------------------
   0 C :    0.170159
   1 O :   -0.331651
   2 C :   -0.117120
   3 C :   -0.269068
   4 H :    0.103556
   5 H :    0.151472
   6 H :    0.136156
   7 H :    0.156497
Sum of atomic charges:    0.0000000

LOEWDIN ATOMIC CHARGES
----------------------
   0 C :    0.113237
   1 O :   -0.199789
   2 C :   -0.155288
   3 C :   -0.198675
   4 H :    0.072281
   5 H :    0.128869
   6 H :    0.110694
   7 H :    0.128671

  Mayer bond orders larger than 0.100000
B(  0-C ,  1-O ) :   1.9292 B(  0-C ,  2-C ) :   0.9476 B(  0-C ,  4-H ) :   0.9024
B(  2-C ,  3-C ) :   1.9172 B(  2-C ,  5-H ) :   0.9389 B(  3-C ,  6-H ) :   0.9502
B(  3-C ,  7-H ) :   0.9501

-----------------------------------------------------------------------------
         ABSORPTION SPECTRUM VIA TRANSITION ELECTRIC DIPOLE MOMENTS
-----------------------------------------------------------------------------
State   Energy    Wavelength  fosc         T2        TX        TY        TZ
        (cm-1)      (nm)                 (au**2)    (au)      (au)      (au)
-----------------------------------------------------------------------------
   1   30379.9    329.2   0.000330729   0.00358  -0.04613  -0.03331   0.01861

FINAL SINGLE POINT ENERGY      -191.575648123929

DIPOLE MOMENT
-------------
                                X             Y             Z
Electronic contribution:     -3.26422      -0.78057      -1.09300
Nuclear contribution   :      4.29745       1.15148       1.74623
                        -----------------------------------------
Total Dipole Moment    :      1.03323       0.37090       0.65323
                        -----------------------------------------
Magnitude (a.u.)       :      1.27743
Magnitude (Debye)      :      3.24698

Rotational constants in cm-1:     1.575105     0.150541     0.141693
Rotational constants in MHz : 47220.469051  4513.111252  4247.837997

                             ****ORCA TERMINATED NORMALLY****
TOTAL RUN TIME: 0 days 0 hours 0 minutes 34 seconds 479 msec
