                         Program Version 5.0.3 -  RELEASE  -
|  1> ! RKS CAM-B3LYP 6-31G
|  2> !TightSCF
|  3> %scf
|  4>  ConvForced true
|  5>  convergence tight
|  6>  MaxIter 500
|  7> end
|  8>
|  9> %tddft
| 10>  nroots 1
| 11> end
| 12>
| 13> # 	2336
| 14> * xyz 0 1
| 15> 		C   -1.174640  -0.302329  -0.075181
| 16> 		O   -2.073882  -0.536130   0.852973
| 17> 		C    0.052764   0.458012   0.202851
| 18> 		C    1.234500   0.087095  -0.179388
| 19> 		H   -1.167105  -0.835314  -1.021815
| 20> 		H   -0.172267   1.228792   1.017043
| 21> 		H    1.321531  -0.624317  -0.816731
| 22> 		H    1.998419   0.577707   0.010765
| 23> *
| 24>
| 25>                          ****END OF INPUT****

CARTESIAN COORDINATES (ANGSTROEM)
---------------------------------
  C     -1.174640   -0.302329   -0.075181
  O     -2.073882   -0.536130    0.852973
  C      0.052764    0.458012    0.202851
  C      1.234500    0.087095   -0.179388
  H     -1.167105   -0.835314   -1.021815
  H     -0.172267    1.228792    1.017043
  H      1.321531   -0.624317   -0.816731
  H      1.998419    0.577707    0.010765

 Total Charge           Charge          ....    0
 Multiplicity           Mult            ....    1
 Number of Electrons    NEL             ....   30
 Basis Dimension        Dim             ....   44

ORBITAL ENERGIES
----------------

  NO   OCC          E(Eh)            E(eV)
   0   2.0000     -19.231117      -523.3053
   1   2.0000     -10.362780      -281.9856
   2   2.0000     -10.286956      -279.9223
   3   2.0000     -10.260289      -279.1967
   4   2.0000      -1.097463       -29.8635
   5   2.0000      -0.909591       -24.7512
   6   2.0000      -0.758255       -20.6332
   7   2.0000      -0.658732       -17.9250
   8   2.0000      -0.576822       -15.6961
   9   2.0000      -0.561922       -15.2907
  10   2.0000      -0.486192       -13.2300
  11   2.0000      -0.460200       -12.5227
  12   2.0000      -0.437798       -11.9131
  13   2.0000      -0.356278        -9.6948
  14   2.0000      -0.326128        -8.8744
  15   0.0000      -0.027404        -0.7457
  16   0.0000       0.085964         2.3392
  17   0.0000       0.163970         4.4618
  18   0.0000       0.180311         4.9065
  19   0.0000       0.214171         5.8279

MULLIKEN ATOMIC CHARGES
-----------------------
   0 C :    0.175304
   1 O :   -0.409729
   2 C :   -0.108865
   3 C :   -0.229957
   4 H :    0.132466
   5 H :    0.165621
   6 H :    0.135958
   7 H :    0.139203
Sum of atomic charges:    0.0000000

LOEWDIN ATOMIC CHARGES
----------------------
   0 C :    0.126280
   1 O :   -0.273748
   2 C :   -0.137159
   3 C :   -0.186470
   4 H :    0.095445
   5 H :    0.134322
   6 H :    0.119214
   7 H :    0.122116

  Mayer bond orders larger than 0.100000
B(  0-C ,  1-O ) :   1.8428 B(  0-C ,  2-C ) :   0.9868 B(  0-C ,  4-H ) :   0.8955
B(  2-C ,  3-C ) :   1.9267 B(  2-C ,  5-H ) :   0.9281 B(  3-C ,  6-H ) :   0.9528
B(  3-C ,  7-H ) :   0.9506

-----------------------------------------------------------------------------
         ABSORPTION SPECTRUM VIA TRANSITION ELECTRIC DIPOLE MOMENTS
-----------------------------------------------------------------------------
State   Energy    Wavelength  fosc         T2        TX        TY        TZ
        (cm-1)      (nm)                 (au**2)    (au)      (au)      (au)
-----------------------------------------------------------------------------
   1   26457.6    378.0   0.000512319   0.00637  -0.07576   0.01197   0.02216

FINAL SINGLE POINT ENERGY      -191.575886111069

DIPOLE MOMENT
-------------
                                X             Y             Z
Electronic contribution:     -2.69091      -0.41210       0.80798
Nuclear contribution   :      3.83209       0.67445      -1.56840
                        -----------------------------------------
Total Dipole Moment    :      1.14119       0.26235      -0.76041
                        -----------------------------------------
Magnitude (a.u.)       :      1.39620
Magnitude (Debye)      :      3.54885

Rotational constants in cm-1:     1.366674     0.154590     0.145818
Rotational constants in MHz : 40971.845364  4634.476811  4371.502435

                             ****ORCA TERMINATED NORMALLY****
TOTAL RUN TIME: 0 days 0 hours 0 minutes 38 seconds 442 msec
