                         Program Version 5.0.3 -  RELEASE  -
|  1> ! RKS CAM-B3LYP 6-31G
|  2> !TightSCF
|  3> %scf
|  4>  ConvForced true
|  5>  convergence tight
|  6>  MaxIter 500
|  7> end
|  8>
|  9> %tddft
| 10>  nroots 1
| 11> end
| 12>
| 13> # 	30219
| 14> * xyz 0 1
| 15> 		C   -0.596056  -0.422060  -0.087445
| 16> 		O   -0.530870  -1.598058   0.042263
| 17> 		C    0.607269   0.419466   0.117790
| 18> 		C    1.792673  -0.170523  -0.040644
| 19> 		H   -1.455201  -0.068242  -0.256651
| 20> 		H    0.605232   1.726434  -0.048648
| 21> 		H    1.916044  -1.220434  -0.146732
| 22> 		H    2.839121   0.239553  -0.096296
| 23> *
| 24>
| 25>                          ****END OF INPUT****

CARTESIAN COORDINATES (ANGSTROEM)
---------------------------------
  C     -0.596056   -0.422060   -0.087445
  O     -0.530870   -1.598058    0.042263
  C      0.607269    0.419466    0.117790
  C      1.792673   -0.170523   -0.040644
  H     -1.455201   -0.068242   -0.256651
  H      0.605232    1.726434   -0.048648
  H      1.916044   -1.220434   -0.146732
  H      2.839121    0.239553   -0.096296

 Total Charge           Charge          ....    0
 Multiplicity           Mult            ....    1
 Number of Electrons    NEL             ....   30
 Basis Dimension        Dim             ....   44

ORBITAL ENERGIES
----------------

  NO   OCC          E(Eh)            E(eV)
   0   2.0000     -19.219635      -522.9929
   1   2.0000     -10.343160      -281.4517
   2   2.0000     -10.296162      -280.1728
   3   2.0000     -10.281591      -279.7763
   4   2.0000      -1.171294       -31.8725
   5   2.0000      -0.875280       -23.8176
   6   2.0000      -0.743376       -20.2283
   7   2.0000      -0.651084       -17.7169
   8   2.0000      -0.577035       -15.7019
   9   2.0000      -0.514922       -14.0117
  10   2.0000      -0.496753       -13.5173
  11   2.0000      -0.479916       -13.0592
  12   2.0000      -0.419573       -11.4172
  13   2.0000      -0.345890        -9.4122
  14   2.0000      -0.324111        -8.8195
  15   0.0000      -0.012000        -0.3265
  16   0.0000       0.105523         2.8714
  17   0.0000       0.120860         3.2888
  18   0.0000       0.183899         5.0041
  19   0.0000       0.210846         5.7374

MULLIKEN ATOMIC CHARGES
-----------------------
   0 C :    0.176157
   1 O :   -0.348129
   2 C :   -0.114406
   3 C :   -0.275507
   4 H :    0.107080
   5 H :    0.121199
   6 H :    0.178042
   7 H :    0.155565
Sum of atomic charges:   -0.0000000

LOEWDIN ATOMIC CHARGES
----------------------
   0 C :    0.110645
   1 O :   -0.224362
   2 C :   -0.165189
   3 C :   -0.174148
   4 H :    0.083661
   5 H :    0.113290
   6 H :    0.130328
   7 H :    0.125776

  Mayer bond orders larger than 0.100000
B(  0-C ,  1-O ) :   1.9153 B(  0-C ,  2-C ) :   0.9580 B(  0-C ,  4-H ) :   0.9232
B(  2-C ,  3-C ) :   1.8764 B(  2-C ,  5-H ) :   0.9329 B(  3-C ,  6-H ) :   0.9311
B(  3-C ,  7-H ) :   0.9422

-----------------------------------------------------------------------------
         ABSORPTION SPECTRUM VIA TRANSITION ELECTRIC DIPOLE MOMENTS
-----------------------------------------------------------------------------
State   Energy    Wavelength  fosc         T2        TX        TY        TZ
        (cm-1)      (nm)                 (au**2)    (au)      (au)      (au)
-----------------------------------------------------------------------------
   1   30676.4    326.0   0.000350285   0.00376   0.04552   0.03981  -0.01009

FINAL SINGLE POINT ENERGY      -191.549633213976

DIPOLE MOMENT
-------------
                                X             Y             Z
Electronic contribution:     -2.19103      -1.54030       0.27947
Nuclear contribution   :      2.50615       2.42377      -0.51379
                        -----------------------------------------
Total Dipole Moment    :      0.31513       0.88347      -0.23432
                        -----------------------------------------
Magnitude (a.u.)       :      0.96682
Magnitude (Debye)      :      2.45745

Rotational constants in cm-1:     0.737176     0.222049     0.172063
Rotational constants in MHz : 22099.975961  6656.870415  5158.308393

                             ****ORCA TERMINATED NORMALLY****
TOTAL RUN TIME: 0 days 0 hours 0 minutes 36 seconds 109 msec
