                         Program Version 5.0.3 -  RELEASE  -
|  1> ! RKS CAM-B3LYP 6-31G
|  2> !TightSCF
|  3> %scf
|  4>  ConvForced true
|  5>  convergence tight
|  6>  MaxIter 500
|  7> end
|  8>
|  9> %tddft
| 10>  nroots 1
| 11> end
| 12>
| 13> # 	28675
| 14> * xyz 0 1
| 15> 		C   -0.580531  -0.453883  -0.047667
| 16> 		O   -0.518158  -1.592419   0.026350
| 17> 		C    0.635061   0.462713   0.042605
| 18> 		C    1.772954  -0.175977  -0.032617
| 19> 		H   -1.638092   0.002862  -0.136352
| 20> 		H    0.583895   1.662396   0.156809
| 21> 		H    1.652784  -1.412534   0.036808
| 22> 		H    2.828439   0.239609  -0.018693
| 23> *
| 24>
| 25>                          ****END OF INPUT****

CARTESIAN COORDINATES (ANGSTROEM)
---------------------------------
  C     -0.580531   -0.453883   -0.047667
  O     -0.518158   -1.592419    0.026350
  C      0.635061    0.462713    0.042605
  C      1.772954   -0.175977   -0.032617
  H     -1.638092    0.002862   -0.136352
  H      0.583895    1.662396    0.156809
  H      1.652784   -1.412534    0.036808
  H      2.828439    0.239609   -0.018693

 Total Charge           Charge          ....    0
 Multiplicity           Mult            ....    1
 Number of Electrons    NEL             ....   30
 Basis Dimension        Dim             ....   44

ORBITAL ENERGIES
----------------

  NO   OCC          E(Eh)            E(eV)
   0   2.0000     -19.231618      -523.3189
   1   2.0000     -10.364374      -282.0289
   2   2.0000     -10.287151      -279.9276
   3   2.0000     -10.284458      -279.8543
   4   2.0000      -1.206170       -32.8216
   5   2.0000      -0.877553       -23.8794
   6   2.0000      -0.707078       -19.2406
   7   2.0000      -0.609527       -16.5861
   8   2.0000      -0.578675       -15.7466
   9   2.0000      -0.521449       -14.1893
  10   2.0000      -0.505057       -13.7433
  11   2.0000      -0.495700       -13.4887
  12   2.0000      -0.417106       -11.3500
  13   2.0000      -0.350105        -9.5268
  14   2.0000      -0.324122        -8.8198
  15   0.0000       0.000354         0.0096
  16   0.0000       0.118729         3.2308
  17   0.0000       0.137520         3.7421
  18   0.0000       0.160706         4.3730
  19   0.0000       0.180060         4.8997

MULLIKEN ATOMIC CHARGES
-----------------------
   0 C :    0.149771
   1 O :   -0.306864
   2 C :   -0.128855
   3 C :   -0.299825
   4 H :    0.103348
   5 H :    0.153711
   6 H :    0.175570
   7 H :    0.153145
Sum of atomic charges:   -0.0000000

LOEWDIN ATOMIC CHARGES
----------------------
   0 C :    0.108907
   1 O :   -0.192013
   2 C :   -0.200511
   3 C :   -0.182453
   4 H :    0.070021
   5 H :    0.128185
   6 H :    0.140401
   7 H :    0.127464

  Mayer bond orders larger than 0.100000
B(  0-C ,  1-O ) :   1.9315 B(  0-C ,  2-C ) :   0.9144 B(  0-C ,  4-H ) :   0.8808
B(  2-C ,  3-C ) :   1.8760 B(  2-C ,  5-H ) :   0.9319 B(  3-C ,  6-H ) :   0.9213
B(  3-C ,  7-H ) :   0.9417

-----------------------------------------------------------------------------
         ABSORPTION SPECTRUM VIA TRANSITION ELECTRIC DIPOLE MOMENTS
-----------------------------------------------------------------------------
State   Energy    Wavelength  fosc         T2        TX        TY        TZ
        (cm-1)      (nm)                 (au**2)    (au)      (au)      (au)
-----------------------------------------------------------------------------
   1   33830.1    295.6   0.000377898   0.00368  -0.03259  -0.00044   0.05114

FINAL SINGLE POINT ENERGY      -191.552489424696

DIPOLE MOMENT
-------------
                                X             Y             Z
Electronic contribution:     -1.77871      -1.40097      -0.03907
Nuclear contribution   :      2.05741       2.25196       0.03605
                        -----------------------------------------
Total Dipole Moment    :      0.27870       0.85100      -0.00303
                        -----------------------------------------
Magnitude (a.u.)       :      0.89548
Magnitude (Debye)      :      2.27612

Rotational constants in cm-1:     0.740274     0.225071     0.173013
Rotational constants in MHz : 22192.861377  6747.459442  5186.809947

                             ****ORCA TERMINATED NORMALLY****
TOTAL RUN TIME: 0 days 0 hours 0 minutes 36 seconds 428 msec
