                         Program Version 5.0.3 -  RELEASE  -
|  1> ! RKS CAM-B3LYP 6-31G
|  2> !TightSCF
|  3> %scf
|  4>  ConvForced true
|  5>  convergence tight
|  6>  MaxIter 500
|  7> end
|  8>
|  9> %tddft
| 10>  nroots 1
| 11> end
| 12>
| 13> # 	26207
| 14> * xyz 0 1
| 15> 		C   -0.613704  -0.473539   0.000386
| 16> 		O   -0.551583  -1.619021   0.016544
| 17> 		C    0.647839   0.457178  -0.006660
| 18> 		C    1.841946  -0.155887   0.019933
| 19> 		H   -1.658898   0.120767  -0.220910
| 20> 		H    0.463418   1.699371   0.118983
| 21> 		H    1.871136  -1.363635  -0.311186
| 22> 		H    2.716467   0.552515   0.000856
| 23> *
| 24>
| 25>                          ****END OF INPUT****

CARTESIAN COORDINATES (ANGSTROEM)
---------------------------------
  C     -0.613704   -0.473539    0.000386
  O     -0.551583   -1.619021    0.016544
  C      0.647839    0.457178   -0.006660
  C      1.841946   -0.155887    0.019933
  H     -1.658898    0.120767   -0.220910
  H      0.463418    1.699371    0.118983
  H      1.871136   -1.363635   -0.311186
  H      2.716467    0.552515    0.000856

 Total Charge           Charge          ....    0
 Multiplicity           Mult            ....    1
 Number of Electrons    NEL             ....   30
 Basis Dimension        Dim             ....   44

ORBITAL ENERGIES
----------------

  NO   OCC          E(Eh)            E(eV)
   0   2.0000     -19.239188      -523.5249
   1   2.0000     -10.372892      -282.2607
   2   2.0000     -10.296337      -280.1776
   3   2.0000     -10.295584      -280.1571
   4   2.0000      -1.204918       -32.7875
   5   2.0000      -0.866986       -23.5919
   6   2.0000      -0.704618       -19.1736
   7   2.0000      -0.596296       -16.2260
   8   2.0000      -0.567616       -15.4456
   9   2.0000      -0.521631       -14.1943
  10   2.0000      -0.499531       -13.5929
  11   2.0000      -0.487987       -13.2788
  12   2.0000      -0.432964       -11.7815
  13   2.0000      -0.347632        -9.4595
  14   2.0000      -0.320368        -8.7176
  15   0.0000      -0.007644        -0.2080
  16   0.0000       0.109222         2.9721
  17   0.0000       0.116212         3.1623
  18   0.0000       0.144538         3.9331
  19   0.0000       0.167312         4.5528

MULLIKEN ATOMIC CHARGES
-----------------------
   0 C :    0.177623
   1 O :   -0.309771
   2 C :   -0.140346
   3 C :   -0.281789
   4 H :    0.085735
   5 H :    0.141163
   6 H :    0.179664
   7 H :    0.147722
Sum of atomic charges:   -0.0000000

LOEWDIN ATOMIC CHARGES
----------------------
   0 C :    0.109720
   1 O :   -0.183365
   2 C :   -0.196091
   3 C :   -0.190330
   4 H :    0.056747
   5 H :    0.121120
   6 H :    0.150961
   7 H :    0.131238

  Mayer bond orders larger than 0.100000
B(  0-C ,  1-O ) :   1.9361 B(  0-C ,  2-C ) :   0.9070 B(  0-C ,  4-H ) :   0.8592
B(  2-C ,  3-C ) :   1.8742 B(  2-C ,  5-H ) :   0.9298 B(  3-C ,  6-H ) :   0.9280
B(  3-C ,  7-H ) :   0.9457

-----------------------------------------------------------------------------
         ABSORPTION SPECTRUM VIA TRANSITION ELECTRIC DIPOLE MOMENTS
-----------------------------------------------------------------------------
State   Energy    Wavelength  fosc         T2        TX        TY        TZ
        (cm-1)      (nm)                 (au**2)    (au)      (au)      (au)
-----------------------------------------------------------------------------
   1   32229.5    310.3   0.001238751   0.01265   0.09859  -0.00706   0.05369

FINAL SINGLE POINT ENERGY      -191.545238284768

DIPOLE MOMENT
-------------
                                X             Y             Z
Electronic contribution:     -1.71634      -1.87609       0.29368
Nuclear contribution   :      2.02325       2.73403      -0.38741
                        -----------------------------------------
Total Dipole Moment    :      0.30691       0.85794      -0.09373
                        -----------------------------------------
Magnitude (a.u.)       :      0.91599
Magnitude (Debye)      :      2.32826

Rotational constants in cm-1:     0.716634     0.209915     0.162893
Rotational constants in MHz : 21484.137968  6293.101094  4883.395942

                             ****ORCA TERMINATED NORMALLY****
TOTAL RUN TIME: 0 days 0 hours 0 minutes 34 seconds 432 msec
