                         Program Version 5.0.3 -  RELEASE  -
|  1> ! RKS CAM-B3LYP 6-31G
|  2> !TightSCF
|  3> %scf
|  4>  ConvForced true
|  5>  convergence tight
|  6>  MaxIter 500
|  7> end
|  8>
|  9> %tddft
| 10>  nroots 1
| 11> end
| 12>
| 13> # 	17180
| 14> * xyz 0 1
| 15> 		C   -1.252479  -0.329207   0.022992
| 16> 		O   -1.236461  -1.532960   0.024384
| 17> 		C   -0.006439   0.504137  -0.005862
| 18> 		C    1.160425  -0.035395   0.051642
| 19> 		H   -2.186959   0.191563   0.076113
| 20> 		H   -0.140092   1.665504  -0.034942
| 21> 		H    1.496895  -1.036692  -0.045430
| 22> 		H    2.107260   0.501039  -0.087985
| 23> *
| 24>
| 25>                          ****END OF INPUT****

CARTESIAN COORDINATES (ANGSTROEM)
---------------------------------
  C     -1.252479   -0.329207    0.022992
  O     -1.236461   -1.532960    0.024384
  C     -0.006439    0.504137   -0.005862
  C      1.160425   -0.035395    0.051642
  H     -2.186959    0.191563    0.076113
  H     -0.140092    1.665504   -0.034942
  H      1.496895   -1.036692   -0.045430
  H      2.107260    0.501039   -0.087985

 Total Charge           Charge          ....    0
 Multiplicity           Mult            ....    1
 Number of Electrons    NEL             ....   30
 Basis Dimension        Dim             ....   44

ORBITAL ENERGIES
----------------

  NO   OCC          E(Eh)            E(eV)
   0   2.0000     -19.225259      -523.1459
   1   2.0000     -10.354187      -281.7518
   2   2.0000     -10.283461      -279.8272
   3   2.0000     -10.273223      -279.5486
   4   2.0000      -1.157862       -31.5070
   5   2.0000      -0.885395       -24.0928
   6   2.0000      -0.738562       -20.0973
   7   2.0000      -0.636133       -17.3101
   8   2.0000      -0.581195       -15.8151
   9   2.0000      -0.527933       -14.3658
  10   2.0000      -0.495672       -13.4879
  11   2.0000      -0.475711       -12.9447
  12   2.0000      -0.428814       -11.6686
  13   2.0000      -0.355148        -9.6641
  14   2.0000      -0.322060        -8.7637
  15   0.0000      -0.012496        -0.3400
  16   0.0000       0.124136         3.3779
  17   0.0000       0.137378         3.7383
  18   0.0000       0.186697         5.0803
  19   0.0000       0.205752         5.5988

MULLIKEN ATOMIC CHARGES
-----------------------
   0 C :    0.177645
   1 O :   -0.357013
   2 C :   -0.128671
   3 C :   -0.273546
   4 H :    0.114029
   5 H :    0.146426
   6 H :    0.178424
   7 H :    0.142706
Sum of atomic charges:    0.0000000

LOEWDIN ATOMIC CHARGES
----------------------
   0 C :    0.115631
   1 O :   -0.226822
   2 C :   -0.172253
   3 C :   -0.176337
   4 H :    0.081298
   5 H :    0.124031
   6 H :    0.134326
   7 H :    0.120127

  Mayer bond orders larger than 0.100000
B(  0-C ,  1-O ) :   1.9196 B(  0-C ,  2-C ) :   0.9580 B(  0-C ,  4-H ) :   0.8926
B(  2-C ,  3-C ) :   1.9205 B(  2-C ,  5-H ) :   0.9327 B(  3-C ,  6-H ) :   0.9344
B(  3-C ,  7-H ) :   0.9433

-----------------------------------------------------------------------------
         ABSORPTION SPECTRUM VIA TRANSITION ELECTRIC DIPOLE MOMENTS
-----------------------------------------------------------------------------
State   Energy    Wavelength  fosc         T2        TX        TY        TZ
        (cm-1)      (nm)                 (au**2)    (au)      (au)      (au)
-----------------------------------------------------------------------------
   1   29824.4    335.3   0.000051088   0.00056   0.00767   0.00065   0.02246

FINAL SINGLE POINT ENERGY      -191.597193889105

DIPOLE MOMENT
-------------
                                X             Y             Z
Electronic contribution:     -2.11054      -1.67598       0.10272
Nuclear contribution   :      2.50221       2.66305      -0.16166
                        -----------------------------------------
Total Dipole Moment    :      0.39167       0.98707      -0.05894
                        -----------------------------------------
Magnitude (a.u.)       :      1.06357
Magnitude (Debye)      :      2.70338

Rotational constants in cm-1:     0.770033     0.210164     0.165230
Rotational constants in MHz : 23085.015091  6300.568100  4953.458812

                             ****ORCA TERMINATED NORMALLY****
TOTAL RUN TIME: 0 days 0 hours 0 minutes 33 seconds 711 msec
