                         Program Version 5.0.3 -  RELEASE  -
|  1> ! RKS CAM-B3LYP 6-31G
|  2> !TightSCF
|  3> %scf
|  4>  ConvForced true
|  5>  convergence tight
|  6>  MaxIter 500
|  7> end
|  8>
|  9> %tddft
| 10>  nroots 1
| 11> end
| 12>
| 13> # 	29244
| 14> * xyz 0 1
| 15> 		C   -0.624917  -0.469500  -0.070245
| 16> 		O   -0.644880  -1.658286   0.030051
| 17> 		C    0.661812   0.369664   0.082294
| 18> 		C    1.923128  -0.057515  -0.045020
| 19> 		H   -1.561840   0.081261   0.000356
| 20> 		H    0.534358   1.547901  -0.153895
| 21> 		H    2.181447  -1.002244  -0.101093
| 22> 		H    2.717048   0.821451   0.175662
| 23> *
| 24>
| 25>                          ****END OF INPUT****

CARTESIAN COORDINATES (ANGSTROEM)
---------------------------------
  C     -0.624917   -0.469500   -0.070245
  O     -0.644880   -1.658286    0.030051
  C      0.661812    0.369664    0.082294
  C      1.923128   -0.057515   -0.045020
  H     -1.561840    0.081261    0.000356
  H      0.534358    1.547901   -0.153895
  H      2.181447   -1.002244   -0.101093
  H      2.717048    0.821451    0.175662

 Total Charge           Charge          ....    0
 Multiplicity           Mult            ....    1
 Number of Electrons    NEL             ....   30
 Basis Dimension        Dim             ....   44

ORBITAL ENERGIES
----------------

  NO   OCC          E(Eh)            E(eV)
   0   2.0000     -19.230829      -523.2975
   1   2.0000     -10.361741      -281.9573
   2   2.0000     -10.291209      -280.0380
   3   2.0000     -10.285355      -279.8787
   4   2.0000      -1.168456       -31.7953
   5   2.0000      -0.875076       -23.8120
   6   2.0000      -0.730862       -19.8878
   7   2.0000      -0.627344       -17.0709
   8   2.0000      -0.584250       -15.8982
   9   2.0000      -0.518058       -14.0971
  10   2.0000      -0.487853       -13.2751
  11   2.0000      -0.480765       -13.0823
  12   2.0000      -0.441184       -12.0052
  13   2.0000      -0.348742        -9.4898
  14   2.0000      -0.321239        -8.7414
  15   0.0000      -0.018891        -0.5141
  16   0.0000       0.098625         2.6837
  17   0.0000       0.126475         3.4416
  18   0.0000       0.183437         4.9916
  19   0.0000       0.197549         5.3756

MULLIKEN ATOMIC CHARGES
-----------------------
   0 C :    0.178320
   1 O :   -0.344639
   2 C :   -0.131485
   3 C :   -0.243433
   4 H :    0.116053
   5 H :    0.122674
   6 H :    0.155707
   7 H :    0.146802
Sum of atomic charges:   -0.0000000

LOEWDIN ATOMIC CHARGES
----------------------
   0 C :    0.110846
   1 O :   -0.216713
   2 C :   -0.179877
   3 C :   -0.170317
   4 H :    0.082143
   5 H :    0.115092
   6 H :    0.125465
   7 H :    0.133360

  Mayer bond orders larger than 0.100000
B(  0-C ,  1-O ) :   1.9088 B(  0-C ,  2-C ) :   0.9349 B(  0-C ,  4-H ) :   0.8893
B(  2-C ,  3-C ) :   1.8881 B(  2-C ,  5-H ) :   0.9386 B(  3-C ,  6-H ) :   0.9493
B(  3-C ,  7-H ) :   0.9515

-----------------------------------------------------------------------------
         ABSORPTION SPECTRUM VIA TRANSITION ELECTRIC DIPOLE MOMENTS
-----------------------------------------------------------------------------
State   Energy    Wavelength  fosc         T2        TX        TY        TZ
        (cm-1)      (nm)                 (au**2)    (au)      (au)      (au)
-----------------------------------------------------------------------------
   1   29288.0    341.4   0.002005277   0.02254  -0.14009  -0.03802   0.03833

FINAL SINGLE POINT ENERGY      -191.574704229089

DIPOLE MOMENT
-------------
                                X             Y             Z
Electronic contribution:     -2.09927      -2.19413      -0.02361
Nuclear contribution   :      2.47126       3.14607      -0.07399
                        -----------------------------------------
Total Dipole Moment    :      0.37200       0.95194      -0.09760
                        -----------------------------------------
Magnitude (a.u.)       :      1.02669
Magnitude (Debye)      :      2.60964

Rotational constants in cm-1:     0.824849     0.186674     0.152899
Rotational constants in MHz : 24728.341881  5596.335580  4583.802476

                             ****ORCA TERMINATED NORMALLY****
TOTAL RUN TIME: 0 days 0 hours 0 minutes 35 seconds 711 msec
