                         Program Version 5.0.3 -  RELEASE  -
|  1> ! RKS CAM-B3LYP 6-31G
|  2> !TightSCF
|  3> %scf
|  4>  ConvForced true
|  5>  convergence tight
|  6>  MaxIter 500
|  7> end
|  8>
|  9> %tddft
| 10>  nroots 1
| 11> end
| 12>
| 13> # 	18848
| 14> * xyz 0 1
| 15> 		C   -1.152665  -0.358985  -0.004015
| 16> 		O   -1.435913  -1.457754  -0.488123
| 17> 		C    0.058060   0.412996  -0.111714
| 18> 		C    1.233515   0.038210   0.108910
| 19> 		H   -1.992200   0.252651   0.565732
| 20> 		H   -0.110598   1.518802  -0.398898
| 21> 		H    1.339473  -1.091895   0.350331
| 22> 		H    2.069151   0.705269  -0.020771
| 23> *
| 24>
| 25>                          ****END OF INPUT****

CARTESIAN COORDINATES (ANGSTROEM)
---------------------------------
  C     -1.152665   -0.358985   -0.004015
  O     -1.435913   -1.457754   -0.488123
  C      0.058060    0.412996   -0.111714
  C      1.233515    0.038210    0.108910
  H     -1.992200    0.252651    0.565732
  H     -0.110598    1.518802   -0.398898
  H      1.339473   -1.091895    0.350331
  H      2.069151    0.705269   -0.020771

 Total Charge           Charge          ....    0
 Multiplicity           Mult            ....    1
 Number of Electrons    NEL             ....   30
 Basis Dimension        Dim             ....   44

ORBITAL ENERGIES
----------------

  NO   OCC          E(Eh)            E(eV)
   0   2.0000     -19.234288      -523.3916
   1   2.0000     -10.366936      -282.0987
   2   2.0000     -10.280467      -279.7457
   3   2.0000     -10.278376      -279.6888
   4   2.0000      -1.144315       -31.1384
   5   2.0000      -0.908708       -24.7272
   6   2.0000      -0.746938       -20.3252
   7   2.0000      -0.603520       -16.4226
   8   2.0000      -0.591814       -16.1041
   9   2.0000      -0.527703       -14.3595
  10   2.0000      -0.510707       -13.8970
  11   2.0000      -0.462171       -12.5763
  12   2.0000      -0.431528       -11.7425
  13   2.0000      -0.366505        -9.9731
  14   2.0000      -0.324428        -8.8281
  15   0.0000      -0.006378        -0.1736
  16   0.0000       0.090421         2.4605
  17   0.0000       0.140110         3.8126
  18   0.0000       0.159905         4.3512
  19   0.0000       0.184521         5.0211

MULLIKEN ATOMIC CHARGES
-----------------------
   0 C :    0.162327
   1 O :   -0.363443
   2 C :   -0.098669
   3 C :   -0.275599
   4 H :    0.101887
   5 H :    0.159578
   6 H :    0.161229
   7 H :    0.152689
Sum of atomic charges:   -0.0000000

LOEWDIN ATOMIC CHARGES
----------------------
   0 C :    0.124759
   1 O :   -0.231599
   2 C :   -0.182607
   3 C :   -0.178069
   4 H :    0.073216
   5 H :    0.129249
   6 H :    0.132900
   7 H :    0.132152

  Mayer bond orders larger than 0.100000
B(  0-C ,  1-O ) :   1.9240 B(  0-C ,  2-C ) :   0.9454 B(  0-C ,  4-H ) :   0.8798
B(  2-C ,  3-C ) :   1.9247 B(  2-C ,  5-H ) :   0.9238 B(  3-C ,  6-H ) :   0.9534
B(  3-C ,  7-H ) :   0.9468

-----------------------------------------------------------------------------
         ABSORPTION SPECTRUM VIA TRANSITION ELECTRIC DIPOLE MOMENTS
-----------------------------------------------------------------------------
State   Energy    Wavelength  fosc         T2        TX        TY        TZ
        (cm-1)      (nm)                 (au**2)    (au)      (au)      (au)
-----------------------------------------------------------------------------
   1   30414.6    328.8   0.000914911   0.00990  -0.09355   0.00062  -0.03392

FINAL SINGLE POINT ENERGY      -191.585160121549

DIPOLE MOMENT
-------------
                                X             Y             Z
Electronic contribution:     -1.93287      -1.68961      -0.61949
Nuclear contribution   :      2.54708       2.67669       0.95516
                        -----------------------------------------
Total Dipole Moment    :      0.61421       0.98708       0.33567
                        -----------------------------------------
Magnitude (a.u.)       :      1.21006
Magnitude (Debye)      :      3.07573

Rotational constants in cm-1:     0.930394     0.183649     0.158950
Rotational constants in MHz : 27892.509089  5505.657914  4765.192463

                             ****ORCA TERMINATED NORMALLY****
TOTAL RUN TIME: 0 days 0 hours 0 minutes 35 seconds 509 msec
