                         Program Version 5.0.3 -  RELEASE  -
|  1> ! RKS CAM-B3LYP 6-31G
|  2> !TightSCF
|  3> %scf
|  4>  ConvForced true
|  5>  convergence tight
|  6>  MaxIter 500
|  7> end
|  8>
|  9> %tddft
| 10>  nroots 1
| 11> end
| 12>
| 13> # 	9869
| 14> * xyz 0 1
| 15> 		C   -1.157890  -0.259707  -0.024791
| 16> 		O   -1.579290  -1.091739  -0.789777
| 17> 		C    0.017011   0.564827  -0.162816
| 18> 		C    1.213099   0.033313   0.231750
| 19> 		H   -1.678883  -0.265666   0.897425
| 20> 		H   -0.121945   1.483610  -0.768241
| 21> 		H    1.240364  -0.981603   0.624508
| 22> 		H    2.055163   0.484798  -0.034571
| 23> *
| 24>
| 25>                          ****END OF INPUT****

CARTESIAN COORDINATES (ANGSTROEM)
---------------------------------
  C     -1.157890   -0.259707   -0.024791
  O     -1.579290   -1.091739   -0.789777
  C      0.017011    0.564827   -0.162816
  C      1.213099    0.033313    0.231750
  H     -1.678883   -0.265666    0.897425
  H     -0.121945    1.483610   -0.768241
  H      1.240364   -0.981603    0.624508
  H      2.055163    0.484798   -0.034571

 Total Charge           Charge          ....    0
 Multiplicity           Mult            ....    1
 Number of Electrons    NEL             ....   30
 Basis Dimension        Dim             ....   44

ORBITAL ENERGIES
----------------

  NO   OCC          E(Eh)            E(eV)
   0   2.0000     -19.224993      -523.1386
   1   2.0000     -10.349766      -281.6315
   2   2.0000     -10.286603      -279.9127
   3   2.0000     -10.275736      -279.6170
   4   2.0000      -1.157749       -31.5040
   5   2.0000      -0.887953       -24.1624
   6   2.0000      -0.743369       -20.2281
   7   2.0000      -0.644981       -17.5508
   8   2.0000      -0.580840       -15.8055
   9   2.0000      -0.540381       -14.7045
  10   2.0000      -0.506672       -13.7872
  11   2.0000      -0.473359       -12.8808
  12   2.0000      -0.443086       -12.0570
  13   2.0000      -0.344413        -9.3719
  14   2.0000      -0.317927        -8.6512
  15   0.0000       0.021261         0.5785
  16   0.0000       0.033732         0.9179
  17   0.0000       0.169536         4.6133
  18   0.0000       0.182205         4.9581
  19   0.0000       0.205225         5.5844

MULLIKEN ATOMIC CHARGES
-----------------------
   0 C :    0.126059
   1 O :   -0.338789
   2 C :   -0.127313
   3 C :   -0.256908
   4 H :    0.120441
   5 H :    0.177256
   6 H :    0.157180
   7 H :    0.142075
Sum of atomic charges:    0.0000000

LOEWDIN ATOMIC CHARGES
----------------------
   0 C :    0.107424
   1 O :   -0.224829
   2 C :   -0.160721
   3 C :   -0.196480
   4 H :    0.082137
   5 H :    0.141819
   6 H :    0.129503
   7 H :    0.121148

  Mayer bond orders larger than 0.100000
B(  0-C ,  1-O ) :   1.9571 B(  0-C ,  2-C ) :   0.9176 B(  0-C ,  4-H ) :   0.9064
B(  2-C ,  3-C ) :   1.9551 B(  2-C ,  5-H ) :   0.9269 B(  3-C ,  6-H ) :   0.9511
B(  3-C ,  7-H ) :   0.9549

-----------------------------------------------------------------------------
         ABSORPTION SPECTRUM VIA TRANSITION ELECTRIC DIPOLE MOMENTS
-----------------------------------------------------------------------------
State   Energy    Wavelength  fosc         T2        TX        TY        TZ
        (cm-1)      (nm)                 (au**2)    (au)      (au)      (au)
-----------------------------------------------------------------------------
   1   32289.2    309.7   0.000072552   0.00074  -0.01501   0.00521  -0.02208

FINAL SINGLE POINT ENERGY      -191.572656434602

DIPOLE MOMENT
-------------
                                X             Y             Z
Electronic contribution:     -2.30449      -0.80125      -0.92960
Nuclear contribution   :      2.91734       1.51216       1.42776
                        -----------------------------------------
Total Dipole Moment    :      0.61285       0.71091       0.49815
                        -----------------------------------------
Magnitude (a.u.)       :      1.06261
Magnitude (Debye)      :      2.70094

Rotational constants in cm-1:     0.938661     0.177058     0.164573
Rotational constants in MHz : 28140.335240  5308.068011  4933.781995

                             ****ORCA TERMINATED NORMALLY****
TOTAL RUN TIME: 0 days 0 hours 0 minutes 34 seconds 333 msec
