                         Program Version 5.0.3 -  RELEASE  -
|  1> ! RKS CAM-B3LYP 6-31G
|  2> !TightSCF
|  3> %scf
|  4>  ConvForced true
|  5>  convergence tight
|  6>  MaxIter 500
|  7> end
|  8>
|  9> %tddft
| 10>  nroots 1
| 11> end
| 12>
| 13> # 	26857
| 14> * xyz 0 1
| 15> 		C   -0.550690  -0.390326   0.027260
| 16> 		O   -0.514745  -1.582529  -0.006480
| 17> 		C    0.602324   0.421908  -0.060787
| 18> 		C    1.782050  -0.220849   0.046527
| 19> 		H   -1.543395   0.105252   0.121467
| 20> 		H    0.321947   1.479250  -0.009514
| 21> 		H    1.759739  -1.444133  -0.271117
| 22> 		H    2.727794   0.498648   0.114707
| 23> *
| 24>
| 25>                          ****END OF INPUT****

CARTESIAN COORDINATES (ANGSTROEM)
---------------------------------
  C     -0.550690   -0.390326    0.027260
  O     -0.514745   -1.582529   -0.006480
  C      0.602324    0.421908   -0.060787
  C      1.782050   -0.220849    0.046527
  H     -1.543395    0.105252    0.121467
  H      0.321947    1.479250   -0.009514
  H      1.759739   -1.444133   -0.271117
  H      2.727794    0.498648    0.114707

 Total Charge           Charge          ....    0
 Multiplicity           Mult            ....    1
 Number of Electrons    NEL             ....   30
 Basis Dimension        Dim             ....   44

ORBITAL ENERGIES
----------------

  NO   OCC          E(Eh)            E(eV)
   0   2.0000     -19.215564      -522.8821
   1   2.0000     -10.344483      -281.4877
   2   2.0000     -10.309893      -280.5465
   3   2.0000     -10.274330      -279.5787
   4   2.0000      -1.161542       -31.6072
   5   2.0000      -0.886863       -24.1328
   6   2.0000      -0.736145       -20.0315
   7   2.0000      -0.603751       -16.4289
   8   2.0000      -0.584665       -15.9095
   9   2.0000      -0.511383       -13.9154
  10   2.0000      -0.484569       -13.1858
  11   2.0000      -0.479051       -13.0356
  12   2.0000      -0.436643       -11.8817
  13   2.0000      -0.342341        -9.3156
  14   2.0000      -0.318557        -8.6684
  15   0.0000      -0.020894        -0.5685
  16   0.0000       0.116729         3.1764
  17   0.0000       0.136264         3.7079
  18   0.0000       0.139738         3.8025
  19   0.0000       0.210201         5.7199

MULLIKEN ATOMIC CHARGES
-----------------------
   0 C :    0.153404
   1 O :   -0.366112
   2 C :   -0.110885
   3 C :   -0.281913
   4 H :    0.110001
   5 H :    0.151233
   6 H :    0.197840
   7 H :    0.146433
Sum of atomic charges:   -0.0000000

LOEWDIN ATOMIC CHARGES
----------------------
   0 C :    0.094151
   1 O :   -0.240051
   2 C :   -0.207959
   3 C :   -0.146836
   4 H :    0.076449
   5 H :    0.127616
   6 H :    0.165891
   7 H :    0.130739

  Mayer bond orders larger than 0.100000
B(  0-C ,  1-O ) :   1.8921 B(  0-C ,  2-C ) :   0.9996 B(  0-C ,  4-H ) :   0.8949
B(  1-O ,  3-C ) :   0.1042 B(  2-C ,  3-C ) :   1.8311 B(  2-C ,  5-H ) :   0.9319
B(  3-C ,  6-H ) :   0.9131 B(  3-C ,  7-H ) :   0.9452

-----------------------------------------------------------------------------
         ABSORPTION SPECTRUM VIA TRANSITION ELECTRIC DIPOLE MOMENTS
-----------------------------------------------------------------------------
State   Energy    Wavelength  fosc         T2        TX        TY        TZ
        (cm-1)      (nm)                 (au**2)    (au)      (au)      (au)
-----------------------------------------------------------------------------
   1   28647.2    349.1   0.000601757   0.00692  -0.05765   0.00444  -0.05977

FINAL SINGLE POINT ENERGY      -191.579003486007

DIPOLE MOMENT
-------------
                                X             Y             Z
Electronic contribution:     -1.53263      -1.40004       0.01809
Nuclear contribution   :      1.90870       2.38701      -0.04232
                        -----------------------------------------
Total Dipole Moment    :      0.37607       0.98697      -0.02423
                        -----------------------------------------
Magnitude (a.u.)       :      1.05647
Magnitude (Debye)      :      2.68534

Rotational constants in cm-1:     0.717728     0.236032     0.178304
Rotational constants in MHz : 21516.936802  7076.058927  5345.430168

                             ****ORCA TERMINATED NORMALLY****
TOTAL RUN TIME: 0 days 0 hours 0 minutes 35 seconds 955 msec
