                         Program Version 5.0.3 -  RELEASE  -
|  1> ! RKS CAM-B3LYP 6-31G
|  2> !TightSCF
|  3> %scf
|  4>  ConvForced true
|  5>  convergence tight
|  6>  MaxIter 500
|  7> end
|  8>
|  9> %tddft
| 10>  nroots 1
| 11> end
| 12>
| 13> # 	9485
| 14> * xyz 0 1
| 15> 		C   -1.177094  -0.293717   0.008001
| 16> 		O   -1.229800  -1.409331   0.517973
| 17> 		C    0.023669   0.504411   0.065365
| 18> 		C    1.245696  -0.036423  -0.152488
| 19> 		H   -2.060235   0.079130  -0.329927
| 20> 		H   -0.001628   1.654838   0.341294
| 21> 		H    1.179534  -1.179331  -0.294099
| 22> 		H    2.017477   0.653015  -0.106854
| 23> *
| 24>
| 25>                          ****END OF INPUT****

CARTESIAN COORDINATES (ANGSTROEM)
---------------------------------
  C     -1.177094   -0.293717    0.008001
  O     -1.229800   -1.409331    0.517973
  C      0.023669    0.504411    0.065365
  C      1.245696   -0.036423   -0.152488
  H     -2.060235    0.079130   -0.329927
  H     -0.001628    1.654838    0.341294
  H      1.179534   -1.179331   -0.294099
  H      2.017477    0.653015   -0.106854

 Total Charge           Charge          ....    0
 Multiplicity           Mult            ....    1
 Number of Electrons    NEL             ....   30
 Basis Dimension        Dim             ....   44

ORBITAL ENERGIES
----------------

  NO   OCC          E(Eh)            E(eV)
   0   2.0000     -19.222046      -523.0585
   1   2.0000     -10.347226      -281.5623
   2   2.0000     -10.284468      -279.8546
   3   2.0000     -10.282889      -279.8116
   4   2.0000      -1.144305       -31.1381
   5   2.0000      -0.882215       -24.0063
   6   2.0000      -0.744948       -20.2711
   7   2.0000      -0.631509       -17.1842
   8   2.0000      -0.588955       -16.0263
   9   2.0000      -0.510852       -13.9010
  10   2.0000      -0.501239       -13.6394
  11   2.0000      -0.464009       -12.6263
  12   2.0000      -0.436849       -11.8873
  13   2.0000      -0.345626        -9.4050
  14   2.0000      -0.320665        -8.7257
  15   0.0000      -0.011001        -0.2994
  16   0.0000       0.083662         2.2766
  17   0.0000       0.150497         4.0952
  18   0.0000       0.165347         4.4993
  19   0.0000       0.209873         5.7109

MULLIKEN ATOMIC CHARGES
-----------------------
   0 C :    0.156921
   1 O :   -0.373598
   2 C :   -0.134633
   3 C :   -0.259629
   4 H :    0.126144
   5 H :    0.154248
   6 H :    0.185247
   7 H :    0.145300
Sum of atomic charges:    0.0000000

LOEWDIN ATOMIC CHARGES
----------------------
   0 C :    0.110409
   1 O :   -0.245392
   2 C :   -0.179675
   3 C :   -0.183571
   4 H :    0.091351
   5 H :    0.125784
   6 H :    0.149388
   7 H :    0.131705

  Mayer bond orders larger than 0.100000
B(  0-C ,  1-O ) :   1.8938 B(  0-C ,  2-C ) :   0.9859 B(  0-C ,  4-H ) :   0.9101
B(  2-C ,  3-C ) :   1.8822 B(  2-C ,  5-H ) :   0.9324 B(  3-C ,  6-H ) :   0.9396
B(  3-C ,  7-H ) :   0.9533

-----------------------------------------------------------------------------
         ABSORPTION SPECTRUM VIA TRANSITION ELECTRIC DIPOLE MOMENTS
-----------------------------------------------------------------------------
State   Energy    Wavelength  fosc         T2        TX        TY        TZ
        (cm-1)      (nm)                 (au**2)    (au)      (au)      (au)
-----------------------------------------------------------------------------
   1   29473.3    339.3   0.000130205   0.00145  -0.03788  -0.00006  -0.00438

FINAL SINGLE POINT ENERGY      -191.587272269136

DIPOLE MOMENT
-------------
                                X             Y             Z
Electronic contribution:     -1.86895      -1.40519       0.42942
Nuclear contribution   :      2.21761       2.40490      -0.82448
                        -----------------------------------------
Total Dipole Moment    :      0.34866       0.99971      -0.39506
                        -----------------------------------------
Magnitude (a.u.)       :      1.13007
Magnitude (Debye)      :      2.87240

Rotational constants in cm-1:     0.787828     0.205245     0.168376
Rotational constants in MHz : 23618.502898  6153.084667  5047.781584

                             ****ORCA TERMINATED NORMALLY****
TOTAL RUN TIME: 0 days 0 hours 0 minutes 36 seconds 474 msec
