                         Program Version 5.0.3 -  RELEASE  -
|  1> ! RKS CAM-B3LYP 6-31G
|  2> !TightSCF
|  3> %scf
|  4>  ConvForced true
|  5>  convergence tight
|  6>  MaxIter 500
|  7> end
|  8>
|  9> %tddft
| 10>  nroots 1
| 11> end
| 12>
| 13> # 	8001
| 14> * xyz 0 1
| 15> 		C   -1.116991  -0.336651   0.102650
| 16> 		O   -1.212641  -1.567157   0.044076
| 17> 		C    0.042786   0.491814   0.043859
| 18> 		C    1.259294  -0.062609   0.052356
| 19> 		H   -2.123035   0.380219   0.118855
| 20> 		H   -0.266326   1.575249  -0.223687
| 21> 		H    1.323745  -1.069764   0.157312
| 22> 		H    2.053211   0.628767  -0.313733
| 23> *
| 24>
| 25>                          ****END OF INPUT****

CARTESIAN COORDINATES (ANGSTROEM)
---------------------------------
  C     -1.116991   -0.336651    0.102650
  O     -1.212641   -1.567157    0.044076
  C      0.042786    0.491814    0.043859
  C      1.259294   -0.062609    0.052356
  H     -2.123035    0.380219    0.118855
  H     -0.266326    1.575249   -0.223687
  H      1.323745   -1.069764    0.157312
  H      2.053211    0.628767   -0.313733

 Total Charge           Charge          ....    0
 Multiplicity           Mult            ....    1
 Number of Electrons    NEL             ....   30
 Basis Dimension        Dim             ....   44

ORBITAL ENERGIES
----------------

  NO   OCC          E(Eh)            E(eV)
   0   2.0000     -19.229674      -523.2660
   1   2.0000     -10.363161      -281.9959
   2   2.0000     -10.289821      -280.0003
   3   2.0000     -10.288059      -279.9523
   4   2.0000      -1.139815       -31.0159
   5   2.0000      -0.899368       -24.4730
   6   2.0000      -0.751766       -20.4566
   7   2.0000      -0.607215       -16.5232
   8   2.0000      -0.583912       -15.8891
   9   2.0000      -0.525528       -14.3003
  10   2.0000      -0.488438       -13.2911
  11   2.0000      -0.469161       -12.7665
  12   2.0000      -0.455599       -12.3975
  13   2.0000      -0.352555        -9.5935
  14   2.0000      -0.321005        -8.7350
  15   0.0000      -0.029925        -0.8143
  16   0.0000       0.115850         3.1524
  17   0.0000       0.122376         3.3300
  18   0.0000       0.167722         4.5640
  19   0.0000       0.202983         5.5234

MULLIKEN ATOMIC CHARGES
-----------------------
   0 C :    0.170119
   1 O :   -0.385775
   2 C :   -0.109653
   3 C :   -0.248102
   4 H :    0.079631
   5 H :    0.157089
   6 H :    0.178817
   7 H :    0.157874
Sum of atomic charges:   -0.0000000

LOEWDIN ATOMIC CHARGES
----------------------
   0 C :    0.110584
   1 O :   -0.246190
   2 C :   -0.184778
   3 C :   -0.146152
   4 H :    0.056846
   5 H :    0.130241
   6 H :    0.140976
   7 H :    0.138473

  Mayer bond orders larger than 0.100000
B(  0-C ,  1-O ) :   1.8768 B(  0-C ,  2-C ) :   0.9912 B(  0-C ,  4-H ) :   0.8764
B(  2-C ,  3-C ) :   1.8618 B(  2-C ,  5-H ) :   0.9318 B(  3-C ,  6-H ) :   0.9380
B(  3-C ,  7-H ) :   0.9473

-----------------------------------------------------------------------------
         ABSORPTION SPECTRUM VIA TRANSITION ELECTRIC DIPOLE MOMENTS
-----------------------------------------------------------------------------
State   Energy    Wavelength  fosc         T2        TX        TY        TZ
        (cm-1)      (nm)                 (au**2)    (au)      (au)      (au)
-----------------------------------------------------------------------------
   1   27542.5    363.1   0.000301831   0.00361   0.01337  -0.00087   0.05855

FINAL SINGLE POINT ENERGY      -191.598840241316

DIPOLE MOMENT
-------------
                                X             Y             Z
Electronic contribution:     -1.35869      -1.87858       0.33447
Nuclear contribution   :      1.99606       2.90527      -0.43465
                        -----------------------------------------
Total Dipole Moment    :      0.63737       1.02669      -0.10018
                        -----------------------------------------
Magnitude (a.u.)       :      1.21259
Magnitude (Debye)      :      3.08215

Rotational constants in cm-1:     0.756688     0.209197     0.164629
Rotational constants in MHz : 22684.928483  6271.581543  4935.464700

                             ****ORCA TERMINATED NORMALLY****
TOTAL RUN TIME: 0 days 0 hours 0 minutes 35 seconds 730 msec
