                         Program Version 5.0.3 -  RELEASE  -
|  1> ! RKS CAM-B3LYP 6-31G
|  2> !TightSCF
|  3> %scf
|  4>  ConvForced true
|  5>  convergence tight
|  6>  MaxIter 500
|  7> end
|  8>
|  9> %tddft
| 10>  nroots 1
| 11> end
| 12>
| 13> # 	25981
| 14> * xyz 0 1
| 15> 		C   -0.564238  -0.393299   0.058430
| 16> 		O   -0.594932  -1.672268  -0.032779
| 17> 		C    0.627529   0.399884  -0.044379
| 18> 		C    1.842430  -0.117692   0.018575
| 19> 		H   -1.546801   0.149134   0.127231
| 20> 		H    0.512707   1.578715  -0.136587
| 21> 		H    2.106713  -1.155432   0.109616
| 22> 		H    2.655177   0.576215   0.022369
| 23> *
| 24>
| 25>                          ****END OF INPUT****

CARTESIAN COORDINATES (ANGSTROEM)
---------------------------------
  C     -0.564238   -0.393299    0.058430
  O     -0.594932   -1.672268   -0.032779
  C      0.627529    0.399884   -0.044379
  C      1.842430   -0.117692    0.018575
  H     -1.546801    0.149134    0.127231
  H      0.512707    1.578715   -0.136587
  H      2.106713   -1.155432    0.109616
  H      2.655177    0.576215    0.022369

 Total Charge           Charge          ....    0
 Multiplicity           Mult            ....    1
 Number of Electrons    NEL             ....   30
 Basis Dimension        Dim             ....   44

ORBITAL ENERGIES
----------------

  NO   OCC          E(Eh)            E(eV)
   0   2.0000     -19.222062      -523.0589
   1   2.0000     -10.357268      -281.8356
   2   2.0000     -10.290034      -280.0060
   3   2.0000     -10.285147      -279.8731
   4   2.0000      -1.108725       -30.1699
   5   2.0000      -0.891617       -24.2621
   6   2.0000      -0.750396       -20.4193
   7   2.0000      -0.619188       -16.8490
   8   2.0000      -0.586618       -15.9627
   9   2.0000      -0.517147       -14.0723
  10   2.0000      -0.486313       -13.2332
  11   2.0000      -0.456681       -12.4269
  12   2.0000      -0.442194       -12.0327
  13   2.0000      -0.348244        -9.4762
  14   2.0000      -0.321790        -8.7563
  15   0.0000      -0.030102        -0.8191
  16   0.0000       0.115723         3.1490
  17   0.0000       0.129383         3.5207
  18   0.0000       0.180442         4.9101
  19   0.0000       0.198917         5.4128

MULLIKEN ATOMIC CHARGES
-----------------------
   0 C :    0.171062
   1 O :   -0.410310
   2 C :   -0.121617
   3 C :   -0.245039
   4 H :    0.124626
   5 H :    0.150987
   6 H :    0.185909
   7 H :    0.144381
Sum of atomic charges:    0.0000000

LOEWDIN ATOMIC CHARGES
----------------------
   0 C :    0.117569
   1 O :   -0.276456
   2 C :   -0.176974
   3 C :   -0.149938
   4 H :    0.091850
   5 H :    0.126317
   6 H :    0.142199
   7 H :    0.125433

  Mayer bond orders larger than 0.100000
B(  0-C ,  1-O ) :   1.8556 B(  0-C ,  2-C ) :   1.0089 B(  0-C ,  4-H ) :   0.8974
B(  1-O ,  3-C ) :   0.1097 B(  2-C ,  3-C ) :   1.8662 B(  2-C ,  5-H ) :   0.9344
B(  3-C ,  6-H ) :   0.9371 B(  3-C ,  7-H ) :   0.9455

-----------------------------------------------------------------------------
         ABSORPTION SPECTRUM VIA TRANSITION ELECTRIC DIPOLE MOMENTS
-----------------------------------------------------------------------------
State   Energy    Wavelength  fosc         T2        TX        TY        TZ
        (cm-1)      (nm)                 (au**2)    (au)      (au)      (au)
-----------------------------------------------------------------------------
   1   26132.0    382.7   0.000101394   0.00128   0.00809  -0.00227   0.03474

FINAL SINGLE POINT ENERGY      -191.621281260679

DIPOLE MOMENT
-------------
                                X             Y             Z
Electronic contribution:     -1.78601      -1.72284      -0.03506
Nuclear contribution   :      2.33747       2.86267       0.11516
                        -----------------------------------------
Total Dipole Moment    :      0.55146       1.13982       0.08010
                        -----------------------------------------
Magnitude (a.u.)       :      1.26875
Magnitude (Debye)      :      3.22490

Rotational constants in cm-1:     0.743816     0.206641     0.162130
Rotational constants in MHz : 22299.027863  6194.927702  4860.542438

                             ****ORCA TERMINATED NORMALLY****
TOTAL RUN TIME: 0 days 0 hours 0 minutes 35 seconds 635 msec
