                         Program Version 5.0.3 -  RELEASE  -
|  1> ! RKS CAM-B3LYP 6-31G
|  2> !TightSCF
|  3> %scf
|  4>  ConvForced true
|  5>  convergence tight
|  6>  MaxIter 500
|  7> end
|  8>
|  9> %tddft
| 10>  nroots 1
| 11> end
| 12>
| 13> # 	20747
| 14> * xyz 0 1
| 15> 		C   -0.601091  -0.399316  -0.030117
| 16> 		O   -0.488653  -1.591423   0.011354
| 17> 		C    0.613658   0.476744  -0.011874
| 18> 		C    1.802520  -0.233392   0.004119
| 19> 		H   -1.517815  -0.049254   0.152541
| 20> 		H    0.423196   1.447791   0.096045
| 21> 		H    1.478273  -1.477360  -0.017574
| 22> 		H    2.683740   0.404589   0.044874
| 23> *
| 24>
| 25>                          ****END OF INPUT****

CARTESIAN COORDINATES (ANGSTROEM)
---------------------------------
  C     -0.601091   -0.399316   -0.030117
  O     -0.488653   -1.591423    0.011354
  C      0.613658    0.476744   -0.011874
  C      1.802520   -0.233392    0.004119
  H     -1.517815   -0.049254    0.152541
  H      0.423196    1.447791    0.096045
  H      1.478273   -1.477360   -0.017574
  H      2.683740    0.404589    0.044874

 Total Charge           Charge          ....    0
 Multiplicity           Mult            ....    1
 Number of Electrons    NEL             ....   30
 Basis Dimension        Dim             ....   44

ORBITAL ENERGIES
----------------

  NO   OCC          E(Eh)            E(eV)
   0   2.0000     -19.222715      -523.0767
   1   2.0000     -10.344005      -281.4747
   2   2.0000     -10.293778      -280.1079
   3   2.0000     -10.266608      -279.3686
   4   2.0000      -1.165633       -31.7185
   5   2.0000      -0.867972       -23.6187
   6   2.0000      -0.734949       -19.9990
   7   2.0000      -0.633465       -17.2375
   8   2.0000      -0.596701       -16.2371
   9   2.0000      -0.510624       -13.8948
  10   2.0000      -0.484273       -13.1777
  11   2.0000      -0.477186       -12.9849
  12   2.0000      -0.433126       -11.7860
  13   2.0000      -0.333693        -9.0803
  14   2.0000      -0.323748        -8.8096
  15   0.0000      -0.016046        -0.4366
  16   0.0000       0.111691         3.0393
  17   0.0000       0.142267         3.8713
  18   0.0000       0.176128         4.7927
  19   0.0000       0.226616         6.1665

MULLIKEN ATOMIC CHARGES
-----------------------
   0 C :    0.182025
   1 O :   -0.373751
   2 C :   -0.130472
   3 C :   -0.292556
   4 H :    0.119446
   5 H :    0.127599
   6 H :    0.218839
   7 H :    0.148870
Sum of atomic charges:    0.0000000

LOEWDIN ATOMIC CHARGES
----------------------
   0 C :    0.110706
   1 O :   -0.242266
   2 C :   -0.211827
   3 C :   -0.176881
   4 H :    0.088306
   5 H :    0.116213
   6 H :    0.182236
   7 H :    0.133515

  Mayer bond orders larger than 0.100000
B(  0-C ,  1-O ) :   1.8552 B(  0-C ,  2-C ) :   0.9920 B(  0-C ,  4-H ) :   0.9176
B(  2-C ,  3-C ) :   1.8530 B(  2-C ,  5-H ) :   0.9422 B(  3-C ,  6-H ) :   0.8761
B(  3-C ,  7-H ) :   0.9511

-----------------------------------------------------------------------------
         ABSORPTION SPECTRUM VIA TRANSITION ELECTRIC DIPOLE MOMENTS
-----------------------------------------------------------------------------
State   Energy    Wavelength  fosc         T2        TX        TY        TZ
        (cm-1)      (nm)                 (au**2)    (au)      (au)      (au)
-----------------------------------------------------------------------------
   1   29986.9    333.5   0.000482827   0.00530  -0.00931  -0.00659   0.07191

FINAL SINGLE POINT ENERGY      -191.558847488261

DIPOLE MOMENT
-------------
                                X             Y             Z
Electronic contribution:     -1.59471      -1.11603      -0.21306
Nuclear contribution   :      1.72309       2.09690       0.25867
                        -----------------------------------------
Total Dipole Moment    :      0.12838       0.98087       0.04561
                        -----------------------------------------
Magnitude (a.u.)       :      0.99028
Magnitude (Debye)      :      2.51710

Rotational constants in cm-1:     0.706000     0.234182     0.176034
Rotational constants in MHz : 21165.357596  7020.586987  5277.376755

                             ****ORCA TERMINATED NORMALLY****
TOTAL RUN TIME: 0 days 0 hours 0 minutes 35 seconds 626 msec
