                         Program Version 5.0.3 -  RELEASE  -
|  1> ! RKS CAM-B3LYP 6-31G
|  2> !TightSCF
|  3> %scf
|  4>  ConvForced true
|  5>  convergence tight
|  6>  MaxIter 500
|  7> end
|  8>
|  9> %tddft
| 10>  nroots 1
| 11> end
| 12>
| 13> # 	16320
| 14> * xyz 0 1
| 15> 		C   -1.166923  -0.327685  -0.035999
| 16> 		O   -1.158120  -1.502228  -0.044760
| 17> 		C   -0.008142   0.554505  -0.084953
| 18> 		C    1.174798  -0.030633  -0.064220
| 19> 		H   -2.222745   0.309460   0.029068
| 20> 		H   -0.110758   1.657367  -0.014100
| 21> 		H    1.152808  -1.154179   0.068412
| 22> 		H    2.289195   0.586697   0.145208
| 23> *
| 24>
| 25>                          ****END OF INPUT****

CARTESIAN COORDINATES (ANGSTROEM)
---------------------------------
  C     -1.166923   -0.327685   -0.035999
  O     -1.158120   -1.502228   -0.044760
  C     -0.008142    0.554505   -0.084953
  C      1.174798   -0.030633   -0.064220
  H     -2.222745    0.309460    0.029068
  H     -0.110758    1.657367   -0.014100
  H      1.152808   -1.154179    0.068412
  H      2.289195    0.586697    0.145208

 Total Charge           Charge          ....    0
 Multiplicity           Mult            ....    1
 Number of Electrons    NEL             ....   30
 Basis Dimension        Dim             ....   44

ORBITAL ENERGIES
----------------

  NO   OCC          E(Eh)            E(eV)
   0   2.0000     -19.233062      -523.3582
   1   2.0000     -10.367621      -282.1173
   2   2.0000     -10.303585      -280.3748
   3   2.0000     -10.279674      -279.7241
   4   2.0000      -1.183777       -32.2122
   5   2.0000      -0.891706       -24.2645
   6   2.0000      -0.721989       -19.6463
   7   2.0000      -0.603752       -16.4289
   8   2.0000      -0.582789       -15.8585
   9   2.0000      -0.523468       -14.2443
  10   2.0000      -0.493463       -13.4278
  11   2.0000      -0.484796       -13.1920
  12   2.0000      -0.435811       -11.8590
  13   2.0000      -0.354962        -9.6590
  14   2.0000      -0.323574        -8.8049
  15   0.0000      -0.016121        -0.4387
  16   0.0000       0.109273         2.9735
  17   0.0000       0.127697         3.4748
  18   0.0000       0.151999         4.1361
  19   0.0000       0.197938         5.3862

MULLIKEN ATOMIC CHARGES
-----------------------
   0 C :    0.168871
   1 O :   -0.342734
   2 C :   -0.117730
   3 C :   -0.269967
   4 H :    0.080390
   5 H :    0.159489
   6 H :    0.181162
   7 H :    0.140518
Sum of atomic charges:    0.0000000

LOEWDIN ATOMIC CHARGES
----------------------
   0 C :    0.113438
   1 O :   -0.208443
   2 C :   -0.205761
   3 C :   -0.150231
   4 H :    0.053357
   5 H :    0.132129
   6 H :    0.140373
   7 H :    0.125137

  Mayer bond orders larger than 0.100000
B(  0-C ,  1-O ) :   1.9077 B(  0-C ,  2-C ) :   0.9596 B(  0-C ,  4-H ) :   0.8692
B(  2-C ,  3-C ) :   1.8465 B(  2-C ,  5-H ) :   0.9355 B(  3-C ,  6-H ) :   0.9286
B(  3-C ,  7-H ) :   0.9443

-----------------------------------------------------------------------------
         ABSORPTION SPECTRUM VIA TRANSITION ELECTRIC DIPOLE MOMENTS
-----------------------------------------------------------------------------
State   Energy    Wavelength  fosc         T2        TX        TY        TZ
        (cm-1)      (nm)                 (au**2)    (au)      (au)      (au)
-----------------------------------------------------------------------------
   1   31057.1    322.0   0.000397578   0.00421  -0.01416  -0.00562  -0.06311

FINAL SINGLE POINT ENERGY      -191.570978700175

DIPOLE MOMENT
-------------
                                X             Y             Z
Electronic contribution:     -1.72541      -1.72150      -0.27749
Nuclear contribution   :      2.19310       2.65257       0.39589
                        -----------------------------------------
Total Dipole Moment    :      0.46769       0.93107       0.11840
                        -----------------------------------------
Magnitude (a.u.)       :      1.04864
Magnitude (Debye)      :      2.66543

Rotational constants in cm-1:     0.753413     0.219770     0.170404
Rotational constants in MHz : 22586.749178  6588.532005  5108.595212

                             ****ORCA TERMINATED NORMALLY****
TOTAL RUN TIME: 0 days 0 hours 0 minutes 34 seconds 272 msec
