                         Program Version 5.0.3 -  RELEASE  -
|  1> ! RKS CAM-B3LYP 6-31G
|  2> !TightSCF
|  3> %scf
|  4>  ConvForced true
|  5>  convergence tight
|  6>  MaxIter 500
|  7> end
|  8>
|  9> %tddft
| 10>  nroots 1
| 11> end
| 12>
| 13> # 	28237
| 14> * xyz 0 1
| 15> 		C   -0.620855  -0.476074   0.018610
| 16> 		O   -0.608666  -1.665925  -0.016021
| 17> 		C    0.645482   0.404726  -0.023631
| 18> 		C    1.868346  -0.064010  -0.001033
| 19> 		H   -1.464112   0.418211   0.162315
| 20> 		H    0.578766   1.445014  -0.047093
| 21> 		H    2.108119  -1.203319   0.160384
| 22> 		H    2.863270   0.678875   0.046253
| 23> *
| 24>
| 25>                          ****END OF INPUT****

CARTESIAN COORDINATES (ANGSTROEM)
---------------------------------
  C     -0.620855   -0.476074    0.018610
  O     -0.608666   -1.665925   -0.016021
  C      0.645482    0.404726   -0.023631
  C      1.868346   -0.064010   -0.001033
  H     -1.464112    0.418211    0.162315
  H      0.578766    1.445014   -0.047093
  H      2.108119   -1.203319    0.160384
  H      2.863270    0.678875    0.046253

 Total Charge           Charge          ....    0
 Multiplicity           Mult            ....    1
 Number of Electrons    NEL             ....   30
 Basis Dimension        Dim             ....   44

ORBITAL ENERGIES
----------------

  NO   OCC          E(Eh)            E(eV)
   0   2.0000     -19.246156      -523.7145
   1   2.0000     -10.380767      -282.4750
   2   2.0000     -10.297729      -280.2154
   3   2.0000     -10.270525      -279.4752
   4   2.0000      -1.178442       -32.0670
   5   2.0000      -0.880038       -23.9471
   6   2.0000      -0.721378       -19.6297
   7   2.0000      -0.609944       -16.5974
   8   2.0000      -0.571848       -15.5608
   9   2.0000      -0.525493       -14.2994
  10   2.0000      -0.492129       -13.3915
  11   2.0000      -0.485195       -13.2028
  12   2.0000      -0.433550       -11.7975
  13   2.0000      -0.353669        -9.6238
  14   2.0000      -0.323703        -8.8084
  15   0.0000      -0.013688        -0.3725
  16   0.0000       0.114501         3.1157
  17   0.0000       0.121852         3.3158
  18   0.0000       0.139642         3.7998
  19   0.0000       0.191633         5.2146

MULLIKEN ATOMIC CHARGES
-----------------------
   0 C :    0.222532
   1 O :   -0.360033
   2 C :   -0.139708
   3 C :   -0.263795
   4 H :    0.100683
   5 H :    0.138747
   6 H :    0.164684
   7 H :    0.136891
Sum of atomic charges:   -0.0000000

LOEWDIN ATOMIC CHARGES
----------------------
   0 C :    0.129620
   1 O :   -0.194273
   2 C :   -0.218512
   3 C :   -0.162757
   4 H :    0.069264
   5 H :    0.123944
   6 H :    0.131893
   7 H :    0.120821

  Mayer bond orders larger than 0.100000
B(  0-C ,  1-O ) :   1.9113 B(  0-C ,  2-C ) :   0.9284 B(  0-C ,  4-H ) :   0.8516
B(  2-C ,  3-C ) :   1.8853 B(  2-C ,  5-H ) :   0.9415 B(  3-C ,  6-H ) :   0.9409
B(  3-C ,  7-H ) :   0.9461

-----------------------------------------------------------------------------
         ABSORPTION SPECTRUM VIA TRANSITION ELECTRIC DIPOLE MOMENTS
-----------------------------------------------------------------------------
State   Energy    Wavelength  fosc         T2        TX        TY        TZ
        (cm-1)      (nm)                 (au**2)    (au)      (au)      (au)
-----------------------------------------------------------------------------
   1   30790.4    324.8   0.000146519   0.00157  -0.00472   0.01285   0.03714

FINAL SINGLE POINT ENERGY      -191.566770223767

DIPOLE MOMENT
-------------
                                X             Y             Z
Electronic contribution:     -2.26919      -2.07822      -0.21444
Nuclear contribution   :      2.67415       3.04103       0.30203
                        -----------------------------------------
Total Dipole Moment    :      0.40496       0.96281       0.08760
                        -----------------------------------------
Magnitude (a.u.)       :      1.04818
Magnitude (Debye)      :      2.66425

Rotational constants in cm-1:     0.775873     0.195266     0.156212
Rotational constants in MHz : 23260.092609  5853.926409  4683.108391

                             ****ORCA TERMINATED NORMALLY****
TOTAL RUN TIME: 0 days 0 hours 0 minutes 36 seconds 147 msec
