                         Program Version 5.0.3 -  RELEASE  -
|  1> ! RKS CAM-B3LYP 6-31G
|  2> !TightSCF
|  3> %scf
|  4>  ConvForced true
|  5>  convergence tight
|  6>  MaxIter 500
|  7> end
|  8>
|  9> %tddft
| 10>  nroots 1
| 11> end
| 12>
| 13> # 	24949
| 14> * xyz 0 1
| 15> 		C   -0.567310  -0.387969  -0.031535
| 16> 		O   -0.519274  -1.597415  -0.004243
| 17> 		C    0.563367   0.429609   0.030741
| 18> 		C    1.824103  -0.213766  -0.008620
| 19> 		H   -1.603594   0.059611   0.195359
| 20> 		H    0.418883   1.485004  -0.106686
| 21> 		H    1.874827  -1.130569   0.212566
| 22> 		H    2.769718   0.254030  -0.139604
| 23> *
| 24>
| 25>                          ****END OF INPUT****

CARTESIAN COORDINATES (ANGSTROEM)
---------------------------------
  C     -0.567310   -0.387969   -0.031535
  O     -0.519274   -1.597415   -0.004243
  C      0.563367    0.429609    0.030741
  C      1.824103   -0.213766   -0.008620
  H     -1.603594    0.059611    0.195359
  H      0.418883    1.485004   -0.106686
  H      1.874827   -1.130569    0.212566
  H      2.769718    0.254030   -0.139604

 Total Charge           Charge          ....    0
 Multiplicity           Mult            ....    1
 Number of Electrons    NEL             ....   30
 Basis Dimension        Dim             ....   44

ORBITAL ENERGIES
----------------

  NO   OCC          E(Eh)            E(eV)
   0   2.0000     -19.214354      -522.8492
   1   2.0000     -10.347904      -281.5808
   2   2.0000     -10.284966      -279.8682
   3   2.0000     -10.283481      -279.8278
   4   2.0000      -1.149442       -31.2779
   5   2.0000      -0.883334       -24.0367
   6   2.0000      -0.759491       -20.6668
   7   2.0000      -0.623161       -16.9571
   8   2.0000      -0.594958       -16.1896
   9   2.0000      -0.521058       -14.1787
  10   2.0000      -0.498878       -13.5752
  11   2.0000      -0.472792       -12.8653
  12   2.0000      -0.459986       -12.5169
  13   2.0000      -0.334239        -9.0951
  14   2.0000      -0.316754        -8.6193
  15   0.0000      -0.034514        -0.9392
  16   0.0000       0.115831         3.1519
  17   0.0000       0.158781         4.3207
  18   0.0000       0.194669         5.2972
  19   0.0000       0.210359         5.7242

MULLIKEN ATOMIC CHARGES
-----------------------
   0 C :    0.150757
   1 O :   -0.372967
   2 C :   -0.133202
   3 C :   -0.209101
   4 H :    0.107142
   5 H :    0.143261
   6 H :    0.159963
   7 H :    0.154147
Sum of atomic charges:   -0.0000000

LOEWDIN ATOMIC CHARGES
----------------------
   0 C :    0.093725
   1 O :   -0.247607
   2 C :   -0.175275
   3 C :   -0.126526
   4 H :    0.077273
   5 H :    0.126975
   6 H :    0.123535
   7 H :    0.127900

  Mayer bond orders larger than 0.100000
B(  0-C ,  1-O ) :   1.8635 B(  0-C ,  2-C ) :   1.0159 B(  0-C ,  4-H ) :   0.8985
B(  1-O ,  3-C ) :   0.1206 B(  2-C ,  3-C ) :   1.8668 B(  2-C ,  5-H ) :   0.9363
B(  3-C ,  6-H ) :   0.9384 B(  3-C ,  7-H ) :   0.9470

-----------------------------------------------------------------------------
         ABSORPTION SPECTRUM VIA TRANSITION ELECTRIC DIPOLE MOMENTS
-----------------------------------------------------------------------------
State   Energy    Wavelength  fosc         T2        TX        TY        TZ
        (cm-1)      (nm)                 (au**2)    (au)      (au)      (au)
-----------------------------------------------------------------------------
   1   25912.1    385.9   0.000385895   0.00490  -0.05586   0.00425   0.04201

FINAL SINGLE POINT ENERGY      -191.594030411947

DIPOLE MOMENT
-------------
                                X             Y             Z
Electronic contribution:     -1.55668      -1.40948      -0.14982
Nuclear contribution   :      2.09306       2.41425       0.15279
                        -----------------------------------------
Total Dipole Moment    :      0.53638       1.00478       0.00297
                        -----------------------------------------
Magnitude (a.u.)       :      1.13899
Magnitude (Debye)      :      2.89508

Rotational constants in cm-1:     0.708311     0.229908     0.174070
Rotational constants in MHz : 21234.633654  6892.473461  5218.480365

                             ****ORCA TERMINATED NORMALLY****
TOTAL RUN TIME: 0 days 0 hours 0 minutes 35 seconds 710 msec
