                         Program Version 5.0.3 -  RELEASE  -
|  1> ! RKS CAM-B3LYP 6-31G
|  2> !TightSCF
|  3> %scf
|  4>  ConvForced true
|  5>  convergence tight
|  6>  MaxIter 500
|  7> end
|  8>
|  9> %tddft
| 10>  nroots 1
| 11> end
| 12>
| 13> # 	9293
| 14> * xyz 0 1
| 15> 		C   -1.186323  -0.283697  -0.065555
| 16> 		O   -1.873752  -0.807551  -0.876480
| 17> 		C   -0.024325   0.538142  -0.269707
| 18> 		C    1.186210   0.118432   0.190891
| 19> 		H   -1.429295  -0.669553   1.010757
| 20> 		H   -0.122873   1.310490  -0.889464
| 21> 		H    1.214467  -0.771995   0.818217
| 22> 		H    2.252277   0.665339   0.050309
| 23> *
| 24>
| 25>                          ****END OF INPUT****

CARTESIAN COORDINATES (ANGSTROEM)
---------------------------------
  C     -1.186323   -0.283697   -0.065555
  O     -1.873752   -0.807551   -0.876480
  C     -0.024325    0.538142   -0.269707
  C      1.186210    0.118432    0.190891
  H     -1.429295   -0.669553    1.010757
  H     -0.122873    1.310490   -0.889464
  H      1.214467   -0.771995    0.818217
  H      2.252277    0.665339    0.050309

 Total Charge           Charge          ....    0
 Multiplicity           Mult            ....    1
 Number of Electrons    NEL             ....   30
 Basis Dimension        Dim             ....   44

ORBITAL ENERGIES
----------------

  NO   OCC          E(Eh)            E(eV)
   0   2.0000     -19.226655      -523.1839
   1   2.0000     -10.359955      -281.9087
   2   2.0000     -10.302273      -280.3391
   3   2.0000     -10.279351      -279.7154
   4   2.0000      -1.172575       -31.9074
   5   2.0000      -0.892889       -24.2967
   6   2.0000      -0.726122       -19.7588
   7   2.0000      -0.651792       -17.7362
   8   2.0000      -0.566089       -15.4041
   9   2.0000      -0.542404       -14.7596
  10   2.0000      -0.506310       -13.7774
  11   2.0000      -0.464151       -12.6302
  12   2.0000      -0.458902       -12.4874
  13   2.0000      -0.349450        -9.5090
  14   2.0000      -0.316851        -8.6220
  15   0.0000      -0.003918        -0.1066
  16   0.0000       0.070728         1.9246
  17   0.0000       0.152075         4.1382
  18   0.0000       0.173859         4.7310
  19   0.0000       0.190766         5.1910

MULLIKEN ATOMIC CHARGES
-----------------------
   0 C :    0.124185
   1 O :   -0.323887
   2 C :   -0.089916
   3 C :   -0.272899
   4 H :    0.096054
   5 H :    0.160112
   6 H :    0.147889
   7 H :    0.158462
Sum of atomic charges:   -0.0000000

LOEWDIN ATOMIC CHARGES
----------------------
   0 C :    0.107851
   1 O :   -0.212787
   2 C :   -0.171772
   3 C :   -0.176606
   4 H :    0.066949
   5 H :    0.133226
   6 H :    0.120678
   7 H :    0.132461

  Mayer bond orders larger than 0.100000
B(  0-C ,  1-O ) :   1.9357 B(  0-C ,  2-C ) :   0.9387 B(  0-C ,  4-H ) :   0.8929
B(  2-C ,  3-C ) :   1.9042 B(  2-C ,  5-H ) :   0.9379 B(  3-C ,  6-H ) :   0.9487
B(  3-C ,  7-H ) :   0.9450

-----------------------------------------------------------------------------
         ABSORPTION SPECTRUM VIA TRANSITION ELECTRIC DIPOLE MOMENTS
-----------------------------------------------------------------------------
State   Energy    Wavelength  fosc         T2        TX        TY        TZ
        (cm-1)      (nm)                 (au**2)    (au)      (au)      (au)
-----------------------------------------------------------------------------
   1   31356.5    318.9   0.000429971   0.00451  -0.00829  -0.04899   0.04523

FINAL SINGLE POINT ENERGY      -191.573397146330

DIPOLE MOMENT
-------------
                                X             Y             Z
Electronic contribution:     -2.76852      -0.50557      -1.34408
Nuclear contribution   :      3.67306       1.02038       1.90747
                        -----------------------------------------
Total Dipole Moment    :      0.90454       0.51481       0.56339
                        -----------------------------------------
Magnitude (a.u.)       :      1.18348
Magnitude (Debye)      :      3.00817

Rotational constants in cm-1:     1.216969     0.161165     0.154542
Rotational constants in MHz : 36483.816160  4831.591205  4633.054335

                             ****ORCA TERMINATED NORMALLY****
TOTAL RUN TIME: 0 days 0 hours 0 minutes 32 seconds 323 msec
