                         Program Version 5.0.3 -  RELEASE  -
|  1> ! RKS CAM-B3LYP 6-31G
|  2> !TightSCF
|  3> %scf
|  4>  ConvForced true
|  5>  convergence tight
|  6>  MaxIter 500
|  7> end
|  8>
|  9> %tddft
| 10>  nroots 1
| 11> end
| 12>
| 13> # 	16889
| 14> * xyz 0 1
| 15> 		C   -1.218238  -0.357424   0.061268
| 16> 		O   -1.555046  -1.213818   0.798017
| 17> 		C    0.027667   0.481853   0.150977
| 18> 		C    1.202247  -0.010650  -0.128739
| 19> 		H   -1.726412  -0.114577  -0.932439
| 20> 		H   -0.125993   1.573941   0.680536
| 21> 		H    1.294624  -1.120822  -0.567425
| 22> 		H    2.095248   0.712785  -0.090170
| 23> *
| 24>
| 25>                          ****END OF INPUT****

CARTESIAN COORDINATES (ANGSTROEM)
---------------------------------
  C     -1.218238   -0.357424    0.061268
  O     -1.555046   -1.213818    0.798017
  C      0.027667    0.481853    0.150977
  C      1.202247   -0.010650   -0.128739
  H     -1.726412   -0.114577   -0.932439
  H     -0.125993    1.573941    0.680536
  H      1.294624   -1.120822   -0.567425
  H      2.095248    0.712785   -0.090170

 Total Charge           Charge          ....    0
 Multiplicity           Mult            ....    1
 Number of Electrons    NEL             ....   30
 Basis Dimension        Dim             ....   44

ORBITAL ENERGIES
----------------

  NO   OCC          E(Eh)            E(eV)
   0   2.0000     -19.239907      -523.5445
   1   2.0000     -10.366930      -282.0985
   2   2.0000     -10.288759      -279.9714
   3   2.0000     -10.287299      -279.9316
   4   2.0000      -1.182490       -32.1772
   5   2.0000      -0.884018       -24.0554
   6   2.0000      -0.724642       -19.7185
   7   2.0000      -0.613377       -16.6908
   8   2.0000      -0.566272       -15.4090
   9   2.0000      -0.528993       -14.3946
  10   2.0000      -0.515838       -14.0367
  11   2.0000      -0.464605       -12.6426
  12   2.0000      -0.438621       -11.9355
  13   2.0000      -0.353520        -9.6198
  14   2.0000      -0.320651        -8.7254
  15   0.0000       0.020841         0.5671
  16   0.0000       0.053339         1.4514
  17   0.0000       0.136374         3.7109
  18   0.0000       0.148715         4.0467
  19   0.0000       0.174503         4.7485

MULLIKEN ATOMIC CHARGES
-----------------------
   0 C :    0.154025
   1 O :   -0.315587
   2 C :   -0.126909
   3 C :   -0.282343
   4 H :    0.109030
   5 H :    0.162930
   6 H :    0.151830
   7 H :    0.147024
Sum of atomic charges:   -0.0000000

LOEWDIN ATOMIC CHARGES
----------------------
   0 C :    0.115921
   1 O :   -0.188219
   2 C :   -0.183167
   3 C :   -0.206646
   4 H :    0.071285
   5 H :    0.133513
   6 H :    0.128246
   7 H :    0.129067

  Mayer bond orders larger than 0.100000
B(  0-C ,  1-O ) :   1.9690 B(  0-C ,  2-C ) :   0.8958 B(  0-C ,  4-H ) :   0.8695
B(  2-C ,  3-C ) :   1.9414 B(  2-C ,  5-H ) :   0.9227 B(  3-C ,  6-H ) :   0.9501
B(  3-C ,  7-H ) :   0.9496

-----------------------------------------------------------------------------
         ABSORPTION SPECTRUM VIA TRANSITION ELECTRIC DIPOLE MOMENTS
-----------------------------------------------------------------------------
State   Energy    Wavelength  fosc         T2        TX        TY        TZ
        (cm-1)      (nm)                 (au**2)    (au)      (au)      (au)
-----------------------------------------------------------------------------
   1   33733.3    296.4   0.000062284   0.00061  -0.00345  -0.01234   0.02106

FINAL SINGLE POINT ENERGY      -191.557523144329

DIPOLE MOMENT
-------------
                                X             Y             Z
Electronic contribution:     -2.50079      -1.37065       1.16039
Nuclear contribution   :      2.97773       2.11034      -1.70523
                        -----------------------------------------
Total Dipole Moment    :      0.47693       0.73969      -0.54485
                        -----------------------------------------
Magnitude (a.u.)       :      1.03512
Magnitude (Debye)      :      2.63106

Rotational constants in cm-1:     0.908260     0.175198     0.160528
Rotational constants in MHz : 27228.938927  5252.303529  4812.501115

                             ****ORCA TERMINATED NORMALLY****
TOTAL RUN TIME: 0 days 0 hours 0 minutes 37 seconds 241 msec
