                         Program Version 5.0.3 -  RELEASE  -
|  1> ! RKS CAM-B3LYP 6-31G
|  2> !TightSCF
|  3> %scf
|  4>  ConvForced true
|  5>  convergence tight
|  6>  MaxIter 500
|  7> end
|  8>
|  9> %tddft
| 10>  nroots 1
| 11> end
| 12>
| 13> # 	1486
| 14> * xyz 0 1
| 15> 		C   -1.257214  -0.351869  -0.020555
| 16> 		O   -1.435067  -1.329183   0.604675
| 17> 		C   -0.006589   0.386539   0.249829
| 18> 		C    1.203671  -0.030837  -0.124717
| 19> 		H   -1.795621   0.117507  -0.876672
| 20> 		H   -0.158621   1.486235   0.584119
| 21> 		H    1.385650  -1.009663  -0.439399
| 22> 		H    2.093651   0.703352  -0.014799
| 23> *
| 24>
| 25>                          ****END OF INPUT****

CARTESIAN COORDINATES (ANGSTROEM)
---------------------------------
  C     -1.257214   -0.351869   -0.020555
  O     -1.435067   -1.329183    0.604675
  C     -0.006589    0.386539    0.249829
  C      1.203671   -0.030837   -0.124717
  H     -1.795621    0.117507   -0.876672
  H     -0.158621    1.486235    0.584119
  H      1.385650   -1.009663   -0.439399
  H      2.093651    0.703352   -0.014799

 Total Charge           Charge          ....    0
 Multiplicity           Mult            ....    1
 Number of Electrons    NEL             ....   30
 Basis Dimension        Dim             ....   44

ORBITAL ENERGIES
----------------

  NO   OCC          E(Eh)            E(eV)
   0   2.0000     -19.234214      -523.3896
   1   2.0000     -10.362239      -281.9709
   2   2.0000     -10.277586      -279.6673
   3   2.0000     -10.275877      -279.6208
   4   2.0000      -1.185331       -32.2545
   5   2.0000      -0.876792       -23.8587
   6   2.0000      -0.735128       -20.0038
   7   2.0000      -0.626815       -17.0565
   8   2.0000      -0.579294       -15.7634
   9   2.0000      -0.525938       -14.3115
  10   2.0000      -0.519191       -14.1279
  11   2.0000      -0.465638       -12.6707
  12   2.0000      -0.444903       -12.1064
  13   2.0000      -0.346647        -9.4327
  14   2.0000      -0.317150        -8.6301
  15   0.0000       0.018341         0.4991
  16   0.0000       0.061147         1.6639
  17   0.0000       0.147526         4.0144
  18   0.0000       0.172791         4.7019
  19   0.0000       0.189399         5.1538

MULLIKEN ATOMIC CHARGES
-----------------------
   0 C :    0.174074
   1 O :   -0.333893
   2 C :   -0.141723
   3 C :   -0.268668
   4 H :    0.130668
   5 H :    0.144827
   6 H :    0.151290
   7 H :    0.143424
Sum of atomic charges:    0.0000000

LOEWDIN ATOMIC CHARGES
----------------------
   0 C :    0.108437
   1 O :   -0.189185
   2 C :   -0.171569
   3 C :   -0.207027
   4 H :    0.086769
   5 H :    0.123153
   6 H :    0.123701
   7 H :    0.125722

  Mayer bond orders larger than 0.100000
B(  0-C ,  1-O ) :   1.9280 B(  0-C ,  2-C ) :   0.9363 B(  0-C ,  4-H ) :   0.8604
B(  2-C ,  3-C ) :   1.9509 B(  2-C ,  5-H ) :   0.9285 B(  3-C ,  6-H ) :   0.9498
B(  3-C ,  7-H ) :   0.9525

-----------------------------------------------------------------------------
         ABSORPTION SPECTRUM VIA TRANSITION ELECTRIC DIPOLE MOMENTS
-----------------------------------------------------------------------------
State   Energy    Wavelength  fosc         T2        TX        TY        TZ
        (cm-1)      (nm)                 (au**2)    (au)      (au)      (au)
-----------------------------------------------------------------------------
   1   33353.6    299.8   0.000343354   0.00339  -0.05120   0.02213  -0.01667

FINAL SINGLE POINT ENERGY      -191.567435903648

DIPOLE MOMENT
-------------
                                X             Y             Z
Electronic contribution:     -2.56323      -1.71165       0.83524
Nuclear contribution   :      2.89767       2.53563      -1.37556
                        -----------------------------------------
Total Dipole Moment    :      0.33444       0.82398      -0.54031
                        -----------------------------------------
Magnitude (a.u.)       :      1.04055
Magnitude (Debye)      :      2.64486

Rotational constants in cm-1:     0.875232     0.188151     0.167570
Rotational constants in MHz : 26238.794134  5640.620171  5023.625959

                             ****ORCA TERMINATED NORMALLY****
TOTAL RUN TIME: 0 days 0 hours 0 minutes 35 seconds 871 msec
