                         Program Version 5.0.3 -  RELEASE  -
|  1> ! RKS CAM-B3LYP 6-31G
|  2> !TightSCF
|  3> %scf
|  4>  ConvForced true
|  5>  convergence tight
|  6>  MaxIter 500
|  7> end
|  8>
|  9> %tddft
| 10>  nroots 1
| 11> end
| 12>
| 13> # 	12300
| 14> * xyz 0 1
| 15> 		C   -1.221977  -0.329244   0.035827
| 16> 		O   -1.226597  -1.597307   0.070552
| 17> 		C   -0.036733   0.529167   0.098834
| 18> 		C    1.179465   0.014980   0.035334
| 19> 		H   -1.976431   0.303040  -0.248666
| 20> 		H   -0.165485   1.667025   0.046485
| 21> 		H    1.307006  -1.223911   0.062887
| 22> 		H    2.121440   0.593913  -0.114955
| 23> *
| 24>
| 25>                          ****END OF INPUT****

CARTESIAN COORDINATES (ANGSTROEM)
---------------------------------
  C     -1.221977   -0.329244    0.035827
  O     -1.226597   -1.597307    0.070552
  C     -0.036733    0.529167    0.098834
  C      1.179465    0.014980    0.035334
  H     -1.976431    0.303040   -0.248666
  H     -0.165485    1.667025    0.046485
  H      1.307006   -1.223911    0.062887
  H      2.121440    0.593913   -0.114955

 Total Charge           Charge          ....    0
 Multiplicity           Mult            ....    1
 Number of Electrons    NEL             ....   30
 Basis Dimension        Dim             ....   44

ORBITAL ENERGIES
----------------

  NO   OCC          E(Eh)            E(eV)
   0   2.0000     -19.228398      -523.2313
   1   2.0000     -10.353568      -281.7349
   2   2.0000     -10.299519      -280.2642
   3   2.0000     -10.282787      -279.8089
   4   2.0000      -1.118121       -30.4256
   5   2.0000      -0.886986       -24.1361
   6   2.0000      -0.754555       -20.5325
   7   2.0000      -0.615054       -16.7365
   8   2.0000      -0.579648       -15.7730
   9   2.0000      -0.510583       -13.8937
  10   2.0000      -0.492772       -13.4090
  11   2.0000      -0.457628       -12.4527
  12   2.0000      -0.428129       -11.6500
  13   2.0000      -0.347977        -9.4689
  14   2.0000      -0.326018        -8.8714
  15   0.0000      -0.026813        -0.7296
  16   0.0000       0.112142         3.0515
  17   0.0000       0.137183         3.7329
  18   0.0000       0.149148         4.0585
  19   0.0000       0.213649         5.8137

MULLIKEN ATOMIC CHARGES
-----------------------
   0 C :    0.210972
   1 O :   -0.408393
   2 C :   -0.143095
   3 C :   -0.261334
   4 H :    0.123484
   5 H :    0.152147
   6 H :    0.173553
   7 H :    0.152667
Sum of atomic charges:   -0.0000000

LOEWDIN ATOMIC CHARGES
----------------------
   0 C :    0.124089
   1 O :   -0.258600
   2 C :   -0.198686
   3 C :   -0.150643
   4 H :    0.089577
   5 H :    0.126609
   6 H :    0.140109
   7 H :    0.127546

  Mayer bond orders larger than 0.100000
B(  0-C ,  1-O ) :   1.8613 B(  0-C ,  2-C ) :   0.9970 B(  0-C ,  4-H ) :   0.8988
B(  2-C ,  3-C ) :   1.8527 B(  2-C ,  5-H ) :   0.9346 B(  3-C ,  6-H ) :   0.9355
B(  3-C ,  7-H ) :   0.9408

-----------------------------------------------------------------------------
         ABSORPTION SPECTRUM VIA TRANSITION ELECTRIC DIPOLE MOMENTS
-----------------------------------------------------------------------------
State   Energy    Wavelength  fosc         T2        TX        TY        TZ
        (cm-1)      (nm)                 (au**2)    (au)      (au)      (au)
-----------------------------------------------------------------------------
   1   27446.2    364.3   0.000080454   0.00097   0.00384   0.00905  -0.02947

FINAL SINGLE POINT ENERGY      -191.597527009685

DIPOLE MOMENT
-------------
                                X             Y             Z
Electronic contribution:     -2.01862      -1.54021       0.30765
Nuclear contribution   :      2.48442       2.68668      -0.43333
                        -----------------------------------------
Total Dipole Moment    :      0.46580       1.14647      -0.12568
                        -----------------------------------------
Magnitude (a.u.)       :      1.24385
Magnitude (Debye)      :      3.16161

Rotational constants in cm-1:     0.734806     0.206581     0.161727
Rotational constants in MHz : 22028.922992  6193.127899  4848.457453

                             ****ORCA TERMINATED NORMALLY****
TOTAL RUN TIME: 0 days 0 hours 0 minutes 35 seconds 874 msec
