                         Program Version 5.0.3 -  RELEASE  -
|  1> ! RKS CAM-B3LYP 6-31G
|  2> !TightSCF
|  3> %scf
|  4>  ConvForced true
|  5>  convergence tight
|  6>  MaxIter 500
|  7> end
|  8>
|  9> %tddft
| 10>  nroots 1
| 11> end
| 12>
| 13> # 	23421
| 14> * xyz 0 1
| 15> 		C   -0.525323  -0.431975   0.009300
| 16> 		O   -0.544658  -1.619592  -0.010065
| 17> 		C    0.605151   0.458917  -0.027213
| 18> 		C    1.786549  -0.171745  -0.001824
| 19> 		H   -1.603126   0.170822   0.170696
| 20> 		H    0.420701   1.559212   0.014632
| 21> 		H    1.677544  -1.353633   0.143753
| 22> 		H    2.865680   0.301205   0.065196
| 23> *
| 24>
| 25>                          ****END OF INPUT****

CARTESIAN COORDINATES (ANGSTROEM)
---------------------------------
  C     -0.525323   -0.431975    0.009300
  O     -0.544658   -1.619592   -0.010065
  C      0.605151    0.458917   -0.027213
  C      1.786549   -0.171745   -0.001824
  H     -1.603126    0.170822    0.170696
  H      0.420701    1.559212    0.014632
  H      1.677544   -1.353633    0.143753
  H      2.865680    0.301205    0.065196

 Total Charge           Charge          ....    0
 Multiplicity           Mult            ....    1
 Number of Electrons    NEL             ....   30
 Basis Dimension        Dim             ....   44

ORBITAL ENERGIES
----------------

  NO   OCC          E(Eh)            E(eV)
   0   2.0000     -19.229299      -523.2558
   1   2.0000     -10.364441      -282.0308
   2   2.0000     -10.305471      -280.4261
   3   2.0000     -10.284673      -279.8602
   4   2.0000      -1.172341       -31.9010
   5   2.0000      -0.891984       -24.2721
   6   2.0000      -0.725903       -19.7528
   7   2.0000      -0.597115       -16.2483
   8   2.0000      -0.587076       -15.9751
   9   2.0000      -0.521306       -14.1855
  10   2.0000      -0.491444       -13.3729
  11   2.0000      -0.483889       -13.1673
  12   2.0000      -0.438015       -11.9190
  13   2.0000      -0.352228        -9.5846
  14   2.0000      -0.320582        -8.7235
  15   0.0000      -0.019369        -0.5271
  16   0.0000       0.122513         3.3337
  17   0.0000       0.128366         3.4930
  18   0.0000       0.151806         4.1308
  19   0.0000       0.196845         5.3564

MULLIKEN ATOMIC CHARGES
-----------------------
   0 C :    0.158723
   1 O :   -0.353593
   2 C :   -0.100124
   3 C :   -0.290397
   4 H :    0.075600
   5 H :    0.164275
   6 H :    0.187749
   7 H :    0.157767
Sum of atomic charges:    0.0000000

LOEWDIN ATOMIC CHARGES
----------------------
   0 C :    0.109774
   1 O :   -0.222910
   2 C :   -0.200031
   3 C :   -0.150215
   4 H :    0.050071
   5 H :    0.134807
   6 H :    0.146975
   7 H :    0.131528

  Mayer bond orders larger than 0.100000
B(  0-C ,  1-O ) :   1.8923 B(  0-C ,  2-C ) :   0.9657 B(  0-C ,  4-H ) :   0.8762
B(  2-C ,  3-C ) :   1.8350 B(  2-C ,  5-H ) :   0.9328 B(  3-C ,  6-H ) :   0.9218
B(  3-C ,  7-H ) :   0.9390

-----------------------------------------------------------------------------
         ABSORPTION SPECTRUM VIA TRANSITION ELECTRIC DIPOLE MOMENTS
-----------------------------------------------------------------------------
State   Energy    Wavelength  fosc         T2        TX        TY        TZ
        (cm-1)      (nm)                 (au**2)    (au)      (au)      (au)
-----------------------------------------------------------------------------
   1   29983.9    333.5   0.000442939   0.00486   0.00235  -0.00499  -0.06952

FINAL SINGLE POINT ENERGY      -191.584470342750

DIPOLE MOMENT
-------------
                                X             Y             Z
Electronic contribution:     -1.43680      -1.46920      -0.27977
Nuclear contribution   :      1.99647       2.42401       0.36980
                        -----------------------------------------
Total Dipole Moment    :      0.55967       0.95481       0.09003
                        -----------------------------------------
Magnitude (a.u.)       :      1.11040
Magnitude (Debye)      :      2.82242

Rotational constants in cm-1:     0.727140     0.224901     0.172005
Rotational constants in MHz : 21799.113441  6742.358502  5156.566896

                             ****ORCA TERMINATED NORMALLY****
TOTAL RUN TIME: 0 days 0 hours 0 minutes 35 seconds 317 msec
