                         Program Version 5.0.3 -  RELEASE  -
|  1> ! RKS CAM-B3LYP 6-31G
|  2> !TightSCF
|  3> %scf
|  4>  ConvForced true
|  5>  convergence tight
|  6>  MaxIter 500
|  7> end
|  8>
|  9> %tddft
| 10>  nroots 1
| 11> end
| 12>
| 13> # 	20659
| 14> * xyz 0 1
| 15> 		C   -0.596941  -0.466422   0.004891
| 16> 		O   -0.596809  -1.630479  -0.006054
| 17> 		C    0.610208   0.455916  -0.029070
| 18> 		C    1.891730  -0.126570   0.022115
| 19> 		H   -1.455410   0.091729   0.214652
| 20> 		H    0.363203   1.373648  -0.102135
| 21> 		H    2.046853  -1.240292  -0.115444
| 22> 		H    2.756736   0.535060   0.124286
| 23> *
| 24>
| 25>                          ****END OF INPUT****

CARTESIAN COORDINATES (ANGSTROEM)
---------------------------------
  C     -0.596941   -0.466422    0.004891
  O     -0.596809   -1.630479   -0.006054
  C      0.610208    0.455916   -0.029070
  C      1.891730   -0.126570    0.022115
  H     -1.455410    0.091729    0.214652
  H      0.363203    1.373648   -0.102135
  H      2.046853   -1.240292   -0.115444
  H      2.756736    0.535060    0.124286

 Total Charge           Charge          ....    0
 Multiplicity           Mult            ....    1
 Number of Electrons    NEL             ....   30
 Basis Dimension        Dim             ....   44

ORBITAL ENERGIES
----------------

  NO   OCC          E(Eh)            E(eV)
   0   2.0000     -19.223723      -523.1041
   1   2.0000     -10.346514      -281.5429
   2   2.0000     -10.295808      -280.1632
   3   2.0000     -10.271531      -279.5026
   4   2.0000      -1.179437       -32.0941
   5   2.0000      -0.866822       -23.5874
   6   2.0000      -0.740750       -20.1568
   7   2.0000      -0.634111       -17.2550
   8   2.0000      -0.589325       -16.0363
   9   2.0000      -0.516343       -14.0504
  10   2.0000      -0.499695       -13.5974
  11   2.0000      -0.482077       -13.1180
  12   2.0000      -0.464379       -12.6364
  13   2.0000      -0.334444        -9.1007
  14   2.0000      -0.315929        -8.5969
  15   0.0000      -0.015702        -0.4273
  16   0.0000       0.111690         3.0392
  17   0.0000       0.167067         4.5461
  18   0.0000       0.173592         4.7237
  19   0.0000       0.228106         6.2071

MULLIKEN ATOMIC CHARGES
-----------------------
   0 C :    0.164904
   1 O :   -0.329881
   2 C :   -0.109333
   3 C :   -0.256343
   4 H :    0.095389
   5 H :    0.110115
   6 H :    0.179195
   7 H :    0.145954
Sum of atomic charges:    0.0000000

LOEWDIN ATOMIC CHARGES
----------------------
   0 C :    0.105578
   1 O :   -0.204590
   2 C :   -0.192756
   3 C :   -0.157873
   4 H :    0.066366
   5 H :    0.114275
   6 H :    0.144135
   7 H :    0.124866

  Mayer bond orders larger than 0.100000
B(  0-C ,  1-O ) :   1.9418 B(  0-C ,  2-C ) :   0.9654 B(  0-C ,  4-H ) :   0.8891
B(  2-C ,  3-C ) :   1.8827 B(  2-C ,  5-H ) :   0.9434 B(  3-C ,  6-H ) :   0.9342
B(  3-C ,  7-H ) :   0.9462

-----------------------------------------------------------------------------
         ABSORPTION SPECTRUM VIA TRANSITION ELECTRIC DIPOLE MOMENTS
-----------------------------------------------------------------------------
State   Energy    Wavelength  fosc         T2        TX        TY        TZ
        (cm-1)      (nm)                 (au**2)    (au)      (au)      (au)
-----------------------------------------------------------------------------
   1   29822.2    335.3   0.000027249   0.00030   0.01416  -0.00386  -0.00924

FINAL SINGLE POINT ENERGY      -191.577357932373

DIPOLE MOMENT
-------------
                                X             Y             Z
Electronic contribution:     -1.93856      -1.52531      -0.11067
Nuclear contribution   :      2.32576       2.50116       0.11372
                        -----------------------------------------
Total Dipole Moment    :      0.38720       0.97586       0.00305
                        -----------------------------------------
Magnitude (a.u.)       :      1.04987
Magnitude (Debye)      :      2.66856

Rotational constants in cm-1:     0.754525     0.203439     0.160549
Rotational constants in MHz : 22620.095648  6098.936336  4813.137298

                             ****ORCA TERMINATED NORMALLY****
TOTAL RUN TIME: 0 days 0 hours 0 minutes 35 seconds 717 msec
