                         Program Version 5.0.3 -  RELEASE  -
|  1> ! RKS CAM-B3LYP 6-31G
|  2> !TightSCF
|  3> %scf
|  4>  ConvForced true
|  5>  convergence tight
|  6>  MaxIter 500
|  7> end
|  8>
|  9> %tddft
| 10>  nroots 1
| 11> end
| 12>
| 13> # 	21438
| 14> * xyz 0 1
| 15> 		C   -0.616659  -0.423630  -0.027140
| 16> 		O   -0.545214  -1.656420   0.002045
| 17> 		C    0.625018   0.449336  -0.053477
| 18> 		C    1.837018  -0.140027   0.024657
| 19> 		H   -1.431391   0.155522   0.344643
| 20> 		H    0.540694   1.690079   0.219422
| 21> 		H    1.844183  -1.290753   0.128898
| 22> 		H    2.692671   0.358987  -0.059226
| 23> *
| 24>
| 25>                          ****END OF INPUT****

CARTESIAN COORDINATES (ANGSTROEM)
---------------------------------
  C     -0.616659   -0.423630   -0.027140
  O     -0.545214   -1.656420    0.002045
  C      0.625018    0.449336   -0.053477
  C      1.837018   -0.140027    0.024657
  H     -1.431391    0.155522    0.344643
  H      0.540694    1.690079    0.219422
  H      1.844183   -1.290753    0.128898
  H      2.692671    0.358987   -0.059226

 Total Charge           Charge          ....    0
 Multiplicity           Mult            ....    1
 Number of Electrons    NEL             ....   30
 Basis Dimension        Dim             ....   44

ORBITAL ENERGIES
----------------

  NO   OCC          E(Eh)            E(eV)
   0   2.0000     -19.233659      -523.3745
   1   2.0000     -10.361695      -281.9561
   2   2.0000     -10.295320      -280.1499
   3   2.0000     -10.279252      -279.7127
   4   2.0000      -1.143838       -31.1254
   5   2.0000      -0.873032       -23.7564
   6   2.0000      -0.742874       -20.2146
   7   2.0000      -0.623382       -16.9631
   8   2.0000      -0.568541       -15.4708
   9   2.0000      -0.512930       -13.9575
  10   2.0000      -0.503449       -13.6996
  11   2.0000      -0.465025       -12.6540
  12   2.0000      -0.433074       -11.7845
  13   2.0000      -0.342654        -9.3241
  14   2.0000      -0.325471        -8.8565
  15   0.0000      -0.026405        -0.7185
  16   0.0000       0.092835         2.5262
  17   0.0000       0.130563         3.5528
  18   0.0000       0.177824         4.8388
  19   0.0000       0.206284         5.6133

MULLIKEN ATOMIC CHARGES
-----------------------
   0 C :    0.198008
   1 O :   -0.381707
   2 C :   -0.146521
   3 C :   -0.252889
   4 H :    0.126391
   5 H :    0.130898
   6 H :    0.183635
   7 H :    0.142185
Sum of atomic charges:   -0.0000000

LOEWDIN ATOMIC CHARGES
----------------------
   0 C :    0.120366
   1 O :   -0.237565
   2 C :   -0.181554
   3 C :   -0.171998
   4 H :    0.088835
   5 H :    0.116838
   6 H :    0.144362
   7 H :    0.120716

  Mayer bond orders larger than 0.100000
B(  0-C ,  1-O ) :   1.8617 B(  0-C ,  2-C ) :   0.9613 B(  0-C ,  4-H ) :   0.8934
B(  2-C ,  3-C ) :   1.8800 B(  2-C ,  5-H ) :   0.9352 B(  3-C ,  6-H ) :   0.9329
B(  3-C ,  7-H ) :   0.9466

-----------------------------------------------------------------------------
         ABSORPTION SPECTRUM VIA TRANSITION ELECTRIC DIPOLE MOMENTS
-----------------------------------------------------------------------------
State   Energy    Wavelength  fosc         T2        TX        TY        TZ
        (cm-1)      (nm)                 (au**2)    (au)      (au)      (au)
-----------------------------------------------------------------------------
   1   28043.5    356.6   0.000231162   0.00271  -0.01698  -0.01990  -0.04504

FINAL SINGLE POINT ENERGY      -191.582581635431

DIPOLE MOMENT
-------------
                                X             Y             Z
Electronic contribution:     -1.91869      -1.64682      -0.46430
Nuclear contribution   :      2.26240       2.64408       0.59463
                        -----------------------------------------
Total Dipole Moment    :      0.34371       0.99726       0.13033
                        -----------------------------------------
Magnitude (a.u.)       :      1.06285
Magnitude (Debye)      :      2.70155

Rotational constants in cm-1:     0.701253     0.212512     0.163847
Rotational constants in MHz : 21023.030771  6370.963029  4912.004828

                             ****ORCA TERMINATED NORMALLY****
TOTAL RUN TIME: 0 days 0 hours 0 minutes 34 seconds 808 msec
