                         Program Version 5.0.3 -  RELEASE  -
|  1> ! RKS CAM-B3LYP 6-31G
|  2> !TightSCF
|  3> %scf
|  4>  ConvForced true
|  5>  convergence tight
|  6>  MaxIter 500
|  7> end
|  8>
|  9> %tddft
| 10>  nroots 1
| 11> end
| 12>
| 13> # 	14389
| 14> * xyz 0 1
| 15> 		C   -1.233160  -0.312601   0.000721
| 16> 		O   -1.540147  -1.202971   0.812647
| 17> 		C    0.020207   0.481136   0.147596
| 18> 		C    1.177726   0.057083  -0.189415
| 19> 		H   -1.849161  -0.336105  -0.858276
| 20> 		H   -0.146165   1.579185   0.618824
| 21> 		H    1.358420  -0.873342  -0.460991
| 22> 		H    2.220150   0.646752  -0.136705
| 23> *
| 24>
| 25>                          ****END OF INPUT****

CARTESIAN COORDINATES (ANGSTROEM)
---------------------------------
  C     -1.233160   -0.312601    0.000721
  O     -1.540147   -1.202971    0.812647
  C      0.020207    0.481136    0.147596
  C      1.177726    0.057083   -0.189415
  H     -1.849161   -0.336105   -0.858276
  H     -0.146165    1.579185    0.618824
  H      1.358420   -0.873342   -0.460991
  H      2.220150    0.646752   -0.136705

 Total Charge           Charge          ....    0
 Multiplicity           Mult            ....    1
 Number of Electrons    NEL             ....   30
 Basis Dimension        Dim             ....   44

ORBITAL ENERGIES
----------------

  NO   OCC          E(Eh)            E(eV)
   0   2.0000     -19.228417      -523.2318
   1   2.0000     -10.359590      -281.8988
   2   2.0000     -10.290392      -280.0158
   3   2.0000     -10.272359      -279.5251
   4   2.0000      -1.139208       -30.9994
   5   2.0000      -0.892010       -24.2728
   6   2.0000      -0.733308       -19.9543
   7   2.0000      -0.645584       -17.5672
   8   2.0000      -0.579207       -15.7610
   9   2.0000      -0.537358       -14.6223
  10   2.0000      -0.503074       -13.6893
  11   2.0000      -0.446262       -12.1434
  12   2.0000      -0.427034       -11.6202
  13   2.0000      -0.361427        -9.8349
  14   2.0000      -0.320073        -8.7096
  15   0.0000       0.008121         0.2210
  16   0.0000       0.053556         1.4573
  17   0.0000       0.138064         3.7569
  18   0.0000       0.179207         4.8765
  19   0.0000       0.194300         5.2872

MULLIKEN ATOMIC CHARGES
-----------------------
   0 C :    0.143623
   1 O :   -0.360168
   2 C :   -0.113853
   3 C :   -0.264516
   4 H :    0.143000
   5 H :    0.161519
   6 H :    0.144644
   7 H :    0.145751
Sum of atomic charges:    0.0000000

LOEWDIN ATOMIC CHARGES
----------------------
   0 C :    0.117334
   1 O :   -0.240834
   2 C :   -0.148569
   3 C :   -0.202261
   4 H :    0.101004
   5 H :    0.132880
   6 H :    0.116262
   7 H :    0.124185

  Mayer bond orders larger than 0.100000
B(  0-C ,  1-O ) :   1.9284 B(  0-C ,  2-C ) :   0.9127 B(  0-C ,  4-H ) :   0.9067
B(  2-C ,  3-C ) :   1.9866 B(  2-C ,  5-H ) :   0.9215 B(  3-C ,  6-H ) :   0.9504
B(  3-C ,  7-H ) :   0.9476

-----------------------------------------------------------------------------
         ABSORPTION SPECTRUM VIA TRANSITION ELECTRIC DIPOLE MOMENTS
-----------------------------------------------------------------------------
State   Energy    Wavelength  fosc         T2        TX        TY        TZ
        (cm-1)      (nm)                 (au**2)    (au)      (au)      (au)
-----------------------------------------------------------------------------
   1   29771.3    335.9   0.000134093   0.00148  -0.03004   0.00536  -0.02348

FINAL SINGLE POINT ENERGY      -191.570390558618

DIPOLE MOMENT
-------------
                                X             Y             Z
Electronic contribution:     -2.56399      -1.25073       0.88307
Nuclear contribution   :      3.03963       1.97825      -1.55720
                        -----------------------------------------
Total Dipole Moment    :      0.47564       0.72752      -0.67413
                        -----------------------------------------
Magnitude (a.u.)       :      1.09998
Magnitude (Debye)      :      2.79594

Rotational constants in cm-1:     0.942631     0.173117     0.160279
Rotational constants in MHz : 28259.379282  5189.922361  4805.038230

                             ****ORCA TERMINATED NORMALLY****
TOTAL RUN TIME: 0 days 0 hours 0 minutes 35 seconds 796 msec
