                         Program Version 5.0.3 -  RELEASE  -
|  1> ! B3LYP cc-pVDZ
|  2> !TightSCF
|  3> %scf
|  4>  ConvForced true
|  5>  convergence tight
|  6>  MaxIter 500
|  7> end
|  8>
|  9> %tddft
| 10>  nroots 1
| 11> end
| 12>
| 13> # 	17314
| 14> * xyz 0 1
| 15> 		C   -1.259459  -0.410211   0.015181
| 16> 		O   -2.019079  -0.843420   0.843399
| 17> 		C   -0.005419   0.398721   0.345734
| 18> 		C    1.175440   0.130061  -0.163848
| 19> 		H   -1.236430  -0.542390  -1.068739
| 20> 		H   -0.033158   1.167894   1.048357
| 21> 		H    1.237422  -0.579632  -1.039363
| 22> 		H    2.122658   0.670293   0.007604
| 23> *
| 24>
| 25>                          ****END OF INPUT****

CARTESIAN COORDINATES (ANGSTROEM)
---------------------------------
  C     -1.259459   -0.410211    0.015181
  O     -2.019079   -0.843420    0.843399
  C     -0.005419    0.398721    0.345734
  C      1.175440    0.130061   -0.163848
  H     -1.236430   -0.542390   -1.068739
  H     -0.033158    1.167894    1.048357
  H      1.237422   -0.579632   -1.039363
  H      2.122658    0.670293    0.007604

 Total Charge           Charge          ....    0
 Multiplicity           Mult            ....    1
 Number of Electrons    NEL             ....   30
 Basis Dimension        Dim             ....   76

ORBITAL ENERGIES
----------------

  NO   OCC          E(Eh)            E(eV)
   0   2.0000     -19.152493      -521.1658
   1   2.0000     -10.286680      -279.9148
   2   2.0000     -10.210259      -277.8353
   3   2.0000     -10.198130      -277.5052
   4   2.0000      -1.058198       -28.7950
   5   2.0000      -0.800133       -21.7727
   6   2.0000      -0.646289       -17.5864
   7   2.0000      -0.572587       -15.5809
   8   2.0000      -0.476671       -12.9709
   9   2.0000      -0.472238       -12.8503
  10   2.0000      -0.441606       -12.0167
  11   2.0000      -0.397534       -10.8175
  12   2.0000      -0.374576       -10.1927
  13   2.0000      -0.292089        -7.9482
  14   2.0000      -0.261581        -7.1180
  15   0.0000      -0.055261        -1.5037
  16   0.0000       0.024582         0.6689
  17   0.0000       0.076213         2.0739
  18   0.0000       0.092392         2.5141
  19   0.0000       0.118537         3.2256

MULLIKEN ATOMIC CHARGES
-----------------------
   0 C :    0.199509
   1 O :   -0.172872
   2 C :   -0.063773
   3 C :    0.002576
   4 H :   -0.009600
   5 H :   -0.014040
   6 H :    0.019922
   7 H :    0.038278
Sum of atomic charges:    0.0000000

LOEWDIN ATOMIC CHARGES
----------------------
   0 C :   -0.017267
   1 O :    0.021379
   2 C :   -0.056910
   3 C :   -0.023991
   4 H :   -0.006596
   5 H :    0.019149
   6 H :    0.029152
   7 H :    0.035084

  Mayer bond orders larger than 0.100000
B(  0-C ,  1-O ) :   2.2199 B(  0-C ,  2-C ) :   0.9943 B(  0-C ,  4-H ) :   0.9096
B(  2-C ,  3-C ) :   2.0025 B(  2-C ,  5-H ) :   0.9494 B(  3-C ,  6-H ) :   0.9408
B(  3-C ,  7-H ) :   0.9439

-----------------------------------------------------------------------------
         ABSORPTION SPECTRUM VIA TRANSITION ELECTRIC DIPOLE MOMENTS
-----------------------------------------------------------------------------
State   Energy    Wavelength  fosc         T2        TX        TY        TZ
        (cm-1)      (nm)                 (au**2)    (au)      (au)      (au)
-----------------------------------------------------------------------------
   1   31565.5    316.8   0.000085616   0.00089   0.02423  -0.00377  -0.01708

FINAL SINGLE POINT ENERGY      -191.650069302786

DIPOLE MOMENT
-------------
                                X             Y             Z
Electronic contribution:     -3.30328      -0.99190       1.42124
Nuclear contribution   :      4.03275       1.42199      -1.96918
                        -----------------------------------------
Total Dipole Moment    :      0.72947       0.43009      -0.54794
                        -----------------------------------------
Magnitude (a.u.)       :      1.00864
Magnitude (Debye)      :      2.56375

Rotational constants in cm-1:     1.345094     0.153155     0.145277
Rotational constants in MHz : 40324.896453  4591.475671  4355.285225

                             ****ORCA TERMINATED NORMALLY****
TOTAL RUN TIME: 0 days 0 hours 3 minutes 12 seconds 88 msec
