                         Program Version 5.0.3 -  RELEASE  -
|  1> ! HF-3c
|  2> !TightSCF
|  3> %scf
|  4>  ConvForced true
|  5>  convergence tight
|  6>  MaxIter 500
|  7> end
|  8>
|  9> %tddft
| 10>  nroots 1
| 11> end
| 12>
| 13> # 	1093
| 14> * xyz 0 1
| 15> 		C   -1.232087  -0.302161   0.000121
| 16> 		O   -1.817095  -0.857616  -0.883562
| 17> 		C    0.016048   0.530774  -0.284049
| 18> 		C    1.178592   0.021857   0.190283
| 19> 		H   -1.499094  -0.479214   1.030835
| 20> 		H   -0.147636   1.440896  -0.693299
| 21> 		H    1.291807  -0.998259   0.632635
| 22> 		H    2.152510   0.652959   0.024176
| 23> *
| 24>
| 25>                          ****END OF INPUT****

CARTESIAN COORDINATES (ANGSTROEM)
---------------------------------
  C     -1.232087   -0.302161    0.000121
  O     -1.817095   -0.857616   -0.883562
  C      0.016048    0.530774   -0.284049
  C      1.178592    0.021857    0.190283
  H     -1.499094   -0.479214    1.030835
  H     -0.147636    1.440896   -0.693299
  H      1.291807   -0.998259    0.632635
  H      2.152510    0.652959    0.024176

 Total Charge           Charge          ....    0
 Multiplicity           Mult            ....    1
 Number of Electrons    NEL             ....   30
 Basis Dimension        Dim             ....   24

ORBITAL ENERGIES
----------------

  NO   OCC          E(Eh)            E(eV)
   0   2.0000     -20.376122      -554.4625
   1   2.0000     -11.298400      -307.4451
   2   2.0000     -11.186707      -304.4058
   3   2.0000     -11.181602      -304.2669
   4   2.0000      -1.415707       -38.5233
   5   2.0000      -1.068127       -29.0652
   6   2.0000      -0.864364       -23.5205
   7   2.0000      -0.784198       -21.3391
   8   2.0000      -0.681713       -18.5503
   9   2.0000      -0.630845       -17.1662
  10   2.0000      -0.601026       -16.3548
  11   2.0000      -0.544310       -14.8114
  12   2.0000      -0.514966       -14.0129
  13   2.0000      -0.407039       -11.0761
  14   2.0000      -0.395123       -10.7518
  15   0.0000       0.176060         4.7908
  16   0.0000       0.232140         6.3168
  17   0.0000       0.530320        14.4307
  18   0.0000       0.590173        16.0594
  19   0.0000       0.637681        17.3522

MULLIKEN ATOMIC CHARGES
-----------------------
   0 C :    0.169761
   1 O :   -0.345785
   2 C :   -0.177937
   3 C :   -0.220135
   4 H :    0.140164
   5 H :    0.150201
   6 H :    0.142264
   7 H :    0.141467
Sum of atomic charges:   -0.0000000

LOEWDIN ATOMIC CHARGES
----------------------
   0 C :    0.149682
   1 O :   -0.244778
   2 C :   -0.127797
   3 C :   -0.134902
   4 H :    0.073685
   5 H :    0.091568
   6 H :    0.094720
   7 H :    0.097822

  Mayer bond orders larger than 0.100000
B(  0-C ,  1-O ) :   1.9494 B(  0-C ,  2-C ) :   0.9748 B(  0-C ,  4-H ) :   0.9233
B(  2-C ,  3-C ) :   1.9926 B(  2-C ,  5-H ) :   0.9586 B(  3-C ,  6-H ) :   0.9647
B(  3-C ,  7-H ) :   0.9609

-----------------------------------------------------------------------------
         ABSORPTION SPECTRUM VIA TRANSITION ELECTRIC DIPOLE MOMENTS
-----------------------------------------------------------------------------
State   Energy    Wavelength  fosc         T2        TX        TY        TZ
        (cm-1)      (nm)                 (au**2)    (au)      (au)      (au)
-----------------------------------------------------------------------------
   1   34839.8    287.0   0.000107053   0.00101  -0.02200  -0.01152   0.01987

Dispersion correction           -0.025130122
FINAL SINGLE POINT ENERGY      -189.313881315790

DIPOLE MOMENT
-------------
                                X             Y             Z
Electronic contribution:     -2.85662      -0.85333      -1.16478
Nuclear contribution   :      3.52166       1.24373       1.87798
                        -----------------------------------------
Total Dipole Moment    :      0.66503       0.39039       0.71320
                        -----------------------------------------
Magnitude (a.u.)       :      1.05039
Magnitude (Debye)      :      2.66989

Rotational constants in cm-1:     1.042322     0.163436     0.157682
Rotational constants in MHz : 31248.015105  4899.690322  4727.173890

                             ****ORCA TERMINATED NORMALLY****
TOTAL RUN TIME: 0 days 0 hours 0 minutes 12 seconds 194 msec
