                         Program Version 5.0.3 -  RELEASE  -
|  1> ! B3LYP cc-pVDZ
|  2> !TightSCF
|  3> %scf
|  4>  ConvForced true
|  5>  convergence tight
|  6>  MaxIter 500
|  7> end
|  8>
|  9> %tddft
| 10>  nroots 1
| 11> end
| 12>
| 13> # 	17054
| 14> * xyz 0 1
| 15> 		C   -1.180261  -0.312546  -0.007531
| 16> 		O   -1.919078  -0.812798   0.861924
| 17> 		C    0.000713   0.443580   0.223773
| 18> 		C    1.190828  -0.017492  -0.122342
| 19> 		H   -1.334807  -0.486420  -0.997243
| 20> 		H   -0.077894   1.391514   0.973550
| 21> 		H    1.281128  -0.893681  -0.852665
| 22> 		H    2.052975   0.633217  -0.028201
| 23> *
| 24>
| 25>                          ****END OF INPUT****

CARTESIAN COORDINATES (ANGSTROEM)
---------------------------------
  C     -1.180261   -0.312546   -0.007531
  O     -1.919078   -0.812798    0.861924
  C      0.000713    0.443580    0.223773
  C      1.190828   -0.017492   -0.122342
  H     -1.334807   -0.486420   -0.997243
  H     -0.077894    1.391514    0.973550
  H      1.281128   -0.893681   -0.852665
  H      2.052975    0.633217   -0.028201

 Total Charge           Charge          ....    0
 Multiplicity           Mult            ....    1
 Number of Electrons    NEL             ....   30
 Basis Dimension        Dim             ....   76

ORBITAL ENERGIES
----------------

  NO   OCC          E(Eh)            E(eV)
   0   2.0000     -19.141011      -520.8534
   1   2.0000     -10.270443      -279.4730
   2   2.0000     -10.215213      -277.9701
   3   2.0000     -10.214042      -277.9382
   4   2.0000      -1.029261       -28.0076
   5   2.0000      -0.811178       -22.0733
   6   2.0000      -0.665885       -18.1197
   7   2.0000      -0.565018       -15.3749
   8   2.0000      -0.482391       -13.1265
   9   2.0000      -0.467577       -12.7234
  10   2.0000      -0.434086       -11.8121
  11   2.0000      -0.385214       -10.4822
  12   2.0000      -0.361995        -9.8504
  13   2.0000      -0.293339        -7.9822
  14   2.0000      -0.257173        -6.9980
  15   0.0000      -0.063411        -1.7255
  16   0.0000       0.010498         0.2857
  17   0.0000       0.067174         1.8279
  18   0.0000       0.080795         2.1986
  19   0.0000       0.120111         3.2684

MULLIKEN ATOMIC CHARGES
-----------------------
   0 C :    0.231540
   1 O :   -0.217738
   2 C :   -0.124193
   3 C :    0.016743
   4 H :   -0.028342
   5 H :    0.048463
   6 H :    0.036334
   7 H :    0.037194
Sum of atomic charges:    0.0000000

LOEWDIN ATOMIC CHARGES
----------------------
   0 C :   -0.007230
   1 O :   -0.021891
   2 C :   -0.066297
   3 C :   -0.023460
   4 H :   -0.014264
   5 H :    0.060673
   6 H :    0.039306
   7 H :    0.033163

  Mayer bond orders larger than 0.100000
B(  0-C ,  1-O ) :   2.1791 B(  0-C ,  2-C ) :   1.0497 B(  0-C ,  4-H ) :   0.9318
B(  2-C ,  3-C ) :   1.9969 B(  2-C ,  5-H ) :   0.9172 B(  3-C ,  6-H ) :   0.9435
B(  3-C ,  7-H ) :   0.9380

-----------------------------------------------------------------------------
         ABSORPTION SPECTRUM VIA TRANSITION ELECTRIC DIPOLE MOMENTS
-----------------------------------------------------------------------------
State   Energy    Wavelength  fosc         T2        TX        TY        TZ
        (cm-1)      (nm)                 (au**2)    (au)      (au)      (au)
-----------------------------------------------------------------------------
   1   28741.5    347.9   0.000690869   0.00791   0.08517   0.02567  -0.00109

FINAL SINGLE POINT ENERGY      -191.646017968833

DIPOLE MOMENT
-------------
                                X             Y             Z
Electronic contribution:     -2.91604      -0.84953       1.14057
Nuclear contribution   :      3.69824       1.33131      -1.77709
                        -----------------------------------------
Total Dipole Moment    :      0.78220       0.48178      -0.63651
                        -----------------------------------------
Magnitude (a.u.)       :      1.11763
Magnitude (Debye)      :      2.84079

Rotational constants in cm-1:     1.165924     0.162210     0.156690
Rotational constants in MHz : 34953.513967  4862.945223  4697.437307

                             ****ORCA TERMINATED NORMALLY****
TOTAL RUN TIME: 0 days 0 hours 3 minutes 21 seconds 291 msec
