                         Program Version 5.0.3 -  RELEASE  -
|  1> ! HF-3c
|  2> !TightSCF
|  3> %scf
|  4>  ConvForced true
|  5>  convergence tight
|  6>  MaxIter 500
|  7> end
|  8>
|  9> %tddft
| 10>  nroots 1
| 11> end
| 12>
| 13> # 	9222
| 14> * xyz 0 1
| 15> 		C   -1.166368  -0.315098   0.081180
| 16> 		O   -1.356740  -1.512976  -0.277853
| 17> 		C    0.067760   0.514304  -0.137504
| 18> 		C    1.232399   0.004312  -0.014997
| 19> 		H   -2.010877   0.203879   0.391046
| 20> 		H   -0.304884   1.318334  -0.410843
| 21> 		H    1.373685  -0.868754   0.439782
| 22> 		H    2.119119   0.636002  -0.154977
| 23> *
| 24>
| 25>                          ****END OF INPUT****

CARTESIAN COORDINATES (ANGSTROEM)
---------------------------------
  C     -1.166368   -0.315098    0.081180
  O     -1.356740   -1.512976   -0.277853
  C      0.067760    0.514304   -0.137504
  C      1.232399    0.004312   -0.014997
  H     -2.010877    0.203879    0.391046
  H     -0.304884    1.318334   -0.410843
  H      1.373685   -0.868754    0.439782
  H      2.119119    0.636002   -0.154977

 Total Charge           Charge          ....    0
 Multiplicity           Mult            ....    1
 Number of Electrons    NEL             ....   30
 Basis Dimension        Dim             ....   24

ORBITAL ENERGIES
----------------

  NO   OCC          E(Eh)            E(eV)
   0   2.0000     -20.359474      -554.0095
   1   2.0000     -11.282396      -307.0096
   2   2.0000     -11.213525      -305.1355
   3   2.0000     -11.211816      -305.0890
   4   2.0000      -1.366242       -37.1773
   5   2.0000      -1.117812       -30.4172
   6   2.0000      -0.927513       -25.2389
   7   2.0000      -0.788143       -21.4465
   8   2.0000      -0.713224       -19.4078
   9   2.0000      -0.660027       -17.9603
  10   2.0000      -0.602892       -16.4055
  11   2.0000      -0.551284       -15.0012
  12   2.0000      -0.513012       -13.9598
  13   2.0000      -0.420314       -11.4373
  14   2.0000      -0.417423       -11.3587
  15   0.0000       0.134418         3.6577
  16   0.0000       0.268471         7.3055
  17   0.0000       0.525739        14.3061
  18   0.0000       0.691244        18.8097
  19   0.0000       0.752148        20.4670

MULLIKEN ATOMIC CHARGES
-----------------------
   0 C :    0.150218
   1 O :   -0.331652
   2 C :   -0.191753
   3 C :   -0.230099
   4 H :    0.136425
   5 H :    0.150843
   6 H :    0.159300
   7 H :    0.156718
Sum of atomic charges:    0.0000000

LOEWDIN ATOMIC CHARGES
----------------------
   0 C :    0.145280
   1 O :   -0.252651
   2 C :   -0.125385
   3 C :   -0.123381
   4 H :    0.069222
   5 H :    0.085087
   6 H :    0.097255
   7 H :    0.104574

  Mayer bond orders larger than 0.100000
B(  0-C ,  1-O ) :   1.9215 B(  0-C ,  2-C ) :   1.0051 B(  0-C ,  4-H ) :   0.9403
B(  2-C ,  3-C ) :   1.9735 B(  2-C ,  5-H ) :   0.9573 B(  3-C ,  6-H ) :   0.9604
B(  3-C ,  7-H ) :   0.9575

-----------------------------------------------------------------------------
         ABSORPTION SPECTRUM VIA TRANSITION ELECTRIC DIPOLE MOMENTS
-----------------------------------------------------------------------------
State   Energy    Wavelength  fosc         T2        TX        TY        TZ
        (cm-1)      (nm)                 (au**2)    (au)      (au)      (au)
-----------------------------------------------------------------------------
   1   29752.5    336.1   0.000084002   0.00093  -0.03013  -0.00279   0.00370

Dispersion correction           -0.026065086
FINAL SINGLE POINT ENERGY      -189.299527841437

DIPOLE MOMENT
-------------
                                X             Y             Z
Electronic contribution:     -1.96396      -1.66273      -0.30945
Nuclear contribution   :      2.35516       2.56240       0.58286
                        -----------------------------------------
Total Dipole Moment    :      0.39120       0.89967       0.27341
                        -----------------------------------------
Magnitude (a.u.)       :      1.01843
Magnitude (Debye)      :      2.58864

Rotational constants in cm-1:     0.852540     0.191413     0.160528
Rotational constants in MHz : 25558.519721  5738.405228  4812.517313

                             ****ORCA TERMINATED NORMALLY****
TOTAL RUN TIME: 0 days 0 hours 0 minutes 16 seconds 128 msec
