                         Program Version 5.0.3 -  RELEASE  -
|  1> ! HF-3c
|  2> !TightSCF
|  3> %scf
|  4>  ConvForced true
|  5>  convergence tight
|  6>  MaxIter 500
|  7> end
|  8>
|  9> %tddft
| 10>  nroots 1
| 11> end
| 12>
| 13> # 	1151
| 14> * xyz 0 1
| 15> 		C   -1.136413  -0.384186  -0.004762
| 16> 		O   -1.721490  -1.092688  -0.885754
| 17> 		C    0.009029   0.429609  -0.304659
| 18> 		C    1.219528   0.033531   0.170740
| 19> 		H   -1.721927  -0.262895   1.027847
| 20> 		H   -0.073170   1.408029  -0.923811
| 21> 		H    1.307541  -0.850522   0.843387
| 22> 		H    2.109477   0.668861   0.068858
| 23> *
| 24>
| 25>                          ****END OF INPUT****

CARTESIAN COORDINATES (ANGSTROEM)
---------------------------------
  C     -1.136413   -0.384186   -0.004762
  O     -1.721490   -1.092688   -0.885754
  C      0.009029    0.429609   -0.304659
  C      1.219528    0.033531    0.170740
  H     -1.721927   -0.262895    1.027847
  H     -0.073170    1.408029   -0.923811
  H      1.307541   -0.850522    0.843387
  H      2.109477    0.668861    0.068858

 Total Charge           Charge          ....    0
 Multiplicity           Mult            ....    1
 Number of Electrons    NEL             ....   30
 Basis Dimension        Dim             ....   24

ORBITAL ENERGIES
----------------

  NO   OCC          E(Eh)            E(eV)
   0   2.0000     -20.349403      -553.7354
   1   2.0000     -11.280665      -306.9625
   2   2.0000     -11.192274      -304.5573
   3   2.0000     -11.178733      -304.1888
   4   2.0000      -1.356953       -36.9246
   5   2.0000      -1.074449       -29.2372
   6   2.0000      -0.875071       -23.8119
   7   2.0000      -0.742420       -20.2023
   8   2.0000      -0.664520       -18.0825
   9   2.0000      -0.623020       -16.9532
  10   2.0000      -0.582632       -15.8542
  11   2.0000      -0.535919       -14.5831
  12   2.0000      -0.465385       -12.6638
  13   2.0000      -0.411253       -11.1908
  14   2.0000      -0.389927       -10.6105
  15   0.0000       0.162610         4.4249
  16   0.0000       0.210196         5.7197
  17   0.0000       0.542267        14.7558
  18   0.0000       0.567777        15.4500
  19   0.0000       0.648556        17.6481

MULLIKEN ATOMIC CHARGES
-----------------------
   0 C :    0.147557
   1 O :   -0.334889
   2 C :   -0.168168
   3 C :   -0.229880
   4 H :    0.144448
   5 H :    0.163148
   6 H :    0.137983
   7 H :    0.139800
Sum of atomic charges:   -0.0000000

LOEWDIN ATOMIC CHARGES
----------------------
   0 C :    0.138610
   1 O :   -0.258753
   2 C :   -0.124240
   3 C :   -0.141955
   4 H :    0.089465
   5 H :    0.115019
   6 H :    0.090851
   7 H :    0.091003

  Mayer bond orders larger than 0.100000
B(  0-C ,  1-O ) :   1.9244 B(  0-C ,  2-C ) :   1.0261 B(  0-C ,  4-H ) :   0.9152
B(  2-C ,  3-C ) :   1.9751 B(  2-C ,  5-H ) :   0.9403 B(  3-C ,  6-H ) :   0.9662
B(  3-C ,  7-H ) :   0.9654

-----------------------------------------------------------------------------
         ABSORPTION SPECTRUM VIA TRANSITION ELECTRIC DIPOLE MOMENTS
-----------------------------------------------------------------------------
State   Energy    Wavelength  fosc         T2        TX        TY        TZ
        (cm-1)      (nm)                 (au**2)    (au)      (au)      (au)
-----------------------------------------------------------------------------
   1   30052.1    332.8   0.000244342   0.00268  -0.04855  -0.00299   0.01763

Dispersion correction           -0.024828418
FINAL SINGLE POINT ENERGY      -189.324459979401

DIPOLE MOMENT
-------------
                                X             Y             Z
Electronic contribution:     -2.58675      -1.26671      -1.23333
Nuclear contribution   :      3.16278       1.93354       1.93575
                        -----------------------------------------
Total Dipole Moment    :      0.57603       0.66683       0.70242
                        -----------------------------------------
Magnitude (a.u.)       :      1.12689
Magnitude (Debye)      :      2.86433

Rotational constants in cm-1:     1.005339     0.161863     0.157996
Rotational constants in MHz : 30139.319767  4852.540449  4736.607440

                             ****ORCA TERMINATED NORMALLY****
TOTAL RUN TIME: 0 days 0 hours 0 minutes 12 seconds 162 msec
