                         Program Version 5.0.3 -  RELEASE  -
|  1> ! B3LYP cc-pVDZ
|  2> !TightSCF
|  3> %scf
|  4>  ConvForced true
|  5>  convergence tight
|  6>  MaxIter 500
|  7> end
|  8>
|  9> %tddft
| 10>  nroots 1
| 11> end
| 12>
| 13> # 	2384
| 14> * xyz 0 1
| 15> 		C   -1.157019  -0.387577  -0.099399
| 16> 		O   -1.362453  -1.411007   0.390741
| 17> 		C    0.027914   0.535286   0.171456
| 18> 		C    1.174860  -0.003847  -0.114368
| 19> 		H   -1.980527  -0.003401  -0.653447
| 20> 		H   -0.245530   1.641096   0.474261
| 21> 		H    1.511351  -0.937645  -0.393462
| 22> 		H    2.001197   0.635364   0.212060
| 23> *
| 24>
| 25>                          ****END OF INPUT****

CARTESIAN COORDINATES (ANGSTROEM)
---------------------------------
  C     -1.157019   -0.387577   -0.099399
  O     -1.362453   -1.411007    0.390741
  C      0.027914    0.535286    0.171456
  C      1.174860   -0.003847   -0.114368
  H     -1.980527   -0.003401   -0.653447
  H     -0.245530    1.641096    0.474261
  H      1.511351   -0.937645   -0.393462
  H      2.001197    0.635364    0.212060

 Total Charge           Charge          ....    0
 Multiplicity           Mult            ....    1
 Number of Electrons    NEL             ....   30
 Basis Dimension        Dim             ....   76

ORBITAL ENERGIES
----------------

  NO   OCC          E(Eh)            E(eV)
   0   2.0000     -19.135639      -520.7072
   1   2.0000     -10.263585      -279.2863
   2   2.0000     -10.210461      -277.8408
   3   2.0000     -10.196738      -277.4673
   4   2.0000      -1.078617       -29.3506
   5   2.0000      -0.799081       -21.7441
   6   2.0000      -0.643656       -17.5148
   7   2.0000      -0.553739       -15.0680
   8   2.0000      -0.505237       -13.7482
   9   2.0000      -0.460787       -12.5387
  10   2.0000      -0.444292       -12.0898
  11   2.0000      -0.398464       -10.8427
  12   2.0000      -0.375208       -10.2099
  13   2.0000      -0.293848        -7.9960
  14   2.0000      -0.243005        -6.6125
  15   0.0000      -0.033741        -0.9181
  16   0.0000       0.023064         0.6276
  17   0.0000       0.063756         1.7349
  18   0.0000       0.098367         2.6767
  19   0.0000       0.117400         3.1946

MULLIKEN ATOMIC CHARGES
-----------------------
   0 C :    0.179793
   1 O :   -0.141578
   2 C :   -0.150303
   3 C :    0.095471
   4 H :   -0.053377
   5 H :    0.042845
   6 H :    0.012205
   7 H :    0.014945
Sum of atomic charges:   -0.0000000

LOEWDIN ATOMIC CHARGES
----------------------
   0 C :   -0.058406
   1 O :    0.056449
   2 C :   -0.066990
   3 C :   -0.010309
   4 H :   -0.025703
   5 H :    0.053767
   6 H :    0.017634
   7 H :    0.033559

  Mayer bond orders larger than 0.100000
B(  0-C ,  1-O ) :   2.2765 B(  0-C ,  2-C ) :   0.9805 B(  0-C ,  4-H ) :   0.9182
B(  2-C ,  3-C ) :   2.0074 B(  2-C ,  5-H ) :   0.9283 B(  3-C ,  6-H ) :   0.9573
B(  3-C ,  7-H ) :   0.9402

-----------------------------------------------------------------------------
         ABSORPTION SPECTRUM VIA TRANSITION ELECTRIC DIPOLE MOMENTS
-----------------------------------------------------------------------------
State   Energy    Wavelength  fosc         T2        TX        TY        TZ
        (cm-1)      (nm)                 (au**2)    (au)      (au)      (au)
-----------------------------------------------------------------------------
   1   32716.3    305.7   0.001009604   0.01016  -0.09615  -0.03010  -0.00289

FINAL SINGLE POINT ENERGY      -191.620192376960

DIPOLE MOMENT
-------------
                                X             Y             Z
Electronic contribution:     -2.15155      -1.81199       0.44293
Nuclear contribution   :      2.52755       2.54243      -0.69404
                        -----------------------------------------
Total Dipole Moment    :      0.37600       0.73044      -0.25111
                        -----------------------------------------
Magnitude (a.u.)       :      0.85905
Magnitude (Debye)      :      2.18354

Rotational constants in cm-1:     0.842692     0.195736     0.167595
Rotational constants in MHz : 25263.280453  5868.008769  5024.372428

                             ****ORCA TERMINATED NORMALLY****
TOTAL RUN TIME: 0 days 0 hours 3 minutes 24 seconds 718 msec
