                         Program Version 5.0.3 -  RELEASE  -
|  1> ! HF-3c
|  2> !TightSCF
|  3> %scf
|  4>  ConvForced true
|  5>  convergence tight
|  6>  MaxIter 500
|  7> end
|  8>
|  9> %tddft
| 10>  nroots 1
| 11> end
| 12>
| 13> # 	10761
| 14> * xyz 0 1
| 15> 		C   -1.245035  -0.315023  -0.055920
| 16> 		O   -1.224607  -1.485659   0.179327
| 17> 		C   -0.056914   0.519779   0.092440
| 18> 		C    1.217096  -0.041857  -0.027098
| 19> 		H   -2.065730   0.209812  -0.345234
| 20> 		H   -0.270881   1.592042   0.324729
| 21> 		H    1.452798  -1.086918  -0.313260
| 22> 		H    2.177890   0.548921   0.146751
| 23> *
| 24>
| 25>                          ****END OF INPUT****

CARTESIAN COORDINATES (ANGSTROEM)
---------------------------------
  C     -1.245035   -0.315023   -0.055920
  O     -1.224607   -1.485659    0.179327
  C     -0.056914    0.519779    0.092440
  C      1.217096   -0.041857   -0.027098
  H     -2.065730    0.209812   -0.345234
  H     -0.270881    1.592042    0.324729
  H      1.452798   -1.086918   -0.313260
  H      2.177890    0.548921    0.146751

 Total Charge           Charge          ....    0
 Multiplicity           Mult            ....    1
 Number of Electrons    NEL             ....   30
 Basis Dimension        Dim             ....   24

ORBITAL ENERGIES
----------------

  NO   OCC          E(Eh)            E(eV)
   0   2.0000     -20.369115      -554.2718
   1   2.0000     -11.299836      -307.4842
   2   2.0000     -11.187027      -304.4145
   3   2.0000     -11.178173      -304.1736
   4   2.0000      -1.414213       -38.4827
   5   2.0000      -1.053308       -28.6620
   6   2.0000      -0.899517       -24.4771
   7   2.0000      -0.761197       -20.7132
   8   2.0000      -0.690534       -18.7904
   9   2.0000      -0.614619       -16.7246
  10   2.0000      -0.592841       -16.1320
  11   2.0000      -0.535843       -14.5810
  12   2.0000      -0.529350       -14.4044
  13   2.0000      -0.415021       -11.2933
  14   2.0000      -0.373757       -10.1705
  15   0.0000       0.131502         3.5784
  16   0.0000       0.291818         7.9408
  17   0.0000       0.541633        14.7386
  18   0.0000       0.605747        16.4832
  19   0.0000       0.660052        17.9609

MULLIKEN ATOMIC CHARGES
-----------------------
   0 C :    0.149799
   1 O :   -0.349038
   2 C :   -0.172569
   3 C :   -0.196584
   4 H :    0.136336
   5 H :    0.141271
   6 H :    0.151892
   7 H :    0.138893
Sum of atomic charges:    0.0000000

LOEWDIN ATOMIC CHARGES
----------------------
   0 C :    0.138747
   1 O :   -0.250562
   2 C :   -0.137585
   3 C :   -0.102518
   4 H :    0.065163
   5 H :    0.093154
   6 H :    0.100508
   7 H :    0.093093

  Mayer bond orders larger than 0.100000
B(  0-C ,  1-O ) :   1.9000 B(  0-C ,  2-C ) :   1.0364 B(  0-C ,  4-H ) :   0.9301
B(  2-C ,  3-C ) :   1.9307 B(  2-C ,  5-H ) :   0.9590 B(  3-C ,  6-H ) :   0.9631
B(  3-C ,  7-H ) :   0.9666

-----------------------------------------------------------------------------
         ABSORPTION SPECTRUM VIA TRANSITION ELECTRIC DIPOLE MOMENTS
-----------------------------------------------------------------------------
State   Energy    Wavelength  fosc         T2        TX        TY        TZ
        (cm-1)      (nm)                 (au**2)    (au)      (au)      (au)
-----------------------------------------------------------------------------
   1   33047.0    302.6   0.000069851   0.00070   0.02515  -0.00365  -0.00706

Dispersion correction           -0.025371147
FINAL SINGLE POINT ENERGY      -189.322865240600

DIPOLE MOMENT
-------------
                                X             Y             Z
Electronic contribution:     -2.11392      -1.66015       0.17877
Nuclear contribution   :      2.49341       2.54393      -0.36054
                        -----------------------------------------
Total Dipole Moment    :      0.37949       0.88378      -0.18177
                        -----------------------------------------
Magnitude (a.u.)       :      0.97884
Magnitude (Debye)      :      2.48801

Rotational constants in cm-1:     0.729877     0.210753     0.166094
Rotational constants in MHz : 21881.153443  6318.213601  4979.377129

                             ****ORCA TERMINATED NORMALLY****
TOTAL RUN TIME: 0 days 0 hours 0 minutes 15 seconds 945 msec
