                         Program Version 5.0.3 -  RELEASE  -
|  1> ! HF-3c
|  2> !TightSCF
|  3> %scf
|  4>  ConvForced true
|  5>  convergence tight
|  6>  MaxIter 500
|  7> end
|  8>
|  9> %tddft
| 10>  nroots 1
| 11> end
| 12>
| 13> # 	20642
| 14> * xyz 0 1
| 15> 		C   -0.543059  -0.418992  -0.040581
| 16> 		O   -0.561123  -1.621377   0.032576
| 17> 		C    0.579696   0.473690   0.062172
| 18> 		C    1.819793  -0.168281  -0.037402
| 19> 		H   -1.499645  -0.086363  -0.299778
| 20> 		H    0.550504   1.455659   0.064439
| 21> 		H    1.941922  -1.386548  -0.160152
| 22> 		H    2.764328   0.334297   0.081405
| 23> *
| 24>
| 25>                          ****END OF INPUT****

CARTESIAN COORDINATES (ANGSTROEM)
---------------------------------
  C     -0.543059   -0.418992   -0.040581
  O     -0.561123   -1.621377    0.032576
  C      0.579696    0.473690    0.062172
  C      1.819793   -0.168281   -0.037402
  H     -1.499645   -0.086363   -0.299778
  H      0.550504    1.455659    0.064439
  H      1.941922   -1.386548   -0.160152
  H      2.764328    0.334297    0.081405

 Total Charge           Charge          ....    0
 Multiplicity           Mult            ....    1
 Number of Electrons    NEL             ....   30
 Basis Dimension        Dim             ....   24

ORBITAL ENERGIES
----------------

  NO   OCC          E(Eh)            E(eV)
   0   2.0000     -20.345818      -553.6379
   1   2.0000     -11.290445      -307.2286
   2   2.0000     -11.199728      -304.7601
   3   2.0000     -11.188749      -304.4613
   4   2.0000      -1.400051       -38.0973
   5   2.0000      -1.073171       -29.2025
   6   2.0000      -0.886525       -24.1236
   7   2.0000      -0.763808       -20.7843
   8   2.0000      -0.723306       -19.6822
   9   2.0000      -0.605735       -16.4829
  10   2.0000      -0.584522       -15.9057
  11   2.0000      -0.538775       -14.6608
  12   2.0000      -0.528351       -14.3772
  13   2.0000      -0.409955       -11.1554
  14   2.0000      -0.378055       -10.2874
  15   0.0000       0.122599         3.3361
  16   0.0000       0.300442         8.1754
  17   0.0000       0.506032        13.7698
  18   0.0000       0.614104        16.7106
  19   0.0000       0.650840        17.7103

MULLIKEN ATOMIC CHARGES
-----------------------
   0 C :    0.147831
   1 O :   -0.363660
   2 C :   -0.216369
   3 C :   -0.161174
   4 H :    0.137456
   5 H :    0.149040
   6 H :    0.167352
   7 H :    0.139523
Sum of atomic charges:    0.0000000

LOEWDIN ATOMIC CHARGES
----------------------
   0 C :    0.138811
   1 O :   -0.272868
   2 C :   -0.166248
   3 C :   -0.066129
   4 H :    0.068160
   5 H :    0.088497
   6 H :    0.122254
   7 H :    0.087522

  Mayer bond orders larger than 0.100000
B(  0-C ,  1-O ) :   1.8779 B(  0-C ,  2-C ) :   1.0583 B(  0-C ,  4-H ) :   0.9364
B(  2-C ,  3-C ) :   1.8965 B(  2-C ,  5-H ) :   0.9638 B(  3-C ,  6-H ) :   0.9554
B(  3-C ,  7-H ) :   0.9685

-----------------------------------------------------------------------------
         ABSORPTION SPECTRUM VIA TRANSITION ELECTRIC DIPOLE MOMENTS
-----------------------------------------------------------------------------
State   Energy    Wavelength  fosc         T2        TX        TY        TZ
        (cm-1)      (nm)                 (au**2)    (au)      (au)      (au)
-----------------------------------------------------------------------------
   1   31994.1    312.6   0.000094155   0.00097  -0.02232   0.00548   0.02099

Dispersion correction           -0.025877307
FINAL SINGLE POINT ENERGY      -189.302777553227

DIPOLE MOMENT
-------------
                                X             Y             Z
Electronic contribution:     -1.79275      -1.32386       0.18422
Nuclear contribution   :      2.36692       2.08686      -0.29517
                        -----------------------------------------
Total Dipole Moment    :      0.57417       0.76300      -0.11096
                        -----------------------------------------
Magnitude (a.u.)       :      0.96133
Magnitude (Debye)      :      2.44350

Rotational constants in cm-1:     0.726402     0.219207     0.169156
Rotational constants in MHz : 21776.971647  6571.649872  5071.159433

                             ****ORCA TERMINATED NORMALLY****
TOTAL RUN TIME: 0 days 0 hours 0 minutes 13 seconds 754 msec
