                         Program Version 5.0.3 -  RELEASE  -
|  1> ! HF-3c
|  2> !TightSCF
|  3> %scf
|  4>  ConvForced true
|  5>  convergence tight
|  6>  MaxIter 500
|  7> end
|  8>
|  9> %tddft
| 10>  nroots 1
| 11> end
| 12>
| 13> # 	25551
| 14> * xyz 0 1
| 15> 		C   -0.570515  -0.437244  -0.067245
| 16> 		O   -0.623527  -1.700744   0.046327
| 17> 		C    0.652400   0.444900   0.101606
| 18> 		C    1.858303  -0.068679  -0.062111
| 19> 		H   -1.472226   0.080972  -0.535498
| 20> 		H    0.530945   1.591819   0.283286
| 21> 		H    1.958802  -1.197617   0.035020
| 22> 		H    2.763658   0.484676  -0.176339
| 23> *
| 24>
| 25>                          ****END OF INPUT****

CARTESIAN COORDINATES (ANGSTROEM)
---------------------------------
  C     -0.570515   -0.437244   -0.067245
  O     -0.623527   -1.700744    0.046327
  C      0.652400    0.444900    0.101606
  C      1.858303   -0.068679   -0.062111
  H     -1.472226    0.080972   -0.535498
  H      0.530945    1.591819    0.283286
  H      1.958802   -1.197617    0.035020
  H      2.763658    0.484676   -0.176339

 Total Charge           Charge          ....    0
 Multiplicity           Mult            ....    1
 Number of Electrons    NEL             ....   30
 Basis Dimension        Dim             ....   24

ORBITAL ENERGIES
----------------

  NO   OCC          E(Eh)            E(eV)
   0   2.0000     -20.347866      -553.6936
   1   2.0000     -11.282937      -307.0243
   2   2.0000     -11.190630      -304.5125
   3   2.0000     -11.186507      -304.4003
   4   2.0000      -1.355874       -36.8952
   5   2.0000      -1.074039       -29.2261
   6   2.0000      -0.877690       -23.8832
   7   2.0000      -0.734823       -19.9956
   8   2.0000      -0.681955       -18.5569
   9   2.0000      -0.604314       -16.4442
  10   2.0000      -0.582473       -15.8499
  11   2.0000      -0.527719       -14.3600
  12   2.0000      -0.495102       -13.4724
  13   2.0000      -0.411110       -11.1869
  14   2.0000      -0.388609       -10.5746
  15   0.0000       0.135103         3.6763
  16   0.0000       0.273888         7.4529
  17   0.0000       0.530720        14.4416
  18   0.0000       0.541875        14.7452
  19   0.0000       0.625121        17.0104

MULLIKEN ATOMIC CHARGES
-----------------------
   0 C :    0.155522
   1 O :   -0.348901
   2 C :   -0.168472
   3 C :   -0.226676
   4 H :    0.138365
   5 H :    0.147106
   6 H :    0.159056
   7 H :    0.144000
Sum of atomic charges:   -0.0000000

LOEWDIN ATOMIC CHARGES
----------------------
   0 C :    0.148472
   1 O :   -0.271832
   2 C :   -0.128111
   3 C :   -0.130217
   4 H :    0.079789
   5 H :    0.100837
   6 H :    0.109066
   7 H :    0.091996

  Mayer bond orders larger than 0.100000
B(  0-C ,  1-O ) :   1.9122 B(  0-C ,  2-C ) :   1.0154 B(  0-C ,  4-H ) :   0.9266
B(  2-C ,  3-C ) :   1.9570 B(  2-C ,  5-H ) :   0.9534 B(  3-C ,  6-H ) :   0.9551
B(  3-C ,  7-H ) :   0.9644

-----------------------------------------------------------------------------
         ABSORPTION SPECTRUM VIA TRANSITION ELECTRIC DIPOLE MOMENTS
-----------------------------------------------------------------------------
State   Energy    Wavelength  fosc         T2        TX        TY        TZ
        (cm-1)      (nm)                 (au**2)    (au)      (au)      (au)
-----------------------------------------------------------------------------
   1   30667.0    326.1   0.000023158   0.00025   0.00763   0.00463   0.01300

Dispersion correction           -0.025052967
FINAL SINGLE POINT ENERGY      -189.336243489230

DIPOLE MOMENT
-------------
                                X             Y             Z
Electronic contribution:     -2.04754      -1.68665       0.24452
Nuclear contribution   :      2.38644       2.68811      -0.36927
                        -----------------------------------------
Total Dipole Moment    :      0.33889       1.00146      -0.12475
                        -----------------------------------------
Magnitude (a.u.)       :      1.06459
Magnitude (Debye)      :      2.70596

Rotational constants in cm-1:     0.749410     0.194627     0.156398
Rotational constants in MHz : 22466.742487  5834.763809  4688.689150

                             ****ORCA TERMINATED NORMALLY****
TOTAL RUN TIME: 0 days 0 hours 0 minutes 12 seconds 136 msec
