                         Program Version 5.0.3 -  RELEASE  -
|  1> ! HF-3c
|  2> !TightSCF
|  3> %scf
|  4>  ConvForced true
|  5>  convergence tight
|  6>  MaxIter 500
|  7> end
|  8>
|  9> %tddft
| 10>  nroots 1
| 11> end
| 12>
| 13> # 	32456
| 14> * xyz 0 1
| 15> 		C   -0.618510  -0.468036  -0.002623
| 16> 		O   -0.544887  -1.571135  -0.006871
| 17> 		C    0.674859   0.398333  -0.015179
| 18> 		C    1.802601  -0.172072   0.010192
| 19> 		H   -1.662770   0.045480   0.142948
| 20> 		H    0.743259   1.635312   0.018874
| 21> 		H    1.964386  -1.238999   0.105523
| 22> 		H    2.472079   0.631670  -0.074537
| 23> *
| 24>
| 25>                          ****END OF INPUT****

CARTESIAN COORDINATES (ANGSTROEM)
---------------------------------
  C     -0.618510   -0.468036   -0.002623
  O     -0.544887   -1.571135   -0.006871
  C      0.674859    0.398333   -0.015179
  C      1.802601   -0.172072    0.010192
  H     -1.662770    0.045480    0.142948
  H      0.743259    1.635312    0.018874
  H      1.964386   -1.238999    0.105523
  H      2.472079    0.631670   -0.074537

 Total Charge           Charge          ....    0
 Multiplicity           Mult            ....    1
 Number of Electrons    NEL             ....   30
 Basis Dimension        Dim             ....   24

ORBITAL ENERGIES
----------------

  NO   OCC          E(Eh)            E(eV)
   0   2.0000     -20.404257      -555.2281
   1   2.0000     -11.324213      -308.1475
   2   2.0000     -11.175878      -304.1111
   3   2.0000     -11.172883      -304.0296
   4   2.0000      -1.492756       -40.6200
   5   2.0000      -1.092639       -29.7322
   6   2.0000      -0.855023       -23.2664
   7   2.0000      -0.743537       -20.2327
   8   2.0000      -0.709806       -19.3148
   9   2.0000      -0.634003       -17.2521
  10   2.0000      -0.594548       -16.1785
  11   2.0000      -0.586455       -15.9583
  12   2.0000      -0.521140       -14.1809
  13   2.0000      -0.417011       -11.3475
  14   2.0000      -0.391721       -10.6593
  15   0.0000       0.175746         4.7823
  16   0.0000       0.335393         9.1265
  17   0.0000       0.481789        13.1102
  18   0.0000       0.516801        14.0629
  19   0.0000       0.634532        17.2665

MULLIKEN ATOMIC CHARGES
-----------------------
   0 C :    0.213879
   1 O :   -0.375749
   2 C :   -0.148318
   3 C :   -0.273056
   4 H :    0.128009
   5 H :    0.138127
   6 H :    0.165084
   7 H :    0.152026
Sum of atomic charges:   -0.0000000

LOEWDIN ATOMIC CHARGES
----------------------
   0 C :    0.153506
   1 O :   -0.237649
   2 C :   -0.121208
   3 C :   -0.170179
   4 H :    0.066916
   5 H :    0.098168
   6 H :    0.110269
   7 H :    0.100176

  Mayer bond orders larger than 0.100000
B(  0-C ,  1-O ) :   1.9494 B(  0-C ,  2-C ) :   0.9503 B(  0-C ,  4-H ) :   0.9021
B(  2-C ,  3-C ) :   1.9932 B(  2-C ,  5-H ) :   0.9541 B(  3-C ,  6-H ) :   0.9542
B(  3-C ,  7-H ) :   0.9588

-----------------------------------------------------------------------------
         ABSORPTION SPECTRUM VIA TRANSITION ELECTRIC DIPOLE MOMENTS
-----------------------------------------------------------------------------
State   Energy    Wavelength  fosc         T2        TX        TY        TZ
        (cm-1)      (nm)                 (au**2)    (au)      (au)      (au)
-----------------------------------------------------------------------------
   1   39701.0    251.9   0.000100600   0.00083   0.02407   0.00235  -0.01578

Dispersion correction           -0.025914673
FINAL SINGLE POINT ENERGY      -189.247591196623

DIPOLE MOMENT
-------------
                                X             Y             Z
Electronic contribution:     -2.01258      -1.89301      -0.14125
Nuclear contribution   :      2.13863       2.79547       0.18126
                        -----------------------------------------
Total Dipole Moment    :      0.12605       0.90246       0.04001
                        -----------------------------------------
Magnitude (a.u.)       :      0.91210
Magnitude (Debye)      :      2.31837

Rotational constants in cm-1:     0.812874     0.217787     0.171916
Rotational constants in MHz : 24369.338705  6529.103771  5153.918318

                             ****ORCA TERMINATED NORMALLY****
TOTAL RUN TIME: 0 days 0 hours 0 minutes 10 seconds 867 msec
