                         Program Version 5.0.3 -  RELEASE  -
|  1> ! B3LYP cc-pVDZ
|  2> !TightSCF
|  3> %scf
|  4>  ConvForced true
|  5>  convergence tight
|  6>  MaxIter 500
|  7> end
|  8>
|  9> %tddft
| 10>  nroots 1
| 11> end
| 12>
| 13> # 	11697
| 14> * xyz 0 1
| 15> 		C   -1.163538  -0.330520   0.049874
| 16> 		O   -2.277492  -0.226027   0.713494
| 17> 		C    0.036038   0.242436   0.482809
| 18> 		C    1.189707   0.044946  -0.136872
| 19> 		H   -1.222127  -0.960222  -1.078220
| 20> 		H    0.021962   0.981483   1.318131
| 21> 		H    1.125394  -0.510740  -1.089308
| 22> 		H    2.349352   0.778877  -0.289232
| 23> *
| 24>
| 25>                          ****END OF INPUT****

CARTESIAN COORDINATES (ANGSTROEM)
---------------------------------
  C     -1.163538   -0.330520    0.049874
  O     -2.277492   -0.226027    0.713494
  C      0.036038    0.242436    0.482809
  C      1.189707    0.044946   -0.136872
  H     -1.222127   -0.960222   -1.078220
  H      0.021962    0.981483    1.318131
  H      1.125394   -0.510740   -1.089308
  H      2.349352    0.778877   -0.289232

 Total Charge           Charge          ....    0
 Multiplicity           Mult            ....    1
 Number of Electrons    NEL             ....   30
 Basis Dimension        Dim             ....   76

ORBITAL ENERGIES
----------------

  NO   OCC          E(Eh)            E(eV)
   0   2.0000     -19.142667      -520.8985
   1   2.0000     -10.293849      -280.1099
   2   2.0000     -10.247691      -278.8538
   3   2.0000     -10.221558      -278.1427
   4   2.0000      -1.003312       -27.3015
   5   2.0000      -0.821248       -22.3473
   6   2.0000      -0.648250       -17.6398
   7   2.0000      -0.560594       -15.2545
   8   2.0000      -0.471029       -12.8173
   9   2.0000      -0.457438       -12.4475
  10   2.0000      -0.403431       -10.9779
  11   2.0000      -0.381850       -10.3907
  12   2.0000      -0.362167        -9.8551
  13   2.0000      -0.297027        -8.0825
  14   2.0000      -0.257742        -7.0135
  15   0.0000      -0.091305        -2.4845
  16   0.0000       0.012714         0.3460
  17   0.0000       0.037831         1.0294
  18   0.0000       0.060339         1.6419
  19   0.0000       0.105105         2.8601

MULLIKEN ATOMIC CHARGES
-----------------------
   0 C :    0.117763
   1 O :   -0.251373
   2 C :    0.035479
   3 C :   -0.067503
   4 H :    0.014964
   5 H :    0.026296
   6 H :    0.038998
   7 H :    0.085376
Sum of atomic charges:   -0.0000000

LOEWDIN ATOMIC CHARGES
----------------------
   0 C :   -0.007388
   1 O :   -0.077417
   2 C :   -0.074172
   3 C :   -0.010366
   4 H :    0.018288
   5 H :    0.049610
   6 H :    0.025946
   7 H :    0.075499

  Mayer bond orders larger than 0.100000
B(  0-C ,  1-O ) :   2.0293 B(  0-C ,  2-C ) :   1.1214 B(  0-C ,  4-H ) :   0.8984
B(  1-O ,  3-C ) :   0.1334 B(  2-C ,  3-C ) :   1.8448 B(  2-C ,  5-H ) :   0.9438
B(  3-C ,  6-H ) :   0.9357 B(  3-C ,  7-H ) :   0.9387

-----------------------------------------------------------------------------
         ABSORPTION SPECTRUM VIA TRANSITION ELECTRIC DIPOLE MOMENTS
-----------------------------------------------------------------------------
State   Energy    Wavelength  fosc         T2        TX        TY        TZ
        (cm-1)      (nm)                 (au**2)    (au)      (au)      (au)
-----------------------------------------------------------------------------
   1   23846.7    419.3   0.000198354   0.00274   0.00579   0.05175  -0.00519

FINAL SINGLE POINT ENERGY      -191.631475906397

DIPOLE MOMENT
-------------
                                X             Y             Z
Electronic contribution:     -3.14402      -0.35229       1.55772
Nuclear contribution   :      4.34459       0.52639      -2.06713
                        -----------------------------------------
Total Dipole Moment    :      1.20058       0.17410      -0.50941
                        -----------------------------------------
Magnitude (a.u.)       :      1.31575
Magnitude (Debye)      :      3.34436

Rotational constants in cm-1:     1.532596     0.152273     0.139065
Rotational constants in MHz : 45946.079207  4565.033949  4169.070636

                             ****ORCA TERMINATED NORMALLY****
TOTAL RUN TIME: 0 days 0 hours 3 minutes 19 seconds 937 msec
