                         Program Version 5.0.3 -  RELEASE  -
|  1> ! B3LYP cc-pVDZ
|  2> !TightSCF
|  3> %scf
|  4>  ConvForced true
|  5>  convergence tight
|  6>  MaxIter 500
|  7> end
|  8>
|  9> %tddft
| 10>  nroots 1
| 11> end
| 12>
| 13> # 	18898
| 14> * xyz 0 1
| 15> 		C   -1.225090  -0.367281   0.003246
| 16> 		O   -2.182415  -0.418165  -0.718840
| 17> 		C   -0.027433   0.333242  -0.395063
| 18> 		C    1.174711   0.200143   0.331854
| 19> 		H   -1.142225  -1.012893   0.981465
| 20> 		H    0.083554   1.089595  -1.427705
| 21> 		H    1.277362  -0.420080   1.095738
| 22> 		H    2.076098   0.615634   0.121534
| 23> *
| 24>
| 25>                          ****END OF INPUT****

CARTESIAN COORDINATES (ANGSTROEM)
---------------------------------
  C     -1.225090   -0.367281    0.003246
  O     -2.182415   -0.418165   -0.718840
  C     -0.027433    0.333242   -0.395063
  C      1.174711    0.200143    0.331854
  H     -1.142225   -1.012893    0.981465
  H      0.083554    1.089595   -1.427705
  H      1.277362   -0.420080    1.095738
  H      2.076098    0.615634    0.121534

 Total Charge           Charge          ....    0
 Multiplicity           Mult            ....    1
 Number of Electrons    NEL             ....   30
 Basis Dimension        Dim             ....   76

ORBITAL ENERGIES
----------------

  NO   OCC          E(Eh)            E(eV)
   0   2.0000     -19.137732      -520.7642
   1   2.0000     -10.280126      -279.7364
   2   2.0000     -10.231420      -278.4111
   3   2.0000     -10.212302      -277.8909
   4   2.0000      -1.053332       -28.6626
   5   2.0000      -0.792455       -21.5638
   6   2.0000      -0.664400       -18.0792
   7   2.0000      -0.556690       -15.1483
   8   2.0000      -0.484016       -13.1707
   9   2.0000      -0.469928       -12.7874
  10   2.0000      -0.419562       -11.4169
  11   2.0000      -0.404115       -10.9965
  12   2.0000      -0.376494       -10.2449
  13   2.0000      -0.283971        -7.7272
  14   2.0000      -0.257550        -7.0083
  15   0.0000      -0.074892        -2.0379
  16   0.0000       0.045238         1.2310
  17   0.0000       0.047651         1.2966
  18   0.0000       0.081167         2.2087
  19   0.0000       0.118244         3.2176

MULLIKEN ATOMIC CHARGES
-----------------------
   0 C :    0.178140
   1 O :   -0.182986
   2 C :   -0.156424
   3 C :    0.120103
   4 H :   -0.011864
   5 H :    0.053968
   6 H :   -0.010791
   7 H :    0.009854
Sum of atomic charges:    0.0000000

LOEWDIN ATOMIC CHARGES
----------------------
   0 C :   -0.070410
   1 O :    0.011403
   2 C :   -0.059345
   3 C :    0.040299
   4 H :    0.002575
   5 H :    0.063877
   6 H :   -0.001091
   7 H :    0.012691

  Mayer bond orders larger than 0.100000
B(  0-C ,  1-O ) :   2.1537 B(  0-C ,  2-C ) :   1.0728 B(  0-C ,  4-H ) :   0.9068
B(  1-O ,  3-C ) :   0.1140 B(  2-C ,  3-C ) :   1.8920 B(  2-C ,  5-H ) :   0.9338
B(  3-C ,  6-H ) :   0.9562 B(  3-C ,  7-H ) :   0.9570

-----------------------------------------------------------------------------
         ABSORPTION SPECTRUM VIA TRANSITION ELECTRIC DIPOLE MOMENTS
-----------------------------------------------------------------------------
State   Energy    Wavelength  fosc         T2        TX        TY        TZ
        (cm-1)      (nm)                 (au**2)    (au)      (au)      (au)
-----------------------------------------------------------------------------
   1   27851.4    359.0   0.000157961   0.00187   0.03978  -0.00792   0.01489

FINAL SINGLE POINT ENERGY      -191.642709197478

DIPOLE MOMENT
-------------
                                X             Y             Z
Electronic contribution:     -3.29325      -0.41531      -1.00823
Nuclear contribution   :      4.37438       0.54631       1.48175
                        -----------------------------------------
Total Dipole Moment    :      1.08114       0.13100       0.47352
                        -----------------------------------------
Magnitude (a.u.)       :      1.18753
Magnitude (Debye)      :      3.01847

Rotational constants in cm-1:     1.478151     0.154777     0.140584
Rotational constants in MHz : 44313.848220  4640.111950  4214.593208

                             ****ORCA TERMINATED NORMALLY****
TOTAL RUN TIME: 0 days 0 hours 3 minutes 23 seconds 425 msec
