                         Program Version 5.0.3 -  RELEASE  -
|  1> ! B3LYP cc-pVDZ
|  2> !TightSCF
|  3> %scf
|  4>  ConvForced true
|  5>  convergence tight
|  6>  MaxIter 500
|  7> end
|  8>
|  9> %tddft
| 10>  nroots 1
| 11> end
| 12>
| 13> # 	24519
| 14> * xyz 0 1
| 15> 		C   -0.562146  -0.472548  -0.056176
| 16> 		O   -0.640162  -1.646796   0.023537
| 17> 		C    0.646866   0.392993   0.098527
| 18> 		C    1.878252  -0.062251  -0.038845
| 19> 		H   -1.461068   0.240394  -0.215137
| 20> 		H    0.519468   1.365540  -0.083657
| 21> 		H    2.042921  -1.010849   0.006326
| 22> 		H    2.620098   0.481557  -0.129667
| 23> *
| 24>
| 25>                          ****END OF INPUT****

CARTESIAN COORDINATES (ANGSTROEM)
---------------------------------
  C     -0.562146   -0.472548   -0.056176
  O     -0.640162   -1.646796    0.023537
  C      0.646866    0.392993    0.098527
  C      1.878252   -0.062251   -0.038845
  H     -1.461068    0.240394   -0.215137
  H      0.519468    1.365540   -0.083657
  H      2.042921   -1.010849    0.006326
  H      2.620098    0.481557   -0.129667

 Total Charge           Charge          ....    0
 Multiplicity           Mult            ....    1
 Number of Electrons    NEL             ....   30
 Basis Dimension        Dim             ....   76

ORBITAL ENERGIES
----------------

  NO   OCC          E(Eh)            E(eV)
   0   2.0000     -19.143640      -520.9249
   1   2.0000     -10.277991      -279.6784
   2   2.0000     -10.190666      -277.3021
   3   2.0000     -10.184141      -277.1246
   4   2.0000      -1.065625       -28.9971
   5   2.0000      -0.811007       -22.0686
   6   2.0000      -0.673726       -18.3330
   7   2.0000      -0.557356       -15.1664
   8   2.0000      -0.523692       -14.2504
   9   2.0000      -0.455789       -12.4026
  10   2.0000      -0.438012       -11.9189
  11   2.0000      -0.408634       -11.1195
  12   2.0000      -0.398419       -10.8415
  13   2.0000      -0.294233        -8.0065
  14   2.0000      -0.255784        -6.9602
  15   0.0000      -0.065835        -1.7915
  16   0.0000       0.059122         1.6088
  17   0.0000       0.078130         2.1260
  18   0.0000       0.104019         2.8305
  19   0.0000       0.139717         3.8019

MULLIKEN ATOMIC CHARGES
-----------------------
   0 C :    0.157794
   1 O :   -0.157341
   2 C :   -0.116022
   3 C :    0.268724
   4 H :   -0.029666
   5 H :   -0.046587
   6 H :   -0.028264
   7 H :   -0.048638
Sum of atomic charges:    0.0000000

LOEWDIN ATOMIC CHARGES
----------------------
   0 C :   -0.051671
   1 O :    0.031198
   2 C :   -0.053641
   3 C :    0.090460
   4 H :   -0.010448
   5 H :    0.006304
   6 H :    0.002522
   7 H :   -0.014723

  Mayer bond orders larger than 0.100000
B(  0-C ,  1-O ) :   2.2414 B(  0-C ,  2-C ) :   1.0437 B(  0-C ,  4-H ) :   0.8945
B(  2-C ,  3-C ) :   1.9932 B(  2-C ,  5-H ) :   0.9394 B(  3-C ,  6-H ) :   0.9381
B(  3-C ,  7-H ) :   0.9329

-----------------------------------------------------------------------------
         ABSORPTION SPECTRUM VIA TRANSITION ELECTRIC DIPOLE MOMENTS
-----------------------------------------------------------------------------
State   Energy    Wavelength  fosc         T2        TX        TY        TZ
        (cm-1)      (nm)                 (au**2)    (au)      (au)      (au)
-----------------------------------------------------------------------------
   1   29290.8    341.4   0.001358517   0.01527   0.12200   0.01511  -0.01251

FINAL SINGLE POINT ENERGY      -191.619509980078

DIPOLE MOMENT
-------------
                                X             Y             Z
Electronic contribution:     -1.81898      -1.96821       0.28220
Nuclear contribution   :      2.33367       2.79777      -0.39523
                        -----------------------------------------
Total Dipole Moment    :      0.51469       0.82956      -0.11303
                        -----------------------------------------
Magnitude (a.u.)       :      0.98278
Magnitude (Debye)      :      2.49803

Rotational constants in cm-1:     0.851671     0.198305     0.161630
Rotational constants in MHz : 25532.454714  5945.033501  4845.531511

                             ****ORCA TERMINATED NORMALLY****
TOTAL RUN TIME: 0 days 0 hours 3 minutes 9 seconds 113 msec
