                         Program Version 5.0.3 -  RELEASE  -
|  1> ! B3LYP cc-pVDZ
|  2> !TightSCF
|  3> %scf
|  4>  ConvForced true
|  5>  convergence tight
|  6>  MaxIter 500
|  7> end
|  8>
|  9> %tddft
| 10>  nroots 1
| 11> end
| 12>
| 13> # 	28983
| 14> * xyz 0 1
| 15> 		C   -0.657426  -0.426753   0.035350
| 16> 		O   -0.534317  -1.627379  -0.013595
| 17> 		C    0.607365   0.414573  -0.043851
| 18> 		C    1.872583  -0.123600   0.019993
| 19> 		H   -1.660344   0.041422   0.105977
| 20> 		H    0.616986   1.500379  -0.076378
| 21> 		H    1.827804  -1.152040  -0.102761
| 22> 		H    2.902452   0.288737   0.156690
| 23> *
| 24>
| 25>                          ****END OF INPUT****

CARTESIAN COORDINATES (ANGSTROEM)
---------------------------------
  C     -0.657426   -0.426753    0.035350
  O     -0.534317   -1.627379   -0.013595
  C      0.607365    0.414573   -0.043851
  C      1.872583   -0.123600    0.019993
  H     -1.660344    0.041422    0.105977
  H      0.616986    1.500379   -0.076378
  H      1.827804   -1.152040   -0.102761
  H      2.902452    0.288737    0.156690

 Total Charge           Charge          ....    0
 Multiplicity           Mult            ....    1
 Number of Electrons    NEL             ....   30
 Basis Dimension        Dim             ....   76

ORBITAL ENERGIES
----------------

  NO   OCC          E(Eh)            E(eV)
   0   2.0000     -19.140168      -520.8304
   1   2.0000     -10.283521      -279.8288
   2   2.0000     -10.208924      -277.7989
   3   2.0000     -10.207642      -277.7641
   4   2.0000      -1.051881       -28.6231
   5   2.0000      -0.779641       -21.2151
   6   2.0000      -0.648865       -17.6565
   7   2.0000      -0.552323       -15.0295
   8   2.0000      -0.505799       -13.7635
   9   2.0000      -0.441664       -12.0183
  10   2.0000      -0.433277       -11.7901
  11   2.0000      -0.400769       -10.9055
  12   2.0000      -0.366789        -9.9808
  13   2.0000      -0.276218        -7.5163
  14   2.0000      -0.260311        -7.0834
  15   0.0000      -0.070524        -1.9191
  16   0.0000       0.048090         1.3086
  17   0.0000       0.074608         2.0302
  18   0.0000       0.096525         2.6266
  19   0.0000       0.114804         3.1240

MULLIKEN ATOMIC CHARGES
-----------------------
   0 C :    0.195682
   1 O :   -0.187086
   2 C :   -0.127992
   3 C :    0.070114
   4 H :    0.000026
   5 H :   -0.015113
   6 H :    0.016509
   7 H :    0.047858
Sum of atomic charges:   -0.0000000

LOEWDIN ATOMIC CHARGES
----------------------
   0 C :   -0.023770
   1 O :    0.000678
   2 C :   -0.077600
   3 C :    0.028390
   4 H :    0.003003
   5 H :    0.018295
   6 H :    0.011392
   7 H :    0.039612

  Mayer bond orders larger than 0.100000
B(  0-C ,  1-O ) :   2.1707 B(  0-C ,  2-C ) :   1.0065 B(  0-C ,  4-H ) :   0.9253
B(  2-C ,  3-C ) :   1.9491 B(  2-C ,  5-H ) :   0.9508 B(  3-C ,  6-H ) :   0.9308
B(  3-C ,  7-H ) :   0.9577

-----------------------------------------------------------------------------
         ABSORPTION SPECTRUM VIA TRANSITION ELECTRIC DIPOLE MOMENTS
-----------------------------------------------------------------------------
State   Energy    Wavelength  fosc         T2        TX        TY        TZ
        (cm-1)      (nm)                 (au**2)    (au)      (au)      (au)
-----------------------------------------------------------------------------
   1   28682.5    348.6   0.000018966   0.00022   0.00882   0.00099   0.01178

FINAL SINGLE POINT ENERGY      -191.661594908135

DIPOLE MOMENT
-------------
                                X             Y             Z
Electronic contribution:     -2.05238      -1.60408      -0.03890
Nuclear contribution   :      2.30475       2.42576       0.07785
                        -----------------------------------------
Total Dipole Moment    :      0.25237       0.82168       0.03895
                        -----------------------------------------
Magnitude (a.u.)       :      0.86045
Magnitude (Debye)      :      2.18709

Rotational constants in cm-1:     0.738185     0.208091     0.162639
Rotational constants in MHz : 22130.233293  6238.402808  4875.790754

                             ****ORCA TERMINATED NORMALLY****
TOTAL RUN TIME: 0 days 0 hours 3 minutes 25 seconds 514 msec
