                         Program Version 5.0.3 -  RELEASE  -
|  1> ! B3LYP cc-pVDZ
|  2> !TightSCF
|  3> %scf
|  4>  ConvForced true
|  5>  convergence tight
|  6>  MaxIter 500
|  7> end
|  8>
|  9> %tddft
| 10>  nroots 1
| 11> end
| 12>
| 13> # 	30041
| 14> * xyz 0 1
| 15> 		C   -0.508251  -0.430370  -0.005003
| 16> 		O   -0.614305  -1.656104   0.019813
| 17> 		C    0.617160   0.458319   0.007729
| 18> 		C    1.825454  -0.151607   0.008744
| 19> 		H   -1.584064   0.065077  -0.327772
| 20> 		H    0.585097   1.517199   0.205403
| 21> 		H    2.153322  -1.207653  -0.212671
| 22> 		H    2.571596   0.648190  -0.104750
| 23> *
| 24>
| 25>                          ****END OF INPUT****

CARTESIAN COORDINATES (ANGSTROEM)
---------------------------------
  C     -0.508251   -0.430370   -0.005003
  O     -0.614305   -1.656104    0.019813
  C      0.617160    0.458319    0.007729
  C      1.825454   -0.151607    0.008744
  H     -1.584064    0.065077   -0.327772
  H      0.585097    1.517199    0.205403
  H      2.153322   -1.207653   -0.212671
  H      2.571596    0.648190   -0.104750

 Total Charge           Charge          ....    0
 Multiplicity           Mult            ....    1
 Number of Electrons    NEL             ....   30
 Basis Dimension        Dim             ....   76

ORBITAL ENERGIES
----------------

  NO   OCC          E(Eh)            E(eV)
   0   2.0000     -19.135725      -520.7095
   1   2.0000     -10.278387      -279.6891
   2   2.0000     -10.227495      -278.3043
   3   2.0000     -10.215624      -277.9812
   4   2.0000      -1.032353       -28.0918
   5   2.0000      -0.810586       -22.0572
   6   2.0000      -0.656433       -17.8625
   7   2.0000      -0.544043       -14.8042
   8   2.0000      -0.501754       -13.6534
   9   2.0000      -0.450237       -12.2516
  10   2.0000      -0.410804       -11.1785
  11   2.0000      -0.389071       -10.5872
  12   2.0000      -0.386167       -10.5081
  13   2.0000      -0.293999        -8.0001
  14   2.0000      -0.244025        -6.6403
  15   0.0000      -0.079136        -2.1534
  16   0.0000       0.043938         1.1956
  17   0.0000       0.065809         1.7907
  18   0.0000       0.081793         2.2257
  19   0.0000       0.108166         2.9433

MULLIKEN ATOMIC CHARGES
-----------------------
   0 C :    0.149449
   1 O :   -0.203544
   2 C :   -0.071713
   3 C :    0.049871
   4 H :   -0.033698
   5 H :    0.013314
   6 H :    0.066400
   7 H :    0.029922
Sum of atomic charges:    0.0000000

LOEWDIN ATOMIC CHARGES
----------------------
   0 C :   -0.040716
   1 O :   -0.029107
   2 C :   -0.080818
   3 C :    0.041092
   4 H :   -0.013226
   5 H :    0.038960
   6 H :    0.048450
   7 H :    0.035365

  Mayer bond orders larger than 0.100000
B(  0-C ,  1-O ) :   2.1716 B(  0-C ,  2-C ) :   1.0664 B(  0-C ,  4-H ) :   0.9075
B(  1-O ,  3-C ) :   0.1017 B(  2-C ,  3-C ) :   1.9058 B(  2-C ,  5-H ) :   0.9460
B(  3-C ,  6-H ) :   0.9518 B(  3-C ,  7-H ) :   0.9392

-----------------------------------------------------------------------------
         ABSORPTION SPECTRUM VIA TRANSITION ELECTRIC DIPOLE MOMENTS
-----------------------------------------------------------------------------
State   Energy    Wavelength  fosc         T2        TX        TY        TZ
        (cm-1)      (nm)                 (au**2)    (au)      (au)      (au)
-----------------------------------------------------------------------------
   1   23976.6    417.1   0.000172333   0.00237  -0.01129  -0.00410   0.04714

FINAL SINGLE POINT ENERGY      -191.670608501431

DIPOLE MOMENT
-------------
                                X             Y             Z
Electronic contribution:     -1.63111      -1.82500       0.37737
Nuclear contribution   :      2.33329       2.74614      -0.41308
                        -----------------------------------------
Total Dipole Moment    :      0.70218       0.92115      -0.03570
                        -----------------------------------------
Magnitude (a.u.)       :      1.15881
Magnitude (Debye)      :      2.94547

Rotational constants in cm-1:     0.755193     0.208180     0.163878
Rotational constants in MHz : 22640.125969  6241.073404  4912.925720

                             ****ORCA TERMINATED NORMALLY****
TOTAL RUN TIME: 0 days 0 hours 3 minutes 8 seconds 446 msec
