                         Program Version 5.0.3 -  RELEASE  -
|  1> ! HF-3c
|  2> !TightSCF
|  3> %scf
|  4>  ConvForced true
|  5>  convergence tight
|  6>  MaxIter 500
|  7> end
|  8>
|  9> %tddft
| 10>  nroots 1
| 11> end
| 12>
| 13> # 	27762
| 14> * xyz 0 1
| 15> 		C   -0.569781  -0.439833  -0.036980
| 16> 		O   -0.614251  -1.680442   0.039717
| 17> 		C    0.679480   0.438133   0.016980
| 18> 		C    1.832111  -0.099431  -0.022893
| 19> 		H   -1.500363   0.143405  -0.271547
| 20> 		H    0.487773   1.485701   0.262584
| 21> 		H    1.883451  -1.196008  -0.250465
| 22> 		H    2.743238   0.684530   0.168805
| 23> *
| 24>
| 25>                          ****END OF INPUT****

CARTESIAN COORDINATES (ANGSTROEM)
---------------------------------
  C     -0.569781   -0.439833   -0.036980
  O     -0.614251   -1.680442    0.039717
  C      0.679480    0.438133    0.016980
  C      1.832111   -0.099431   -0.022893
  H     -1.500363    0.143405   -0.271547
  H      0.487773    1.485701    0.262584
  H      1.883451   -1.196008   -0.250465
  H      2.743238    0.684530    0.168805

 Total Charge           Charge          ....    0
 Multiplicity           Mult            ....    1
 Number of Electrons    NEL             ....   30
 Basis Dimension        Dim             ....   24

ORBITAL ENERGIES
----------------

  NO   OCC          E(Eh)            E(eV)
   0   2.0000     -20.355612      -553.9044
   1   2.0000     -11.282745      -307.0191
   2   2.0000     -11.187908      -304.4385
   3   2.0000     -11.183740      -304.3250
   4   2.0000      -1.374003       -37.3885
   5   2.0000      -1.089452       -29.6455
   6   2.0000      -0.873128       -23.7590
   7   2.0000      -0.729672       -19.8554
   8   2.0000      -0.690397       -18.7867
   9   2.0000      -0.602449       -16.3935
  10   2.0000      -0.579061       -15.7570
  11   2.0000      -0.520743       -14.1701
  12   2.0000      -0.518128       -14.0990
  13   2.0000      -0.408890       -11.1265
  14   2.0000      -0.402776       -10.9601
  15   0.0000       0.144844         3.9414
  16   0.0000       0.308842         8.4040
  17   0.0000       0.490278        13.3411
  18   0.0000       0.541630        14.7385
  19   0.0000       0.616269        16.7695

MULLIKEN ATOMIC CHARGES
-----------------------
   0 C :    0.166932
   1 O :   -0.354748
   2 C :   -0.190619
   3 C :   -0.214999
   4 H :    0.131131
   5 H :    0.141278
   6 H :    0.166506
   7 H :    0.154519
Sum of atomic charges:   -0.0000000

LOEWDIN ATOMIC CHARGES
----------------------
   0 C :    0.153374
   1 O :   -0.268823
   2 C :   -0.145923
   3 C :   -0.126581
   4 H :    0.070865
   5 H :    0.090171
   6 H :    0.114009
   7 H :    0.112908

  Mayer bond orders larger than 0.100000
B(  0-C ,  1-O ) :   1.9214 B(  0-C ,  2-C ) :   0.9970 B(  0-C ,  4-H ) :   0.9279
B(  2-C ,  3-C ) :   1.9730 B(  2-C ,  5-H ) :   0.9561 B(  3-C ,  6-H ) :   0.9506
B(  3-C ,  7-H ) :   0.9528

-----------------------------------------------------------------------------
         ABSORPTION SPECTRUM VIA TRANSITION ELECTRIC DIPOLE MOMENTS
-----------------------------------------------------------------------------
State   Energy    Wavelength  fosc         T2        TX        TY        TZ
        (cm-1)      (nm)                 (au**2)    (au)      (au)      (au)
-----------------------------------------------------------------------------
   1   31911.4    313.4   0.000103158   0.00106  -0.02854  -0.00374  -0.01535

Dispersion correction           -0.025632209
FINAL SINGLE POINT ENERGY      -189.327500501265

DIPOLE MOMENT
-------------
                                X             Y             Z
Electronic contribution:     -1.85655      -1.84169       0.04499
Nuclear contribution   :      2.22986       2.83630      -0.08637
                        -----------------------------------------
Total Dipole Moment    :      0.37331       0.99461      -0.04138
                        -----------------------------------------
Magnitude (a.u.)       :      1.06317
Magnitude (Debye)      :      2.70235

Rotational constants in cm-1:     0.785375     0.199621     0.160033
Rotational constants in MHz : 23544.953650  5984.480631  4797.673216

                             ****ORCA TERMINATED NORMALLY****
TOTAL RUN TIME: 0 days 0 hours 0 minutes 10 seconds 628 msec
