                         Program Version 5.0.3 -  RELEASE  -
|  1> ! B3LYP cc-pVDZ
|  2> !TightSCF
|  3> %scf
|  4>  ConvForced true
|  5>  convergence tight
|  6>  MaxIter 500
|  7> end
|  8>
|  9> %tddft
| 10>  nroots 1
| 11> end
| 12>
| 13> # 	1661
| 14> * xyz 0 1
| 15> 		C   -1.245124  -0.367864   0.068422
| 16> 		O   -1.297569  -1.627942   0.151789
| 17> 		C   -0.027772   0.538668   0.076466
| 18> 		C    1.223500   0.002326   0.046475
| 19> 		H   -2.268942   0.219572  -0.186932
| 20> 		H   -0.018497   1.712700   0.092157
| 21> 		H    1.619709  -1.061560  -0.072032
| 22> 		H    1.982958   0.603195  -0.037774
| 23> *
| 24>
| 25>                          ****END OF INPUT****

CARTESIAN COORDINATES (ANGSTROEM)
---------------------------------
  C     -1.245124   -0.367864    0.068422
  O     -1.297569   -1.627942    0.151789
  C     -0.027772    0.538668    0.076466
  C      1.223500    0.002326    0.046475
  H     -2.268942    0.219572   -0.186932
  H     -0.018497    1.712700    0.092157
  H      1.619709   -1.061560   -0.072032
  H      1.982958    0.603195   -0.037774

 Total Charge           Charge          ....    0
 Multiplicity           Mult            ....    1
 Number of Electrons    NEL             ....   30
 Basis Dimension        Dim             ....   76

ORBITAL ENERGIES
----------------

  NO   OCC          E(Eh)            E(eV)
   0   2.0000     -19.145074      -520.9640
   1   2.0000     -10.293253      -280.0936
   2   2.0000     -10.227512      -278.3048
   3   2.0000     -10.214132      -277.9407
   4   2.0000      -1.018933       -27.7266
   5   2.0000      -0.793584       -21.5945
   6   2.0000      -0.658828       -17.9276
   7   2.0000      -0.545160       -14.8346
   8   2.0000      -0.494366       -13.4524
   9   2.0000      -0.442454       -12.0398
  10   2.0000      -0.414276       -11.2730
  11   2.0000      -0.383072       -10.4239
  12   2.0000      -0.380160       -10.3447
  13   2.0000      -0.289125        -7.8675
  14   2.0000      -0.256412        -6.9773
  15   0.0000      -0.078987        -2.1493
  16   0.0000       0.041532         1.1301
  17   0.0000       0.056233         1.5302
  18   0.0000       0.081730         2.2240
  19   0.0000       0.098082         2.6689

MULLIKEN ATOMIC CHARGES
-----------------------
   0 C :    0.177467
   1 O :   -0.219840
   2 C :   -0.149536
   3 C :    0.112706
   4 H :    0.002286
   5 H :    0.035859
   6 H :    0.053298
   7 H :   -0.012239
Sum of atomic charges:   -0.0000000

LOEWDIN ATOMIC CHARGES
----------------------
   0 C :   -0.005908
   1 O :   -0.051069
   2 C :   -0.087202
   3 C :    0.043436
   4 H :    0.002264
   5 H :    0.054791
   6 H :    0.048580
   7 H :   -0.004893

  Mayer bond orders larger than 0.100000
B(  0-C ,  1-O ) :   2.1473 B(  0-C ,  2-C ) :   1.0132 B(  0-C ,  4-H ) :   0.9033
B(  2-C ,  3-C ) :   1.9495 B(  2-C ,  5-H ) :   0.9333 B(  3-C ,  6-H ) :   0.9594
B(  3-C ,  7-H ) :   0.9388

-----------------------------------------------------------------------------
         ABSORPTION SPECTRUM VIA TRANSITION ELECTRIC DIPOLE MOMENTS
-----------------------------------------------------------------------------
State   Energy    Wavelength  fosc         T2        TX        TY        TZ
        (cm-1)      (nm)                 (au**2)    (au)      (au)      (au)
-----------------------------------------------------------------------------
   1   26107.5    383.0   0.000062647   0.00079   0.00356   0.00679  -0.02704

FINAL SINGLE POINT ENERGY      -191.654804095182

DIPOLE MOMENT
-------------
                                X             Y             Z
Electronic contribution:     -1.95793      -1.89792       0.38161
Nuclear contribution   :      2.56056       2.86938      -0.49348
                        -----------------------------------------
Total Dipole Moment    :      0.60263       0.97146      -0.11187
                        -----------------------------------------
Magnitude (a.u.)       :      1.14866
Magnitude (Debye)      :      2.91965

Rotational constants in cm-1:     0.728188     0.190735     0.151498
Rotational constants in MHz : 21830.517602  5718.098344  4541.783027

                             ****ORCA TERMINATED NORMALLY****
TOTAL RUN TIME: 0 days 0 hours 3 minutes 12 seconds 261 msec
