                         Program Version 5.0.3 -  RELEASE  -
|  1> ! B3LYP cc-pVDZ
|  2> !TightSCF
|  3> %scf
|  4>  ConvForced true
|  5>  convergence tight
|  6>  MaxIter 500
|  7> end
|  8>
|  9> %tddft
| 10>  nroots 1
| 11> end
| 12>
| 13> # 	25231
| 14> * xyz 0 1
| 15> 		C   -0.590481  -0.411016  -0.049686
| 16> 		O   -0.601354  -1.669501   0.002598
| 17> 		C    0.634940   0.361387   0.034126
| 18> 		C    1.869384  -0.068431   0.024498
| 19> 		H   -1.518102   0.200174   0.188532
| 20> 		H    0.527397   1.528051  -0.083471
| 21> 		H    1.882771  -1.180751   0.053710
| 22> 		H    2.820544   0.608351  -0.331139
| 23> *
| 24>
| 25>                          ****END OF INPUT****

CARTESIAN COORDINATES (ANGSTROEM)
---------------------------------
  C     -0.590481   -0.411016   -0.049686
  O     -0.601354   -1.669501    0.002598
  C      0.634940    0.361387    0.034126
  C      1.869384   -0.068431    0.024498
  H     -1.518102    0.200174    0.188532
  H      0.527397    1.528051   -0.083471
  H      1.882771   -1.180751    0.053710
  H      2.820544    0.608351   -0.331139

 Total Charge           Charge          ....    0
 Multiplicity           Mult            ....    1
 Number of Electrons    NEL             ....   30
 Basis Dimension        Dim             ....   76

ORBITAL ENERGIES
----------------

  NO   OCC          E(Eh)            E(eV)
   0   2.0000     -19.144784      -520.9560
   1   2.0000     -10.283814      -279.8368
   2   2.0000     -10.223433      -278.1937
   3   2.0000     -10.208572      -277.7894
   4   2.0000      -1.025135       -27.8953
   5   2.0000      -0.802315       -21.8321
   6   2.0000      -0.661978       -18.0133
   7   2.0000      -0.525430       -14.2977
   8   2.0000      -0.502266       -13.6673
   9   2.0000      -0.441731       -12.0201
  10   2.0000      -0.425986       -11.5917
  11   2.0000      -0.388983       -10.5848
  12   2.0000      -0.357171        -9.7191
  13   2.0000      -0.291765        -7.9393
  14   2.0000      -0.261241        -7.1087
  15   0.0000      -0.085055        -2.3145
  16   0.0000       0.041068         1.1175
  17   0.0000       0.054914         1.4943
  18   0.0000       0.087118         2.3706
  19   0.0000       0.117430         3.1954

MULLIKEN ATOMIC CHARGES
-----------------------
   0 C :    0.186084
   1 O :   -0.224180
   2 C :   -0.110587
   3 C :    0.017207
   4 H :    0.008842
   5 H :    0.004966
   6 H :    0.044440
   7 H :    0.073228
Sum of atomic charges:    0.0000000

LOEWDIN ATOMIC CHARGES
----------------------
   0 C :   -0.014303
   1 O :   -0.041210
   2 C :   -0.100440
   3 C :    0.004088
   4 H :    0.010458
   5 H :    0.037848
   6 H :    0.038086
   7 H :    0.065473

  Mayer bond orders larger than 0.100000
B(  0-C ,  1-O ) :   2.1137 B(  0-C ,  2-C ) :   1.0838 B(  0-C ,  4-H ) :   0.9146
B(  2-C ,  3-C ) :   1.9564 B(  2-C ,  5-H ) :   0.9289 B(  3-C ,  6-H ) :   0.9165
B(  3-C ,  7-H ) :   0.9326

-----------------------------------------------------------------------------
         ABSORPTION SPECTRUM VIA TRANSITION ELECTRIC DIPOLE MOMENTS
-----------------------------------------------------------------------------
State   Energy    Wavelength  fosc         T2        TX        TY        TZ
        (cm-1)      (nm)                 (au**2)    (au)      (au)      (au)
-----------------------------------------------------------------------------
   1   25377.5    394.0   0.000351522   0.00456  -0.04010   0.01312   0.05272

FINAL SINGLE POINT ENERGY      -191.662706590165

DIPOLE MOMENT
-------------
                                X             Y             Z
Electronic contribution:     -1.91644      -1.93898       0.07016
Nuclear contribution   :      2.32451       2.87161      -0.16000
                        -----------------------------------------
Total Dipole Moment    :      0.40807       0.93263      -0.08985
                        -----------------------------------------
Magnitude (a.u.)       :      1.02195
Magnitude (Debye)      :      2.59759

Rotational constants in cm-1:     0.784155     0.200370     0.160219
Rotational constants in MHz : 23508.374755  6006.952637  4803.255109

                             ****ORCA TERMINATED NORMALLY****
TOTAL RUN TIME: 0 days 0 hours 3 minutes 13 seconds 625 msec
