                         Program Version 5.0.3 -  RELEASE  -
|  1> ! B3LYP cc-pVDZ
|  2> !TightSCF
|  3> %scf
|  4>  ConvForced true
|  5>  convergence tight
|  6>  MaxIter 500
|  7> end
|  8>
|  9> %tddft
| 10>  nroots 1
| 11> end
| 12>
| 13> # 	17981
| 14> * xyz 0 1
| 15> 		C   -1.268083  -0.361822   0.046047
| 16> 		O   -1.234708  -1.503727  -0.097942
| 17> 		C   -0.056657   0.536582   0.000450
| 18> 		C    1.202005  -0.010932   0.034147
| 19> 		H   -2.010638   0.229421   0.177011
| 20> 		H   -0.165633   1.657305  -0.047223
| 21> 		H    1.498832  -1.086238   0.071081
| 22> 		H    2.053908   0.575796  -0.187919
| 23> *
| 24>
| 25>                          ****END OF INPUT****

CARTESIAN COORDINATES (ANGSTROEM)
---------------------------------
  C     -1.268083   -0.361822    0.046047
  O     -1.234708   -1.503727   -0.097942
  C     -0.056657    0.536582    0.000450
  C      1.202005   -0.010932    0.034147
  H     -2.010638    0.229421    0.177011
  H     -0.165633    1.657305   -0.047223
  H      1.498832   -1.086238    0.071081
  H      2.053908    0.575796   -0.187919

 Total Charge           Charge          ....    0
 Multiplicity           Mult            ....    1
 Number of Electrons    NEL             ....   30
 Basis Dimension        Dim             ....   76

ORBITAL ENERGIES
----------------

  NO   OCC          E(Eh)            E(eV)
   0   2.0000     -19.138657      -520.7893
   1   2.0000     -10.259209      -279.1673
   2   2.0000     -10.209129      -277.8045
   3   2.0000     -10.201956      -277.6093
   4   2.0000      -1.079685       -29.3797
   5   2.0000      -0.778741       -21.1906
   6   2.0000      -0.670516       -18.2457
   7   2.0000      -0.559053       -15.2126
   8   2.0000      -0.500501       -13.6193
   9   2.0000      -0.453332       -12.3358
  10   2.0000      -0.427134       -11.6229
  11   2.0000      -0.411186       -11.1889
  12   2.0000      -0.379972       -10.3396
  13   2.0000      -0.278280        -7.5724
  14   2.0000      -0.253659        -6.9024
  15   0.0000      -0.062804        -1.7090
  16   0.0000       0.062028         1.6879
  17   0.0000       0.074127         2.0171
  18   0.0000       0.092430         2.5151
  19   0.0000       0.131169         3.5693

MULLIKEN ATOMIC CHARGES
-----------------------
   0 C :    0.291811
   1 O :   -0.145124
   2 C :   -0.192012
   3 C :    0.052860
   4 H :   -0.077375
   5 H :    0.007733
   6 H :    0.042754
   7 H :    0.019353
Sum of atomic charges:   -0.0000000

LOEWDIN ATOMIC CHARGES
----------------------
   0 C :   -0.054029
   1 O :    0.066522
   2 C :   -0.081605
   3 C :    0.019230
   4 H :   -0.039911
   5 H :    0.034192
   6 H :    0.036448
   7 H :    0.019152

  Mayer bond orders larger than 0.100000
B(  0-C ,  1-O ) :   2.2817 B(  0-C ,  2-C ) :   1.0248 B(  0-C ,  4-H ) :   0.9259
B(  2-C ,  3-C ) :   1.9611 B(  2-C ,  5-H ) :   0.9369 B(  3-C ,  6-H ) :   0.9529
B(  3-C ,  7-H ) :   0.9503

-----------------------------------------------------------------------------
         ABSORPTION SPECTRUM VIA TRANSITION ELECTRIC DIPOLE MOMENTS
-----------------------------------------------------------------------------
State   Energy    Wavelength  fosc         T2        TX        TY        TZ
        (cm-1)      (nm)                 (au**2)    (au)      (au)      (au)
-----------------------------------------------------------------------------
   1   29354.8    340.7   0.000031089   0.00035   0.01837   0.00175  -0.00285

FINAL SINGLE POINT ENERGY      -191.637399293341

DIPOLE MOMENT
-------------
                                X             Y             Z
Electronic contribution:     -2.32757      -1.86280       0.00542
Nuclear contribution   :      2.60641       2.66020       0.05003
                        -----------------------------------------
Total Dipole Moment    :      0.27884       0.79740       0.05546
                        -----------------------------------------
Magnitude (a.u.)       :      0.84657
Magnitude (Debye)      :      2.15180

Rotational constants in cm-1:     0.761866     0.208325     0.164171
Rotational constants in MHz : 22840.180211  6245.431118  4921.718282

                             ****ORCA TERMINATED NORMALLY****
TOTAL RUN TIME: 0 days 0 hours 3 minutes 22 seconds 595 msec
