                         Program Version 5.0.3 -  RELEASE  -
|  1> ! B3LYP cc-pVDZ
|  2> !TightSCF
|  3> %scf
|  4>  ConvForced true
|  5>  convergence tight
|  6>  MaxIter 500
|  7> end
|  8>
|  9> %tddft
| 10>  nroots 1
| 11> end
| 12>
| 13> # 	8878
| 14> * xyz 0 1
| 15> 		C   -1.148356  -0.386649   0.043635
| 16> 		O   -2.239574  -0.349333   0.631456
| 17> 		C    0.036866   0.307290   0.462489
| 18> 		C    1.159079   0.118456  -0.249688
| 19> 		H   -1.144533  -0.908994  -0.894679
| 20> 		H    0.001585   1.210778   1.238804
| 21> 		H    1.170248  -0.799684  -0.987952
| 22> 		H    2.154902   0.738806  -0.201267
| 23> *
| 24>
| 25>                          ****END OF INPUT****

CARTESIAN COORDINATES (ANGSTROEM)
---------------------------------
  C     -1.148356   -0.386649    0.043635
  O     -2.239574   -0.349333    0.631456
  C      0.036866    0.307290    0.462489
  C      1.159079    0.118456   -0.249688
  H     -1.144533   -0.908994   -0.894679
  H      0.001585    1.210778    1.238804
  H      1.170248   -0.799684   -0.987952
  H      2.154902    0.738806   -0.201267

 Total Charge           Charge          ....    0
 Multiplicity           Mult            ....    1
 Number of Electrons    NEL             ....   30
 Basis Dimension        Dim             ....   76

ORBITAL ENERGIES
----------------

  NO   OCC          E(Eh)            E(eV)
   0   2.0000     -19.131240      -520.5875
   1   2.0000     -10.270115      -279.4640
   2   2.0000     -10.237567      -278.5784
   3   2.0000     -10.219827      -278.0956
   4   2.0000      -1.026067       -27.9207
   5   2.0000      -0.807729       -21.9794
   6   2.0000      -0.642367       -17.4797
   7   2.0000      -0.565102       -15.3772
   8   2.0000      -0.475712       -12.9448
   9   2.0000      -0.466360       -12.6903
  10   2.0000      -0.410442       -11.1687
  11   2.0000      -0.387236       -10.5372
  12   2.0000      -0.376980       -10.2582
  13   2.0000      -0.292465        -7.9584
  14   2.0000      -0.252311        -6.8657
  15   0.0000      -0.071091        -1.9345
  16   0.0000       0.037737         1.0269
  17   0.0000       0.059211         1.6112
  18   0.0000       0.061026         1.6606
  19   0.0000       0.122418         3.3312

MULLIKEN ATOMIC CHARGES
-----------------------
   0 C :    0.203849
   1 O :   -0.227334
   2 C :   -0.081095
   3 C :   -0.027133
   4 H :   -0.025019
   5 H :    0.042194
   6 H :    0.050957
   7 H :    0.063583
Sum of atomic charges:   -0.0000000

LOEWDIN ATOMIC CHARGES
----------------------
   0 C :   -0.032404
   1 O :   -0.031798
   2 C :   -0.073875
   3 C :   -0.008375
   4 H :   -0.002664
   5 H :    0.057289
   6 H :    0.043327
   7 H :    0.048500

  Mayer bond orders larger than 0.100000
B(  0-C ,  1-O ) :   2.1181 B(  0-C ,  2-C ) :   1.0895 B(  0-C ,  4-H ) :   0.9417
B(  1-O ,  3-C ) :   0.1093 B(  2-C ,  3-C ) :   1.8891 B(  2-C ,  5-H ) :   0.9399
B(  3-C ,  6-H ) :   0.9354 B(  3-C ,  7-H ) :   0.9412

-----------------------------------------------------------------------------
         ABSORPTION SPECTRUM VIA TRANSITION ELECTRIC DIPOLE MOMENTS
-----------------------------------------------------------------------------
State   Energy    Wavelength  fosc         T2        TX        TY        TZ
        (cm-1)      (nm)                 (au**2)    (au)      (au)      (au)
-----------------------------------------------------------------------------
   1   26832.3    372.7   0.000059730   0.00073  -0.01118  -0.02280   0.00940

FINAL SINGLE POINT ENERGY      -191.668958033061

DIPOLE MOMENT
-------------
                                X             Y             Z
Electronic contribution:     -3.06255      -0.39868       1.15817
Nuclear contribution   :      4.23578       0.54855      -1.61214
                        -----------------------------------------
Total Dipole Moment    :      1.17322       0.14987      -0.45398
                        -----------------------------------------
Magnitude (a.u.)       :      1.26689
Magnitude (Debye)      :      3.22017

Rotational constants in cm-1:     1.508933     0.156579     0.142315
Rotational constants in MHz : 45236.670217  4694.122337  4266.503880

                             ****ORCA TERMINATED NORMALLY****
TOTAL RUN TIME: 0 days 0 hours 3 minutes 20 seconds 610 msec
