                         Program Version 5.0.3 -  RELEASE  -
|  1> ! HF-3c
|  2> !TightSCF
|  3> %scf
|  4>  ConvForced true
|  5>  convergence tight
|  6>  MaxIter 500
|  7> end
|  8>
|  9> %tddft
| 10>  nroots 1
| 11> end
| 12>
| 13> # 	13464
| 14> * xyz 0 1
| 15> 		C   -1.175038  -0.246557   0.055440
| 16> 		O   -1.245740  -1.411323  -0.342378
| 17> 		C    0.034062   0.606667  -0.048067
| 18> 		C    1.235185   0.031112   0.175547
| 19> 		H   -2.172201   0.060826   0.344603
| 20> 		H   -0.122904   1.571409  -0.423718
| 21> 		H    1.291590  -1.096411   0.401731
| 22> 		H    2.159330   0.490246  -0.126161
| 23> *
| 24>
| 25>                          ****END OF INPUT****

CARTESIAN COORDINATES (ANGSTROEM)
---------------------------------
  C     -1.175038   -0.246557    0.055440
  O     -1.245740   -1.411323   -0.342378
  C      0.034062    0.606667   -0.048067
  C      1.235185    0.031112    0.175547
  H     -2.172201    0.060826    0.344603
  H     -0.122904    1.571409   -0.423718
  H      1.291590   -1.096411    0.401731
  H      2.159330    0.490246   -0.126161

 Total Charge           Charge          ....    0
 Multiplicity           Mult            ....    1
 Number of Electrons    NEL             ....   30
 Basis Dimension        Dim             ....   24

ORBITAL ENERGIES
----------------

  NO   OCC          E(Eh)            E(eV)
   0   2.0000     -20.351445      -553.7910
   1   2.0000     -11.282999      -307.0260
   2   2.0000     -11.194866      -304.6278
   3   2.0000     -11.190829      -304.5179
   4   2.0000      -1.385216       -37.6936
   5   2.0000      -1.074361       -29.2348
   6   2.0000      -0.882429       -24.0121
   7   2.0000      -0.758033       -20.6271
   8   2.0000      -0.702876       -19.1262
   9   2.0000      -0.617213       -16.7952
  10   2.0000      -0.590473       -16.0676
  11   2.0000      -0.534397       -14.5417
  12   2.0000      -0.509606       -13.8671
  13   2.0000      -0.412469       -11.2239
  14   2.0000      -0.392550       -10.6818
  15   0.0000       0.139312         3.7909
  16   0.0000       0.268015         7.2931
  17   0.0000       0.527267        14.3477
  18   0.0000       0.614720        16.7274
  19   0.0000       0.668902        18.2018

MULLIKEN ATOMIC CHARGES
-----------------------
   0 C :    0.142267
   1 O :   -0.346423
   2 C :   -0.183184
   3 C :   -0.209416
   4 H :    0.143868
   5 H :    0.149817
   6 H :    0.158568
   7 H :    0.144502
Sum of atomic charges:   -0.0000000

LOEWDIN ATOMIC CHARGES
----------------------
   0 C :    0.133503
   1 O :   -0.260361
   2 C :   -0.132424
   3 C :   -0.115998
   4 H :    0.078477
   5 H :    0.094068
   6 H :    0.109926
   7 H :    0.092809

  Mayer bond orders larger than 0.100000
B(  0-C ,  1-O ) :   1.9077 B(  0-C ,  2-C ) :   1.0211 B(  0-C ,  4-H ) :   0.9363
B(  2-C ,  3-C ) :   1.9558 B(  2-C ,  5-H ) :   0.9563 B(  3-C ,  6-H ) :   0.9577
B(  3-C ,  7-H ) :   0.9650

-----------------------------------------------------------------------------
         ABSORPTION SPECTRUM VIA TRANSITION ELECTRIC DIPOLE MOMENTS
-----------------------------------------------------------------------------
State   Energy    Wavelength  fosc         T2        TX        TY        TZ
        (cm-1)      (nm)                 (au**2)    (au)      (au)      (au)
-----------------------------------------------------------------------------
   1   30916.6    323.5   0.000018248   0.00019   0.01034  -0.00488   0.00798

Dispersion correction           -0.025497216
FINAL SINGLE POINT ENERGY      -189.334119388114

DIPOLE MOMENT
-------------
                                X             Y             Z
Electronic contribution:     -1.89659      -1.29172      -0.17541
Nuclear contribution   :      2.25094       2.07385       0.38640
                        -----------------------------------------
Total Dipole Moment    :      0.35434       0.78213       0.21099
                        -----------------------------------------
Magnitude (a.u.)       :      0.88419
Magnitude (Debye)      :      2.24744

Rotational constants in cm-1:     0.762751     0.202163     0.164792
Rotational constants in MHz : 22866.699252  6060.704384  4940.332439

                             ****ORCA TERMINATED NORMALLY****
TOTAL RUN TIME: 0 days 0 hours 0 minutes 16 seconds 56 msec
