                         Program Version 5.0.3 -  RELEASE  -
|  1> ! HF-3c
|  2> !TightSCF
|  3> %scf
|  4>  ConvForced true
|  5>  convergence tight
|  6>  MaxIter 500
|  7> end
|  8>
|  9> %tddft
| 10>  nroots 1
| 11> end
| 12>
| 13> # 	10351
| 14> * xyz 0 1
| 15> 		C   -1.191291  -0.314682  -0.009685
| 16> 		O   -1.889516  -0.723181   0.985518
| 17> 		C    0.072666   0.476224   0.171995
| 18> 		C    1.221366   0.029873  -0.257052
| 19> 		H   -1.556426  -0.662598  -1.011300
| 20> 		H    0.060467   1.321573   1.019717
| 21> 		H    1.228206  -0.617507  -0.803239
| 22> 		H    2.040313   0.601803  -0.109262
| 23> *
| 24>
| 25>                          ****END OF INPUT****

CARTESIAN COORDINATES (ANGSTROEM)
---------------------------------
  C     -1.191291   -0.314682   -0.009685
  O     -1.889516   -0.723181    0.985518
  C      0.072666    0.476224    0.171995
  C      1.221366    0.029873   -0.257052
  H     -1.556426   -0.662598   -1.011300
  H      0.060467    1.321573    1.019717
  H      1.228206   -0.617507   -0.803239
  H      2.040313    0.601803   -0.109262

 Total Charge           Charge          ....    0
 Multiplicity           Mult            ....    1
 Number of Electrons    NEL             ....   30
 Basis Dimension        Dim             ....   24

ORBITAL ENERGIES
----------------

  NO   OCC          E(Eh)            E(eV)
   0   2.0000     -20.357391      -553.9528
   1   2.0000     -11.287565      -307.1503
   2   2.0000     -11.215799      -305.1974
   3   2.0000     -11.202577      -304.8376
   4   2.0000      -1.358227       -36.9592
   5   2.0000      -1.115477       -30.3537
   6   2.0000      -0.902400       -24.5555
   7   2.0000      -0.789236       -21.4762
   8   2.0000      -0.700662       -19.0660
   9   2.0000      -0.654883       -17.8203
  10   2.0000      -0.580364       -15.7925
  11   2.0000      -0.559633       -15.2284
  12   2.0000      -0.492869       -13.4116
  13   2.0000      -0.423703       -11.5295
  14   2.0000      -0.413421       -11.2498
  15   0.0000       0.133087         3.6215
  16   0.0000       0.242442         6.5972
  17   0.0000       0.513416        13.9708
  18   0.0000       0.560464        15.2510
  19   0.0000       0.707849        19.2615

MULLIKEN ATOMIC CHARGES
-----------------------
   0 C :    0.142865
   1 O :   -0.330802
   2 C :   -0.110938
   3 C :   -0.319041
   4 H :    0.150669
   5 H :    0.167806
   6 H :    0.138724
   7 H :    0.160716
Sum of atomic charges:   -0.0000000

LOEWDIN ATOMIC CHARGES
----------------------
   0 C :    0.139079
   1 O :   -0.256458
   2 C :   -0.065524
   3 C :   -0.202205
   4 H :    0.089032
   5 H :    0.119564
   6 H :    0.073474
   7 H :    0.103038

  Mayer bond orders larger than 0.100000
B(  0-C ,  1-O ) :   1.9243 B(  0-C ,  2-C ) :   1.0102 B(  0-C ,  4-H ) :   0.9299
B(  2-C ,  3-C ) :   1.9744 B(  2-C ,  5-H ) :   0.9431 B(  3-C ,  6-H ) :   0.9698
B(  3-C ,  7-H ) :   0.9593

-----------------------------------------------------------------------------
         ABSORPTION SPECTRUM VIA TRANSITION ELECTRIC DIPOLE MOMENTS
-----------------------------------------------------------------------------
State   Energy    Wavelength  fosc         T2        TX        TY        TZ
        (cm-1)      (nm)                 (au**2)    (au)      (au)      (au)
-----------------------------------------------------------------------------
   1   29544.9    338.5   0.000161807   0.00180  -0.04079   0.00209   0.01163

Dispersion correction           -0.025343904
FINAL SINGLE POINT ENERGY      -189.256929441293

DIPOLE MOMENT
-------------
                                X             Y             Z
Electronic contribution:     -2.90716      -0.71387       1.14690
Nuclear contribution   :      3.46351       1.17225      -1.75547
                        -----------------------------------------
Total Dipole Moment    :      0.55635       0.45837      -0.60856
                        -----------------------------------------
Magnitude (a.u.)       :      0.94339
Magnitude (Debye)      :      2.39791

Rotational constants in cm-1:     1.185682     0.156169     0.150477
Rotational constants in MHz : 35545.838024  4681.828887  4511.186334

                             ****ORCA TERMINATED NORMALLY****
TOTAL RUN TIME: 0 days 0 hours 0 minutes 12 seconds 564 msec
