                         Program Version 5.0.3 -  RELEASE  -
|  1> ! B3LYP cc-pVDZ
|  2> !TightSCF
|  3> %scf
|  4>  ConvForced true
|  5>  convergence tight
|  6>  MaxIter 500
|  7> end
|  8>
|  9> %tddft
| 10>  nroots 1
| 11> end
| 12>
| 13> # 	874
| 14> * xyz 0 1
| 15> 		C   -1.233960  -0.386745   0.046530
| 16> 		O   -2.031614  -0.757445   0.776708
| 17> 		C    0.031039   0.363827   0.338514
| 18> 		C    1.225099   0.185111  -0.192101
| 19> 		H   -1.211895  -0.656710  -1.012014
| 20> 		H   -0.043300   1.149574   1.032418
| 21> 		H    1.204330  -0.556929  -0.951629
| 22> 		H    2.111571   0.658036  -0.017816
| 23> *
| 24>
| 25>                          ****END OF INPUT****

CARTESIAN COORDINATES (ANGSTROEM)
---------------------------------
  C     -1.233960   -0.386745    0.046530
  O     -2.031614   -0.757445    0.776708
  C      0.031039    0.363827    0.338514
  C      1.225099    0.185111   -0.192101
  H     -1.211895   -0.656710   -1.012014
  H     -0.043300    1.149574    1.032418
  H      1.204330   -0.556929   -0.951629
  H      2.111571    0.658036   -0.017816

 Total Charge           Charge          ....    0
 Multiplicity           Mult            ....    1
 Number of Electrons    NEL             ....   30
 Basis Dimension        Dim             ....   76

ORBITAL ENERGIES
----------------

  NO   OCC          E(Eh)            E(eV)
   0   2.0000     -19.147909      -521.0411
   1   2.0000     -10.276074      -279.6262
   2   2.0000     -10.199802      -277.5507
   3   2.0000     -10.195770      -277.4410
   4   2.0000      -1.092518       -29.7289
   5   2.0000      -0.803907       -21.8754
   6   2.0000      -0.653947       -17.7948
   7   2.0000      -0.572996       -15.5920
   8   2.0000      -0.490412       -13.3448
   9   2.0000      -0.484045       -13.1715
  10   2.0000      -0.449845       -12.2409
  11   2.0000      -0.421064       -11.4577
  12   2.0000      -0.375613       -10.2209
  13   2.0000      -0.293730        -7.9928
  14   2.0000      -0.256934        -6.9915
  15   0.0000      -0.050688        -1.3793
  16   0.0000       0.040416         1.0998
  17   0.0000       0.088245         2.4013
  18   0.0000       0.098187         2.6718
  19   0.0000       0.132742         3.6121

MULLIKEN ATOMIC CHARGES
-----------------------
   0 C :    0.188366
   1 O :   -0.121536
   2 C :   -0.128317
   3 C :    0.122378
   4 H :   -0.048956
   5 H :   -0.016784
   6 H :   -0.002263
   7 H :    0.007113
Sum of atomic charges:   -0.0000000

LOEWDIN ATOMIC CHARGES
----------------------
   0 C :   -0.070020
   1 O :    0.080806
   2 C :   -0.053255
   3 C :    0.009252
   4 H :   -0.020499
   5 H :    0.017775
   6 H :    0.020957
   7 H :    0.014985

  Mayer bond orders larger than 0.100000
B(  0-C ,  1-O ) :   2.2897 B(  0-C ,  2-C ) :   1.0018 B(  0-C ,  4-H ) :   0.9016
B(  2-C ,  3-C ) :   2.0090 B(  2-C ,  5-H ) :   0.9502 B(  3-C ,  6-H ) :   0.9297
B(  3-C ,  7-H ) :   0.9429

-----------------------------------------------------------------------------
         ABSORPTION SPECTRUM VIA TRANSITION ELECTRIC DIPOLE MOMENTS
-----------------------------------------------------------------------------
State   Energy    Wavelength  fosc         T2        TX        TY        TZ
        (cm-1)      (nm)                 (au**2)    (au)      (au)      (au)
-----------------------------------------------------------------------------
   1   32519.0    307.5   0.000188687   0.00191   0.02235   0.02352   0.02928

FINAL SINGLE POINT ENERGY      -191.634942364237

DIPOLE MOMENT
-------------
                                X             Y             Z
Electronic contribution:     -3.17201      -0.83342       1.37950
Nuclear contribution   :      3.93002       1.18925      -1.80539
                        -----------------------------------------
Total Dipole Moment    :      0.75801       0.35583      -0.42589
                        -----------------------------------------
Magnitude (a.u.)       :      0.93946
Magnitude (Debye)      :      2.38792

Rotational constants in cm-1:     1.601820     0.153060     0.144749
Rotational constants in MHz : 48021.356333  4588.624308  4339.451788

                             ****ORCA TERMINATED NORMALLY****
TOTAL RUN TIME: 0 days 0 hours 3 minutes 20 seconds 508 msec
