                         Program Version 5.0.3 -  RELEASE  -
|  1> ! B3LYP cc-pVDZ
|  2> !TightSCF
|  3> %scf
|  4>  ConvForced true
|  5>  convergence tight
|  6>  MaxIter 500
|  7> end
|  8>
|  9> %tddft
| 10>  nroots 1
| 11> end
| 12>
| 13> # 	492
| 14> * xyz 0 1
| 15> 		C   -1.235753  -0.423792  -0.022912
| 16> 		O   -1.813432  -0.953176  -0.952421
| 17> 		C    0.002860   0.406758  -0.285582
| 18> 		C    1.156566   0.033058   0.215705
| 19> 		H   -1.641948  -0.396679   1.058611
| 20> 		H    0.084232   1.299806  -1.045426
| 21> 		H    1.381665  -0.661825   0.789955
| 22> 		H    2.007305   0.640174   0.108509
| 23> *
| 24>
| 25>                          ****END OF INPUT****

CARTESIAN COORDINATES (ANGSTROEM)
---------------------------------
  C     -1.235753   -0.423792   -0.022912
  O     -1.813432   -0.953176   -0.952421
  C      0.002860    0.406758   -0.285582
  C      1.156566    0.033058    0.215705
  H     -1.641948   -0.396679    1.058611
  H      0.084232    1.299806   -1.045426
  H      1.381665   -0.661825    0.789955
  H      2.007305    0.640174    0.108509

 Total Charge           Charge          ....    0
 Multiplicity           Mult            ....    1
 Number of Electrons    NEL             ....   30
 Basis Dimension        Dim             ....   76

ORBITAL ENERGIES
----------------

  NO   OCC          E(Eh)            E(eV)
   0   2.0000     -19.147760      -521.0370
   1   2.0000     -10.289277      -279.9855
   2   2.0000     -10.211037      -277.8564
   3   2.0000     -10.181714      -277.0585
   4   2.0000      -1.050497       -28.5855
   5   2.0000      -0.800478       -21.7821
   6   2.0000      -0.652241       -17.7484
   7   2.0000      -0.570539       -15.5252
   8   2.0000      -0.490605       -13.3500
   9   2.0000      -0.464762       -12.6468
  10   2.0000      -0.439673       -11.9641
  11   2.0000      -0.388353       -10.5676
  12   2.0000      -0.374918       -10.2020
  13   2.0000      -0.291046        -7.9198
  14   2.0000      -0.257281        -7.0010
  15   0.0000      -0.052120        -1.4183
  16   0.0000       0.010213         0.2779
  17   0.0000       0.077762         2.1160
  18   0.0000       0.085868         2.3366
  19   0.0000       0.117216         3.1896

MULLIKEN ATOMIC CHARGES
-----------------------
   0 C :    0.170549
   1 O :   -0.180940
   2 C :   -0.130729
   3 C :    0.149063
   4 H :    0.011957
   5 H :    0.040866
   6 H :   -0.064835
   7 H :    0.004069
Sum of atomic charges:    0.0000000

LOEWDIN ATOMIC CHARGES
----------------------
   0 C :   -0.019071
   1 O :    0.006886
   2 C :   -0.056583
   3 C :    0.002020
   4 H :    0.005098
   5 H :    0.059385
   6 H :   -0.025916
   7 H :    0.028182

  Mayer bond orders larger than 0.100000
B(  0-C ,  1-O ) :   2.2029 B(  0-C ,  2-C ) :   0.9766 B(  0-C ,  4-H ) :   0.9050
B(  2-C ,  3-C ) :   2.0357 B(  2-C ,  5-H ) :   0.9244 B(  3-C ,  6-H ) :   0.9578
B(  3-C ,  7-H ) :   0.9444

-----------------------------------------------------------------------------
         ABSORPTION SPECTRUM VIA TRANSITION ELECTRIC DIPOLE MOMENTS
-----------------------------------------------------------------------------
State   Energy    Wavelength  fosc         T2        TX        TY        TZ
        (cm-1)      (nm)                 (au**2)    (au)      (au)      (au)
-----------------------------------------------------------------------------
   1   30952.8    323.1   0.002640263   0.02808  -0.16299  -0.03640   0.01387

FINAL SINGLE POINT ENERGY      -191.620191631096

DIPOLE MOMENT
-------------
                                X             Y             Z
Electronic contribution:     -2.96650      -1.31038      -1.27498
Nuclear contribution   :      3.57846       1.76503       1.87832
                        -----------------------------------------
Total Dipole Moment    :      0.61195       0.45465       0.60334
                        -----------------------------------------
Magnitude (a.u.)       :      0.97222
Magnitude (Debye)      :      2.47120

Rotational constants in cm-1:     1.125821     0.160138     0.155937
Rotational constants in MHz : 33751.278336  4800.829763  4674.880526

                             ****ORCA TERMINATED NORMALLY****
TOTAL RUN TIME: 0 days 0 hours 3 minutes 20 seconds 908 msec
