                         Program Version 5.0.3 -  RELEASE  -
|  1> ! HF-3c
|  2> !TightSCF
|  3> %scf
|  4>  ConvForced true
|  5>  convergence tight
|  6>  MaxIter 500
|  7> end
|  8>
|  9> %tddft
| 10>  nroots 1
| 11> end
| 12>
| 13> # 	8639
| 14> * xyz 0 1
| 15> 		C   -1.098852  -0.501454  -0.109634
| 16> 		O   -2.178349  -0.397544  -0.666740
| 17> 		C    0.042640   0.352349  -0.375085
| 18> 		C    1.219359   0.153107   0.340251
| 19> 		H   -1.119924  -0.867601   0.827132
| 20> 		H   -0.150483   1.194941  -1.047629
| 21> 		H    1.213072  -0.714682   1.078467
| 22> 		H    2.122284   0.775838   0.048641
| 23> *
| 24>
| 25>                          ****END OF INPUT****

CARTESIAN COORDINATES (ANGSTROEM)
---------------------------------
  C     -1.098852   -0.501454   -0.109634
  O     -2.178349   -0.397544   -0.666740
  C      0.042640    0.352349   -0.375085
  C      1.219359    0.153107    0.340251
  H     -1.119924   -0.867601    0.827132
  H     -0.150483    1.194941   -1.047629
  H      1.213072   -0.714682    1.078467
  H      2.122284    0.775838    0.048641

 Total Charge           Charge          ....    0
 Multiplicity           Mult            ....    1
 Number of Electrons    NEL             ....   30
 Basis Dimension        Dim             ....   24

ORBITAL ENERGIES
----------------

  NO   OCC          E(Eh)            E(eV)
   0   2.0000     -20.361451      -554.0633
   1   2.0000     -11.290848      -307.2396
   2   2.0000     -11.191484      -304.5358
   3   2.0000     -11.184807      -304.3541
   4   2.0000      -1.396450       -37.9993
   5   2.0000      -1.073284       -29.2055
   6   2.0000      -0.881834       -23.9959
   7   2.0000      -0.789882       -21.4938
   8   2.0000      -0.660725       -17.9793
   9   2.0000      -0.637149       -17.3377
  10   2.0000      -0.570192       -15.5157
  11   2.0000      -0.551874       -15.0172
  12   2.0000      -0.526090       -14.3156
  13   2.0000      -0.418380       -11.3847
  14   2.0000      -0.375739       -10.2244
  15   0.0000       0.118992         3.2379
  16   0.0000       0.281946         7.6721
  17   0.0000       0.554830        15.0977
  18   0.0000       0.576270        15.6811
  19   0.0000       0.662931        18.0393

MULLIKEN ATOMIC CHARGES
-----------------------
   0 C :    0.130544
   1 O :   -0.340002
   2 C :   -0.169086
   3 C :   -0.209767
   4 H :    0.136279
   5 H :    0.153981
   6 H :    0.146001
   7 H :    0.152049
Sum of atomic charges:    0.0000000

LOEWDIN ATOMIC CHARGES
----------------------
   0 C :    0.124984
   1 O :   -0.249089
   2 C :   -0.126991
   3 C :   -0.118842
   4 H :    0.065806
   5 H :    0.100195
   6 H :    0.099746
   7 H :    0.104192

  Mayer bond orders larger than 0.100000
B(  0-C ,  1-O ) :   1.8845 B(  0-C ,  2-C ) :   1.0491 B(  0-C ,  4-H ) :   0.9370
B(  2-C ,  3-C ) :   1.9234 B(  2-C ,  5-H ) :   0.9569 B(  3-C ,  6-H ) :   0.9625
B(  3-C ,  7-H ) :   0.9633

-----------------------------------------------------------------------------
         ABSORPTION SPECTRUM VIA TRANSITION ELECTRIC DIPOLE MOMENTS
-----------------------------------------------------------------------------
State   Energy    Wavelength  fosc         T2        TX        TY        TZ
        (cm-1)      (nm)                 (au**2)    (au)      (au)      (au)
-----------------------------------------------------------------------------
   1   29940.2    334.0   0.000197217   0.00217   0.01041  -0.01848   0.04146

Dispersion correction           -0.025692075
FINAL SINGLE POINT ENERGY      -189.324230137762

DIPOLE MOMENT
-------------
                                X             Y             Z
Electronic contribution:     -2.87244      -0.66434      -1.11132
Nuclear contribution   :      3.97552       0.75646       1.61273
                        -----------------------------------------
Total Dipole Moment    :      1.10308       0.09212       0.50141
                        -----------------------------------------
Magnitude (a.u.)       :      1.21519
Magnitude (Debye)      :      3.08877

Rotational constants in cm-1:     1.584837     0.154372     0.141115
Rotational constants in MHz : 47512.204866  4627.955339  4230.506812

                             ****ORCA TERMINATED NORMALLY****
TOTAL RUN TIME: 0 days 0 hours 0 minutes 16 seconds 10 msec
