                         Program Version 5.0.3 -  RELEASE  -
|  1> ! B3LYP cc-pVDZ
|  2> !TightSCF
|  3> %scf
|  4>  ConvForced true
|  5>  convergence tight
|  6>  MaxIter 500
|  7> end
|  8>
|  9> %tddft
| 10>  nroots 1
| 11> end
| 12>
| 13> # 	31791
| 14> * xyz 0 1
| 15> 		C   -0.561262  -0.397991   0.046086
| 16> 		O   -0.568631  -1.657794  -0.021265
| 17> 		C    0.595026   0.395492  -0.015948
| 18> 		C    1.828375  -0.119270   0.011366
| 19> 		H   -1.538343   0.264484  -0.100389
| 20> 		H    0.542090   1.483789  -0.029546
| 21> 		H    1.848688  -1.164768   0.096817
| 22> 		H    2.934716   0.441992  -0.132777
| 23> *
| 24>
| 25>                          ****END OF INPUT****

CARTESIAN COORDINATES (ANGSTROEM)
---------------------------------
  C     -0.561262   -0.397991    0.046086
  O     -0.568631   -1.657794   -0.021265
  C      0.595026    0.395492   -0.015948
  C      1.828375   -0.119270    0.011366
  H     -1.538343    0.264484   -0.100389
  H      0.542090    1.483789   -0.029546
  H      1.848688   -1.164768    0.096817
  H      2.934716    0.441992   -0.132777

 Total Charge           Charge          ....    0
 Multiplicity           Mult            ....    1
 Number of Electrons    NEL             ....   30
 Basis Dimension        Dim             ....   76

ORBITAL ENERGIES
----------------

  NO   OCC          E(Eh)            E(eV)
   0   2.0000     -19.139834      -520.8213
   1   2.0000     -10.281029      -279.7610
   2   2.0000     -10.227724      -278.3105
   3   2.0000     -10.204640      -277.6824
   4   2.0000      -1.020670       -27.7738
   5   2.0000      -0.807711       -21.9789
   6   2.0000      -0.665252       -18.1024
   7   2.0000      -0.541201       -14.7268
   8   2.0000      -0.500371       -13.6158
   9   2.0000      -0.445301       -12.1173
  10   2.0000      -0.409442       -11.1415
  11   2.0000      -0.393270       -10.7014
  12   2.0000      -0.373130       -10.1534
  13   2.0000      -0.288491        -7.8502
  14   2.0000      -0.258509        -7.0344
  15   0.0000      -0.084572        -2.3013
  16   0.0000       0.042838         1.1657
  17   0.0000       0.062723         1.7068
  18   0.0000       0.082555         2.2464
  19   0.0000       0.121440         3.3046

MULLIKEN ATOMIC CHARGES
-----------------------
   0 C :    0.170598
   1 O :   -0.230388
   2 C :   -0.064164
   3 C :    0.035821
   4 H :   -0.001348
   5 H :   -0.009258
   6 H :    0.027903
   7 H :    0.070835
Sum of atomic charges:   -0.0000000

LOEWDIN ATOMIC CHARGES
----------------------
   0 C :   -0.023588
   1 O :   -0.050453
   2 C :   -0.092880
   3 C :    0.044143
   4 H :    0.009145
   5 H :    0.032790
   6 H :    0.018456
   7 H :    0.062386

  Mayer bond orders larger than 0.100000
B(  0-C ,  1-O ) :   2.1070 B(  0-C ,  2-C ) :   1.1112 B(  0-C ,  4-H ) :   0.9051
B(  1-O ,  3-C ) :   0.1133 B(  2-C ,  3-C ) :   1.9122 B(  2-C ,  5-H ) :   0.9456
B(  3-C ,  6-H ) :   0.9253 B(  3-C ,  7-H ) :   0.9435

-----------------------------------------------------------------------------
         ABSORPTION SPECTRUM VIA TRANSITION ELECTRIC DIPOLE MOMENTS
-----------------------------------------------------------------------------
State   Energy    Wavelength  fosc         T2        TX        TY        TZ
        (cm-1)      (nm)                 (au**2)    (au)      (au)      (au)
-----------------------------------------------------------------------------
   1   25227.6    396.4   0.000153845   0.00201  -0.00276   0.01542  -0.04198

FINAL SINGLE POINT ENERGY      -191.666448172959

DIPOLE MOMENT
-------------
                                X             Y             Z
Electronic contribution:     -1.84542      -1.79086       0.16895
Nuclear contribution   :      2.39642       2.74875      -0.15535
                        -----------------------------------------
Total Dipole Moment    :      0.55100       0.95789       0.01360
                        -----------------------------------------
Magnitude (a.u.)       :      1.10514
Magnitude (Debye)      :      2.80904

Rotational constants in cm-1:     0.747527     0.212362     0.165625
Rotational constants in MHz : 22410.292246  6366.445073  4965.319102

                             ****ORCA TERMINATED NORMALLY****
TOTAL RUN TIME: 0 days 0 hours 3 minutes 21 seconds 634 msec
