                         Program Version 5.0.3 -  RELEASE  -
|  1> ! HF-3c
|  2> !TightSCF
|  3> %scf
|  4>  ConvForced true
|  5>  convergence tight
|  6>  MaxIter 500
|  7> end
|  8>
|  9> %tddft
| 10>  nroots 1
| 11> end
| 12>
| 13> # 	13988
| 14> * xyz 0 1
| 15> 		C   -1.265152  -0.336230   0.087292
| 16> 		O   -1.588164  -1.271176   0.776836
| 17> 		C   -0.018414   0.473576   0.210626
| 18> 		C    1.165231  -0.011888  -0.138748
| 19> 		H   -1.748800  -0.032565  -0.951817
| 20> 		H   -0.089079   1.560413   0.653010
| 21> 		H    1.305504  -0.991486  -0.553124
| 22> 		H    2.171764   0.609708  -0.024797
| 23> *
| 24>
| 25>                          ****END OF INPUT****

CARTESIAN COORDINATES (ANGSTROEM)
---------------------------------
  C     -1.265152   -0.336230    0.087292
  O     -1.588164   -1.271176    0.776836
  C     -0.018414    0.473576    0.210626
  C      1.165231   -0.011888   -0.138748
  H     -1.748800   -0.032565   -0.951817
  H     -0.089079    1.560413    0.653010
  H      1.305504   -0.991486   -0.553124
  H      2.171764    0.609708   -0.024797

 Total Charge           Charge          ....    0
 Multiplicity           Mult            ....    1
 Number of Electrons    NEL             ....   30
 Basis Dimension        Dim             ....   24

ORBITAL ENERGIES
----------------

  NO   OCC          E(Eh)            E(eV)
   0   2.0000     -20.383272      -554.6570
   1   2.0000     -11.302558      -307.5583
   2   2.0000     -11.184176      -304.3369
   3   2.0000     -11.173664      -304.0509
   4   2.0000      -1.409775       -38.3619
   5   2.0000      -1.069774       -29.1100
   6   2.0000      -0.873379       -23.7659
   7   2.0000      -0.737855       -20.0781
   8   2.0000      -0.670416       -18.2429
   9   2.0000      -0.619301       -16.8520
  10   2.0000      -0.607836       -16.5401
  11   2.0000      -0.529156       -14.3991
  12   2.0000      -0.501373       -13.6431
  13   2.0000      -0.411094       -11.1864
  14   2.0000      -0.388757       -10.5786
  15   0.0000       0.183445         4.9918
  16   0.0000       0.229307         6.2398
  17   0.0000       0.526909        14.3379
  18   0.0000       0.541283        14.7291
  19   0.0000       0.605502        16.4765

MULLIKEN ATOMIC CHARGES
-----------------------
   0 C :    0.185334
   1 O :   -0.344147
   2 C :   -0.167053
   3 C :   -0.236983
   4 H :    0.134761
   5 H :    0.151733
   6 H :    0.135606
   7 H :    0.140750
Sum of atomic charges:    0.0000000

LOEWDIN ATOMIC CHARGES
----------------------
   0 C :    0.159316
   1 O :   -0.245232
   2 C :   -0.129018
   3 C :   -0.153654
   4 H :    0.077791
   5 H :    0.106807
   6 H :    0.085306
   7 H :    0.098683

  Mayer bond orders larger than 0.100000
B(  0-C ,  1-O ) :   1.9555 B(  0-C ,  2-C ) :   0.9848 B(  0-C ,  4-H ) :   0.9041
B(  2-C ,  3-C ) :   1.9985 B(  2-C ,  5-H ) :   0.9440 B(  3-C ,  6-H ) :   0.9656
B(  3-C ,  7-H ) :   0.9596

-----------------------------------------------------------------------------
         ABSORPTION SPECTRUM VIA TRANSITION ELECTRIC DIPOLE MOMENTS
-----------------------------------------------------------------------------
State   Energy    Wavelength  fosc         T2        TX        TY        TZ
        (cm-1)      (nm)                 (au**2)    (au)      (au)      (au)
-----------------------------------------------------------------------------
   1   34758.1    287.7   0.000118285   0.00112  -0.02505   0.00799  -0.02071

Dispersion correction           -0.024809006
FINAL SINGLE POINT ENERGY      -189.308566992627

DIPOLE MOMENT
-------------
                                X             Y             Z
Electronic contribution:     -2.76661      -1.44949       1.14123
Nuclear contribution   :      3.20650       2.24420      -1.71532
                        -----------------------------------------
Total Dipole Moment    :      0.43989       0.79472      -0.57409
                        -----------------------------------------
Magnitude (a.u.)       :      1.07455
Magnitude (Debye)      :      2.73128

Rotational constants in cm-1:     0.894500     0.173647     0.158226
Rotational constants in MHz : 26816.443594  5205.793044  4743.498325

                             ****ORCA TERMINATED NORMALLY****
TOTAL RUN TIME: 0 days 0 hours 0 minutes 12 seconds 225 msec
