                         Program Version 5.0.3 -  RELEASE  -
|  1> ! HF-3c
|  2> !TightSCF
|  3> %scf
|  4>  ConvForced true
|  5>  convergence tight
|  6>  MaxIter 500
|  7> end
|  8>
|  9> %tddft
| 10>  nroots 1
| 11> end
| 12>
| 13> # 	14907
| 14> * xyz 0 1
| 15> 		C   -1.213796  -0.265361   0.026730
| 16> 		O   -1.437192  -1.243664   0.709441
| 17> 		C   -0.004743   0.474431   0.228330
| 18> 		C    1.131484   0.032410  -0.191274
| 19> 		H   -1.784184   0.030108  -0.915985
| 20> 		H   -0.052812   1.447744   0.686731
| 21> 		H    1.261997  -1.008396  -0.481443
| 22> 		H    2.073245   0.520605  -0.053587
| 23> *
| 24>
| 25>                          ****END OF INPUT****

CARTESIAN COORDINATES (ANGSTROEM)
---------------------------------
  C     -1.213796   -0.265361    0.026730
  O     -1.437192   -1.243664    0.709441
  C     -0.004743    0.474431    0.228330
  C      1.131484    0.032410   -0.191274
  H     -1.784184    0.030108   -0.915985
  H     -0.052812    1.447744    0.686731
  H      1.261997   -1.008396   -0.481443
  H      2.073245    0.520605   -0.053587

 Total Charge           Charge          ....    0
 Multiplicity           Mult            ....    1
 Number of Electrons    NEL             ....   30
 Basis Dimension        Dim             ....   24

ORBITAL ENERGIES
----------------

  NO   OCC          E(Eh)            E(eV)
   0   2.0000     -20.375991      -554.4589
   1   2.0000     -11.302359      -307.5528
   2   2.0000     -11.195120      -304.6347
   3   2.0000     -11.181905      -304.2751
   4   2.0000      -1.408297       -38.3217
   5   2.0000      -1.100611       -29.9491
   6   2.0000      -0.896235       -24.3878
   7   2.0000      -0.761002       -20.7079
   8   2.0000      -0.698962       -19.0197
   9   2.0000      -0.646924       -17.6037
  10   2.0000      -0.611945       -16.6519
  11   2.0000      -0.542512       -14.7625
  12   2.0000      -0.500922       -13.6308
  13   2.0000      -0.419680       -11.4201
  14   2.0000      -0.411860       -11.2073
  15   0.0000       0.181689         4.9440
  16   0.0000       0.226623         6.1667
  17   0.0000       0.582534        15.8516
  18   0.0000       0.612616        16.6701
  19   0.0000       0.702528        19.1168

MULLIKEN ATOMIC CHARGES
-----------------------
   0 C :    0.170509
   1 O :   -0.337499
   2 C :   -0.177274
   3 C :   -0.241840
   4 H :    0.145964
   5 H :    0.154608
   6 H :    0.142842
   7 H :    0.142689
Sum of atomic charges:    0.0000000

LOEWDIN ATOMIC CHARGES
----------------------
   0 C :    0.152039
   1 O :   -0.244380
   2 C :   -0.125383
   3 C :   -0.150423
   4 H :    0.084470
   5 H :    0.100618
   6 H :    0.092209
   7 H :    0.090851

  Mayer bond orders larger than 0.100000
B(  0-C ,  1-O ) :   1.9424 B(  0-C ,  2-C ) :   1.0053 B(  0-C ,  4-H ) :   0.9121
B(  2-C ,  3-C ) :   1.9939 B(  2-C ,  5-H ) :   0.9444 B(  3-C ,  6-H ) :   0.9628
B(  3-C ,  7-H ) :   0.9632

-----------------------------------------------------------------------------
         ABSORPTION SPECTRUM VIA TRANSITION ELECTRIC DIPOLE MOMENTS
-----------------------------------------------------------------------------
State   Energy    Wavelength  fosc         T2        TX        TY        TZ
        (cm-1)      (nm)                 (au**2)    (au)      (au)      (au)
-----------------------------------------------------------------------------
   1   33994.0    294.2   0.000129365   0.00125   0.03248  -0.00731   0.01203

Dispersion correction           -0.025956785
FINAL SINGLE POINT ENERGY      -189.319552375106

DIPOLE MOMENT
-------------
                                X             Y             Z
Electronic contribution:     -2.57276      -1.26207       0.93555
Nuclear contribution   :      2.89831       1.98559      -1.46900
                        -----------------------------------------
Total Dipole Moment    :      0.32555       0.72352      -0.53344
                        -----------------------------------------
Magnitude (a.u.)       :      0.95605
Magnitude (Debye)      :      2.43008

Rotational constants in cm-1:     0.888975     0.192568     0.173770
Rotational constants in MHz : 26650.798587  5773.046076  5209.481709

                             ****ORCA TERMINATED NORMALLY****
TOTAL RUN TIME: 0 days 0 hours 0 minutes 9 seconds 478 msec
