                         Program Version 5.0.3 -  RELEASE  -
|  1> ! B3LYP cc-pVDZ
|  2> !TightSCF
|  3> %scf
|  4>  ConvForced true
|  5>  convergence tight
|  6>  MaxIter 500
|  7> end
|  8>
|  9> %tddft
| 10>  nroots 1
| 11> end
| 12>
| 13> # 	17590
| 14> * xyz 0 1
| 15> 		C   -1.266931  -0.291168  -0.035913
| 16> 		O   -1.677865  -1.022301  -0.792791
| 17> 		C   -0.065095   0.547517  -0.138999
| 18> 		C    1.166029  -0.035121   0.168858
| 19> 		H   -1.608513  -0.380711   0.922825
| 20> 		H   -0.089184   1.572373  -0.644485
| 21> 		H    1.328711  -0.983535   0.588888
| 22> 		H    2.144009   0.573769  -0.011303
| 23> *
| 24>
| 25>                          ****END OF INPUT****

CARTESIAN COORDINATES (ANGSTROEM)
---------------------------------
  C     -1.266931   -0.291168   -0.035913
  O     -1.677865   -1.022301   -0.792791
  C     -0.065095    0.547517   -0.138999
  C      1.166029   -0.035121    0.168858
  H     -1.608513   -0.380711    0.922825
  H     -0.089184    1.572373   -0.644485
  H      1.328711   -0.983535    0.588888
  H      2.144009    0.573769   -0.011303

 Total Charge           Charge          ....    0
 Multiplicity           Mult            ....    1
 Number of Electrons    NEL             ....   30
 Basis Dimension        Dim             ....   76

ORBITAL ENERGIES
----------------

  NO   OCC          E(Eh)            E(eV)
   0   2.0000     -19.139692      -520.8175
   1   2.0000     -10.263671      -279.2887
   2   2.0000     -10.214796      -277.9587
   3   2.0000     -10.212612      -277.8993
   4   2.0000      -1.097543       -29.8657
   5   2.0000      -0.783533       -21.3210
   6   2.0000      -0.648875       -17.6568
   7   2.0000      -0.568940       -15.4816
   8   2.0000      -0.497040       -13.5251
   9   2.0000      -0.463652       -12.6166
  10   2.0000      -0.449739       -12.2380
  11   2.0000      -0.395452       -10.7608
  12   2.0000      -0.388154       -10.5622
  13   2.0000      -0.275424        -7.4947
  14   2.0000      -0.250530        -6.8173
  15   0.0000      -0.026312        -0.7160
  16   0.0000      -0.012322        -0.3353
  17   0.0000       0.077327         2.1042
  18   0.0000       0.092816         2.5257
  19   0.0000       0.119543         3.2529

MULLIKEN ATOMIC CHARGES
-----------------------
   0 C :    0.211757
   1 O :   -0.114620
   2 C :   -0.135713
   3 C :   -0.008061
   4 H :   -0.056232
   5 H :    0.037744
   6 H :    0.018209
   7 H :    0.046916
Sum of atomic charges:   -0.0000000

LOEWDIN ATOMIC CHARGES
----------------------
   0 C :   -0.084463
   1 O :    0.093969
   2 C :   -0.060181
   3 C :   -0.023398
   4 H :   -0.027344
   5 H :    0.045436
   6 H :    0.012338
   7 H :    0.043643

  Mayer bond orders larger than 0.100000
B(  0-C ,  1-O ) :   2.3258 B(  0-C ,  2-C ) :   0.9649 B(  0-C ,  4-H ) :   0.9214
B(  2-C ,  3-C ) :   2.0206 B(  2-C ,  5-H ) :   0.9317 B(  3-C ,  6-H ) :   0.9579
B(  3-C ,  7-H ) :   0.9520

-----------------------------------------------------------------------------
         ABSORPTION SPECTRUM VIA TRANSITION ELECTRIC DIPOLE MOMENTS
-----------------------------------------------------------------------------
State   Energy    Wavelength  fosc         T2        TX        TY        TZ
        (cm-1)      (nm)                 (au**2)    (au)      (au)      (au)
-----------------------------------------------------------------------------
   1   35881.4    278.7   0.000286397   0.00263   0.04071  -0.00051  -0.03115

FINAL SINGLE POINT ENERGY      -191.598575516272

DIPOLE MOMENT
-------------
                                X             Y             Z
Electronic contribution:     -3.00493      -1.09326      -1.16072
Nuclear contribution   :      3.45814       1.58602       1.59055
                        -----------------------------------------
Total Dipole Moment    :      0.45321       0.49276       0.42983
                        -----------------------------------------
Magnitude (a.u.)       :      0.79559
Magnitude (Debye)      :      2.02223

Rotational constants in cm-1:     0.955798     0.175153     0.162672
Rotational constants in MHz : 28654.099174  5250.945858  4876.796177

                             ****ORCA TERMINATED NORMALLY****
TOTAL RUN TIME: 0 days 0 hours 3 minutes 27 seconds 121 msec
