                         Program Version 5.0.3 -  RELEASE  -
|  1> ! B3LYP cc-pVDZ
|  2> !TightSCF
|  3> %scf
|  4>  ConvForced true
|  5>  convergence tight
|  6>  MaxIter 500
|  7> end
|  8>
|  9> %tddft
| 10>  nroots 1
| 11> end
| 12>
| 13> # 	2403
| 14> * xyz 0 1
| 15> 		C   -1.206957  -0.311497  -0.016969
| 16> 		O   -1.256769  -1.463577   0.244620
| 17> 		C   -0.001773   0.512998   0.125149
| 18> 		C    1.232384   0.044180  -0.122344
| 19> 		H   -2.270865   0.105370  -0.296859
| 20> 		H   -0.101204   1.653997   0.129620
| 21> 		H    1.331520  -1.086764  -0.087386
| 22> 		H    2.299568   0.605237  -0.053174
| 23> *
| 24>
| 25>                          ****END OF INPUT****

CARTESIAN COORDINATES (ANGSTROEM)
---------------------------------
  C     -1.206957   -0.311497   -0.016969
  O     -1.256769   -1.463577    0.244620
  C     -0.001773    0.512998    0.125149
  C      1.232384    0.044180   -0.122344
  H     -2.270865    0.105370   -0.296859
  H     -0.101204    1.653997    0.129620
  H      1.331520   -1.086764   -0.087386
  H      2.299568    0.605237   -0.053174

 Total Charge           Charge          ....    0
 Multiplicity           Mult            ....    1
 Number of Electrons    NEL             ....   30
 Basis Dimension        Dim             ....   76

ORBITAL ENERGIES
----------------

  NO   OCC          E(Eh)            E(eV)
   0   2.0000     -19.136633      -520.7343
   1   2.0000     -10.279320      -279.7145
   2   2.0000     -10.228591      -278.3341
   3   2.0000     -10.214540      -277.9518
   4   2.0000      -1.064558       -28.9681
   5   2.0000      -0.793149       -21.5827
   6   2.0000      -0.643538       -17.5116
   7   2.0000      -0.532047       -14.4777
   8   2.0000      -0.505268       -13.7490
   9   2.0000      -0.447225       -12.1696
  10   2.0000      -0.429409       -11.6848
  11   2.0000      -0.402025       -10.9397
  12   2.0000      -0.363509        -9.8916
  13   2.0000      -0.291350        -7.9280
  14   2.0000      -0.253171        -6.8891
  15   0.0000      -0.065731        -1.7886
  16   0.0000       0.043324         1.1789
  17   0.0000       0.056805         1.5457
  18   0.0000       0.083904         2.2831
  19   0.0000       0.107902         2.9362

MULLIKEN ATOMIC CHARGES
-----------------------
   0 C :    0.144605
   1 O :   -0.165664
   2 C :   -0.075115
   3 C :   -0.024694
   4 H :   -0.014184
   5 H :    0.014866
   6 H :    0.052470
   7 H :    0.067717
Sum of atomic charges:    0.0000000

LOEWDIN ATOMIC CHARGES
----------------------
   0 C :   -0.061703
   1 O :    0.021308
   2 C :   -0.089611
   3 C :   -0.004558
   4 H :    0.001558
   5 H :    0.039514
   6 H :    0.038376
   7 H :    0.055117

  Mayer bond orders larger than 0.100000
B(  0-C ,  1-O ) :   2.2032 B(  0-C ,  2-C ) :   1.0118 B(  0-C ,  4-H ) :   0.9162
B(  2-C ,  3-C ) :   1.9509 B(  2-C ,  5-H ) :   0.9342 B(  3-C ,  6-H ) :   0.9313
B(  3-C ,  7-H ) :   0.9449

-----------------------------------------------------------------------------
         ABSORPTION SPECTRUM VIA TRANSITION ELECTRIC DIPOLE MOMENTS
-----------------------------------------------------------------------------
State   Energy    Wavelength  fosc         T2        TX        TY        TZ
        (cm-1)      (nm)                 (au**2)    (au)      (au)      (au)
-----------------------------------------------------------------------------
   1   28653.3    349.0   0.000784258   0.00901  -0.09093  -0.00742   0.02622

FINAL SINGLE POINT ENERGY      -191.654013574903

DIPOLE MOMENT
-------------
                                X             Y             Z
Electronic contribution:     -1.97513      -1.67412       0.35828
Nuclear contribution   :      2.40941       2.46588      -0.51587
                        -----------------------------------------
Total Dipole Moment    :      0.43428       0.79176      -0.15759
                        -----------------------------------------
Magnitude (a.u.)       :      0.91669
Magnitude (Debye)      :      2.33004

Rotational constants in cm-1:     0.809429     0.198861     0.162030
Rotational constants in MHz : 24266.057320  5961.695829  4857.545939

                             ****ORCA TERMINATED NORMALLY****
TOTAL RUN TIME: 0 days 0 hours 3 minutes 18 seconds 560 msec
