                         Program Version 5.0.3 -  RELEASE  -
|  1> ! HF-3c
|  2> !TightSCF
|  3> %scf
|  4>  ConvForced true
|  5>  convergence tight
|  6>  MaxIter 500
|  7> end
|  8>
|  9> %tddft
| 10>  nroots 1
| 11> end
| 12>
| 13> # 	23444
| 14> * xyz 0 1
| 15> 		C   -0.600124  -0.458804   0.021666
| 16> 		O   -0.615278  -1.624933  -0.027225
| 17> 		C    0.664998   0.359135  -0.061201
| 18> 		C    1.853239  -0.078044   0.030625
| 19> 		H   -1.614525   0.051316   0.388555
| 20> 		H    0.723098   1.528584  -0.021784
| 21> 		H    2.137116  -0.993792   0.215946
| 22> 		H    2.657216   0.571522  -0.057831
| 23> *
| 24>
| 25>                          ****END OF INPUT****

CARTESIAN COORDINATES (ANGSTROEM)
---------------------------------
  C     -0.600124   -0.458804    0.021666
  O     -0.615278   -1.624933   -0.027225
  C      0.664998    0.359135   -0.061201
  C      1.853239   -0.078044    0.030625
  H     -1.614525    0.051316    0.388555
  H      0.723098    1.528584   -0.021784
  H      2.137116   -0.993792    0.215946
  H      2.657216    0.571522   -0.057831

 Total Charge           Charge          ....    0
 Multiplicity           Mult            ....    1
 Number of Electrons    NEL             ....   30
 Basis Dimension        Dim             ....   24

ORBITAL ENERGIES
----------------

  NO   OCC          E(Eh)            E(eV)
   0   2.0000     -20.386032      -554.7321
   1   2.0000     -11.312572      -307.8307
   2   2.0000     -11.196957      -304.6847
   3   2.0000     -11.191679      -304.5411
   4   2.0000      -1.440996       -39.2115
   5   2.0000      -1.101572       -29.9753
   6   2.0000      -0.884256       -24.0618
   7   2.0000      -0.758268       -20.6335
   8   2.0000      -0.717525       -19.5248
   9   2.0000      -0.626018       -17.0348
  10   2.0000      -0.617979       -16.8161
  11   2.0000      -0.559818       -15.2334
  12   2.0000      -0.524015       -14.2592
  13   2.0000      -0.423280       -11.5180
  14   2.0000      -0.405006       -11.0208
  15   0.0000       0.147124         4.0035
  16   0.0000       0.315692         8.5904
  17   0.0000       0.502213        13.6659
  18   0.0000       0.537050        14.6139
  19   0.0000       0.662698        18.0329

MULLIKEN ATOMIC CHARGES
-----------------------
   0 C :    0.188977
   1 O :   -0.354008
   2 C :   -0.157540
   3 C :   -0.262203
   4 H :    0.137074
   5 H :    0.152808
   6 H :    0.148948
   7 H :    0.145944
Sum of atomic charges:    0.0000000

LOEWDIN ATOMIC CHARGES
----------------------
   0 C :    0.149359
   1 O :   -0.242706
   2 C :   -0.117661
   3 C :   -0.152777
   4 H :    0.079033
   5 H :    0.106287
   6 H :    0.087032
   7 H :    0.091434

  Mayer bond orders larger than 0.100000
B(  0-C ,  1-O ) :   1.9328 B(  0-C ,  2-C ) :   0.9915 B(  0-C ,  4-H ) :   0.9109
B(  2-C ,  3-C ) :   1.9791 B(  2-C ,  5-H ) :   0.9495 B(  3-C ,  6-H ) :   0.9617
B(  3-C ,  7-H ) :   0.9614

-----------------------------------------------------------------------------
         ABSORPTION SPECTRUM VIA TRANSITION ELECTRIC DIPOLE MOMENTS
-----------------------------------------------------------------------------
State   Energy    Wavelength  fosc         T2        TX        TY        TZ
        (cm-1)      (nm)                 (au**2)    (au)      (au)      (au)
-----------------------------------------------------------------------------
   1   34653.5    288.6   0.000055594   0.00053  -0.00955   0.00407   0.02050

Dispersion correction           -0.025467158
FINAL SINGLE POINT ENERGY      -189.293372777695

DIPOLE MOMENT
-------------
                                X             Y             Z
Electronic contribution:     -2.30035      -1.88819      -0.35697
Nuclear contribution   :      2.50146       2.87407       0.49294
                        -----------------------------------------
Total Dipole Moment    :      0.20112       0.98588       0.13597
                        -----------------------------------------
Magnitude (a.u.)       :      1.01533
Magnitude (Debye)      :      2.58077

Rotational constants in cm-1:     0.864012     0.198937     0.162568
Rotational constants in MHz : 25902.426803  5963.971467  4873.653635

                             ****ORCA TERMINATED NORMALLY****
TOTAL RUN TIME: 0 days 0 hours 0 minutes 12 seconds 129 msec
