                         Program Version 5.0.3 -  RELEASE  -
|  1> ! HF-3c
|  2> !TightSCF
|  3> %scf
|  4>  ConvForced true
|  5>  convergence tight
|  6>  MaxIter 500
|  7> end
|  8>
|  9> %tddft
| 10>  nroots 1
| 11> end
| 12>
| 13> # 	3793
| 14> * xyz 0 1
| 15> 		C   -1.241843  -0.275844   0.027652
| 16> 		O   -1.999949  -0.640390   0.858049
| 17> 		C    0.041421   0.359115   0.352589
| 18> 		C    1.172533   0.110491  -0.229744
| 19> 		H   -1.467657  -0.654964  -1.063317
| 20> 		H    0.164379   1.224351   1.093422
| 21> 		H    1.257877  -0.774016  -0.900889
| 22> 		H    2.036234   0.677599  -0.190165
| 23> *
| 24>
| 25>                          ****END OF INPUT****

CARTESIAN COORDINATES (ANGSTROEM)
---------------------------------
  C     -1.241843   -0.275844    0.027652
  O     -1.999949   -0.640390    0.858049
  C      0.041421    0.359115    0.352589
  C      1.172533    0.110491   -0.229744
  H     -1.467657   -0.654964   -1.063317
  H      0.164379    1.224351    1.093422
  H      1.257877   -0.774016   -0.900889
  H      2.036234    0.677599   -0.190165

 Total Charge           Charge          ....    0
 Multiplicity           Mult            ....    1
 Number of Electrons    NEL             ....   30
 Basis Dimension        Dim             ....   24

ORBITAL ENERGIES
----------------

  NO   OCC          E(Eh)            E(eV)
   0   2.0000     -20.379219      -554.5467
   1   2.0000     -11.307951      -307.7050
   2   2.0000     -11.193858      -304.6004
   3   2.0000     -11.185275      -304.3668
   4   2.0000      -1.428783       -38.8792
   5   2.0000      -1.092581       -29.7307
   6   2.0000      -0.877797       -23.8861
   7   2.0000      -0.763592       -20.7784
   8   2.0000      -0.681510       -18.5448
   9   2.0000      -0.660583       -17.9754
  10   2.0000      -0.596382       -16.2284
  11   2.0000      -0.546531       -14.8719
  12   2.0000      -0.516127       -14.0445
  13   2.0000      -0.414884       -11.2896
  14   2.0000      -0.403607       -10.9827
  15   0.0000       0.148256         4.0343
  16   0.0000       0.289266         7.8713
  17   0.0000       0.516940        14.0666
  18   0.0000       0.575387        15.6571
  19   0.0000       0.679528        18.4909

MULLIKEN ATOMIC CHARGES
-----------------------
   0 C :    0.175458
   1 O :   -0.347125
   2 C :   -0.167589
   3 C :   -0.241340
   4 H :    0.142300
   5 H :    0.160646
   6 H :    0.134350
   7 H :    0.143300
Sum of atomic charges:   -0.0000000

LOEWDIN ATOMIC CHARGES
----------------------
   0 C :    0.143653
   1 O :   -0.242027
   2 C :   -0.125013
   3 C :   -0.146159
   4 H :    0.083074
   5 H :    0.110905
   6 H :    0.086981
   7 H :    0.088585

  Mayer bond orders larger than 0.100000
B(  0-C ,  1-O ) :   1.9263 B(  0-C ,  2-C ) :   1.0094 B(  0-C ,  4-H ) :   0.9118
B(  2-C ,  3-C ) :   1.9793 B(  2-C ,  5-H ) :   0.9433 B(  3-C ,  6-H ) :   0.9630
B(  3-C ,  7-H ) :   0.9657

-----------------------------------------------------------------------------
         ABSORPTION SPECTRUM VIA TRANSITION ELECTRIC DIPOLE MOMENTS
-----------------------------------------------------------------------------
State   Energy    Wavelength  fosc         T2        TX        TY        TZ
        (cm-1)      (nm)                 (au**2)    (au)      (au)      (au)
-----------------------------------------------------------------------------
   1   33914.0    294.9   0.000218123   0.00212   0.00294   0.01999   0.04134

Dispersion correction           -0.025261186
FINAL SINGLE POINT ENERGY      -189.313855814274

DIPOLE MOMENT
-------------
                                X             Y             Z
Electronic contribution:     -3.12573      -0.63399       1.30472
Nuclear contribution   :      3.87604       0.93433      -1.95479
                        -----------------------------------------
Total Dipole Moment    :      0.75031       0.30034      -0.65007
                        -----------------------------------------
Magnitude (a.u.)       :      1.03719
Magnitude (Debye)      :      2.63632

Rotational constants in cm-1:     1.393467     0.159368     0.149828
Rotational constants in MHz : 41775.089774  4777.721895  4491.740206

                             ****ORCA TERMINATED NORMALLY****
TOTAL RUN TIME: 0 days 0 hours 0 minutes 12 seconds 657 msec
