                         Program Version 5.0.3 -  RELEASE  -
|  1> ! HF-3c
|  2> !TightSCF
|  3> %scf
|  4>  ConvForced true
|  5>  convergence tight
|  6>  MaxIter 500
|  7> end
|  8>
|  9> %tddft
| 10>  nroots 1
| 11> end
| 12>
| 13> # 	16299
| 14> * xyz 0 1
| 15> 		C   -1.208509  -0.432202  -0.126256
| 16> 		O   -2.145827  -0.167745  -0.784500
| 17> 		C    0.063593   0.313096  -0.375923
| 18> 		C    1.120911   0.098963   0.340643
| 19> 		H   -1.289285  -0.979516   0.722898
| 20> 		H    0.071767   1.360628  -1.075706
| 21> 		H    1.237433  -0.841168   1.115790
| 22> 		H    2.153935   0.639013   0.205794
| 23> *
| 24>
| 25>                          ****END OF INPUT****

CARTESIAN COORDINATES (ANGSTROEM)
---------------------------------
  C     -1.208509   -0.432202   -0.126256
  O     -2.145827   -0.167745   -0.784500
  C      0.063593    0.313096   -0.375923
  C      1.120911    0.098963    0.340643
  H     -1.289285   -0.979516    0.722898
  H      0.071767    1.360628   -1.075706
  H      1.237433   -0.841168    1.115790
  H      2.153935    0.639013    0.205794

 Total Charge           Charge          ....    0
 Multiplicity           Mult            ....    1
 Number of Electrons    NEL             ....   30
 Basis Dimension        Dim             ....   24

ORBITAL ENERGIES
----------------

  NO   OCC          E(Eh)            E(eV)
   0   2.0000     -20.378021      -554.5141
   1   2.0000     -11.308684      -307.7249
   2   2.0000     -11.178700      -304.1879
   3   2.0000     -11.176186      -304.1195
   4   2.0000      -1.433120       -38.9972
   5   2.0000      -1.072666       -29.1887
   6   2.0000      -0.869030       -23.6475
   7   2.0000      -0.771954       -21.0059
   8   2.0000      -0.658560       -17.9203
   9   2.0000      -0.630479       -17.1562
  10   2.0000      -0.576682       -15.6923
  11   2.0000      -0.553476       -15.0608
  12   2.0000      -0.486935       -13.2502
  13   2.0000      -0.413049       -11.2396
  14   2.0000      -0.396519       -10.7898
  15   0.0000       0.154221         4.1966
  16   0.0000       0.308775         8.4022
  17   0.0000       0.453128        12.3303
  18   0.0000       0.539696        14.6859
  19   0.0000       0.565102        15.3772

MULLIKEN ATOMIC CHARGES
-----------------------
   0 C :    0.156039
   1 O :   -0.346169
   2 C :   -0.165012
   3 C :   -0.214702
   4 H :    0.142452
   5 H :    0.159705
   6 H :    0.130417
   7 H :    0.137270
Sum of atomic charges:   -0.0000000

LOEWDIN ATOMIC CHARGES
----------------------
   0 C :    0.139051
   1 O :   -0.240013
   2 C :   -0.137297
   3 C :   -0.135509
   4 H :    0.069852
   5 H :    0.118851
   6 H :    0.091312
   7 H :    0.093753

  Mayer bond orders larger than 0.100000
B(  0-C ,  1-O ) :   1.9143 B(  0-C ,  2-C ) :   1.0077 B(  0-C ,  4-H ) :   0.9293
B(  2-C ,  3-C ) :   1.9721 B(  2-C ,  5-H ) :   0.9415 B(  3-C ,  6-H ) :   0.9562
B(  3-C ,  7-H ) :   0.9597

-----------------------------------------------------------------------------
         ABSORPTION SPECTRUM VIA TRANSITION ELECTRIC DIPOLE MOMENTS
-----------------------------------------------------------------------------
State   Energy    Wavelength  fosc         T2        TX        TY        TZ
        (cm-1)      (nm)                 (au**2)    (au)      (au)      (au)
-----------------------------------------------------------------------------
   1   34295.4    291.6   0.000102356   0.00098  -0.00460  -0.02670   0.01577

Dispersion correction           -0.025170869
FINAL SINGLE POINT ENERGY      -189.283606144461

DIPOLE MOMENT
-------------
                                X             Y             Z
Electronic contribution:     -3.23996      -0.39778      -1.25036
Nuclear contribution   :      4.18689       0.34990       1.80548
                        -----------------------------------------
Total Dipole Moment    :      0.94693      -0.04789       0.55512
                        -----------------------------------------
Magnitude (a.u.)       :      1.09869
Magnitude (Debye)      :      2.79265

Rotational constants in cm-1:     1.468526     0.160837     0.145267
Rotational constants in MHz : 44025.303959  4821.783696  4354.990033

                             ****ORCA TERMINATED NORMALLY****
TOTAL RUN TIME: 0 days 0 hours 0 minutes 12 seconds 165 msec
