                         Program Version 5.0.3 -  RELEASE  -
|  1> ! B3LYP cc-pVDZ
|  2> !TightSCF
|  3> %scf
|  4>  ConvForced true
|  5>  convergence tight
|  6>  MaxIter 500
|  7> end
|  8>
|  9> %tddft
| 10>  nroots 1
| 11> end
| 12>
| 13> # 	29550
| 14> * xyz 0 1
| 15> 		C   -0.616914  -0.435329  -0.017428
| 16> 		O   -0.609969  -1.663815   0.014396
| 17> 		C    0.646254   0.378850  -0.004662
| 18> 		C    1.895710  -0.061815   0.023303
| 19> 		H   -1.613506   0.135751  -0.040794
| 20> 		H    0.509301   1.444345   0.068693
| 21> 		H    1.985888  -1.033568  -0.236756
| 22> 		H    2.804126   0.515699  -0.028396
| 23> *
| 24>
| 25>                          ****END OF INPUT****

CARTESIAN COORDINATES (ANGSTROEM)
---------------------------------
  C     -0.616914   -0.435329   -0.017428
  O     -0.609969   -1.663815    0.014396
  C      0.646254    0.378850   -0.004662
  C      1.895710   -0.061815    0.023303
  H     -1.613506    0.135751   -0.040794
  H      0.509301    1.444345    0.068693
  H      1.985888   -1.033568   -0.236756
  H      2.804126    0.515699   -0.028396

 Total Charge           Charge          ....    0
 Multiplicity           Mult            ....    1
 Number of Electrons    NEL             ....   30
 Basis Dimension        Dim             ....   76

ORBITAL ENERGIES
----------------

  NO   OCC          E(Eh)            E(eV)
   0   2.0000     -19.142241      -520.8869
   1   2.0000     -10.284579      -279.8576
   2   2.0000     -10.205101      -277.6949
   3   2.0000     -10.202142      -277.6144
   4   2.0000      -1.038795       -28.2671
   5   2.0000      -0.798106       -21.7176
   6   2.0000      -0.659844       -17.9553
   7   2.0000      -0.548659       -14.9298
   8   2.0000      -0.507316       -13.8048
   9   2.0000      -0.447591       -12.1796
  10   2.0000      -0.433957       -11.8086
  11   2.0000      -0.394833       -10.7439
  12   2.0000      -0.375738       -10.2244
  13   2.0000      -0.289912        -7.8889
  14   2.0000      -0.258902        -7.0451
  15   0.0000      -0.073846        -2.0095
  16   0.0000       0.056134         1.5275
  17   0.0000       0.067011         1.8235
  18   0.0000       0.097855         2.6628
  19   0.0000       0.123613         3.3637

MULLIKEN ATOMIC CHARGES
-----------------------
   0 C :    0.169868
   1 O :   -0.198343
   2 C :   -0.120774
   3 C :    0.132741
   4 H :   -0.000591
   5 H :   -0.018224
   6 H :    0.003171
   7 H :    0.032152
Sum of atomic charges:    0.0000000

LOEWDIN ATOMIC CHARGES
----------------------
   0 C :   -0.020536
   1 O :   -0.018182
   2 C :   -0.069895
   3 C :    0.035381
   4 H :    0.004929
   5 H :    0.021885
   6 H :    0.011927
   7 H :    0.034492

  Mayer bond orders larger than 0.100000
B(  0-C ,  1-O ) :   2.1733 B(  0-C ,  2-C ) :   1.0362 B(  0-C ,  4-H ) :   0.9111
B(  2-C ,  3-C ) :   1.9805 B(  2-C ,  5-H ) :   0.9440 B(  3-C ,  6-H ) :   0.9284
B(  3-C ,  7-H ) :   0.9460

-----------------------------------------------------------------------------
         ABSORPTION SPECTRUM VIA TRANSITION ELECTRIC DIPOLE MOMENTS
-----------------------------------------------------------------------------
State   Energy    Wavelength  fosc         T2        TX        TY        TZ
        (cm-1)      (nm)                 (au**2)    (au)      (au)      (au)
-----------------------------------------------------------------------------
   1   27465.7    364.1   0.000093966   0.00113   0.02195  -0.00178   0.02532

FINAL SINGLE POINT ENERGY      -191.670624530480

DIPOLE MOMENT
-------------
                                X             Y             Z
Electronic contribution:     -1.92127      -1.87935       0.15119
Nuclear contribution   :      2.30127       2.78430      -0.22276
                        -----------------------------------------
Total Dipole Moment    :      0.38000       0.90494      -0.07156
                        -----------------------------------------
Magnitude (a.u.)       :      0.98410
Magnitude (Debye)      :      2.50137

Rotational constants in cm-1:     0.802673     0.195405     0.157375
Rotational constants in MHz : 24063.524043  5858.085489  4717.998111

                             ****ORCA TERMINATED NORMALLY****
TOTAL RUN TIME: 0 days 0 hours 3 minutes 22 seconds 606 msec
