                         Program Version 5.0.3 -  RELEASE  -
|  1> ! HF-3c
|  2> !TightSCF
|  3> %scf
|  4>  ConvForced true
|  5>  convergence tight
|  6>  MaxIter 500
|  7> end
|  8>
|  9> %tddft
| 10>  nroots 1
| 11> end
| 12>
| 13> # 	159
| 14> * xyz 0 1
| 15> 		C   -1.142262  -0.353792   0.154875
| 16> 		O   -2.279353  -0.117566   0.496331
| 17> 		C    0.082234   0.358907   0.444860
| 18> 		C    1.203931   0.141566  -0.262174
| 19> 		H   -1.090818  -1.047621  -0.605849
| 20> 		H   -0.103218   0.935405   1.156304
| 21> 		H    1.262592  -0.759934  -1.062789
| 22> 		H    2.163539   0.889503  -0.305945
| 23> *
| 24>
| 25>                          ****END OF INPUT****

CARTESIAN COORDINATES (ANGSTROEM)
---------------------------------
  C     -1.142262   -0.353792    0.154875
  O     -2.279353   -0.117566    0.496331
  C      0.082234    0.358907    0.444860
  C      1.203931    0.141566   -0.262174
  H     -1.090818   -1.047621   -0.605849
  H     -0.103218    0.935405    1.156304
  H      1.262592   -0.759934   -1.062789
  H      2.163539    0.889503   -0.305945

 Total Charge           Charge          ....    0
 Multiplicity           Mult            ....    1
 Number of Electrons    NEL             ....   30
 Basis Dimension        Dim             ....   24

ORBITAL ENERGIES
----------------

  NO   OCC          E(Eh)            E(eV)
   0   2.0000     -20.357952      -553.9680
   1   2.0000     -11.290649      -307.2342
   2   2.0000     -11.209909      -305.0371
   3   2.0000     -11.196673      -304.6770
   4   2.0000      -1.398723       -38.0612
   5   2.0000      -1.093470       -29.7548
   6   2.0000      -0.880276       -23.9535
   7   2.0000      -0.810166       -22.0457
   8   2.0000      -0.661536       -18.0013
   9   2.0000      -0.645873       -17.5751
  10   2.0000      -0.581363       -15.8197
  11   2.0000      -0.547916       -14.9096
  12   2.0000      -0.528638       -14.3850
  13   2.0000      -0.410566       -11.1721
  14   2.0000      -0.392467       -10.6796
  15   0.0000       0.124995         3.4013
  16   0.0000       0.297620         8.0987
  17   0.0000       0.496024        13.4975
  18   0.0000       0.510794        13.8994
  19   0.0000       0.729112        19.8402

MULLIKEN ATOMIC CHARGES
-----------------------
   0 C :    0.157253
   1 O :   -0.350741
   2 C :   -0.226654
   3 C :   -0.166069
   4 H :    0.126689
   5 H :    0.155128
   6 H :    0.147307
   7 H :    0.157087
Sum of atomic charges:    0.0000000

LOEWDIN ATOMIC CHARGES
----------------------
   0 C :    0.144533
   1 O :   -0.258763
   2 C :   -0.166565
   3 C :   -0.083054
   4 H :    0.058124
   5 H :    0.087797
   6 H :    0.104386
   7 H :    0.113543

  Mayer bond orders larger than 0.100000
B(  0-C ,  1-O ) :   1.8904 B(  0-C ,  2-C ) :   1.0425 B(  0-C ,  4-H ) :   0.9366
B(  2-C ,  3-C ) :   1.9228 B(  2-C ,  5-H ) :   0.9586 B(  3-C ,  6-H ) :   0.9572
B(  3-C ,  7-H ) :   0.9566

-----------------------------------------------------------------------------
         ABSORPTION SPECTRUM VIA TRANSITION ELECTRIC DIPOLE MOMENTS
-----------------------------------------------------------------------------
State   Energy    Wavelength  fosc         T2        TX        TY        TZ
        (cm-1)      (nm)                 (au**2)    (au)      (au)      (au)
-----------------------------------------------------------------------------
   1   31890.2    313.6   0.000091452   0.00094  -0.02870  -0.00169  -0.01084

Dispersion correction           -0.025670974
FINAL SINGLE POINT ENERGY      -189.284235985997

DIPOLE MOMENT
-------------
                                X             Y             Z
Electronic contribution:     -2.91965      -0.12596       1.02481
Nuclear contribution   :      4.24365       0.02137      -1.51100
                        -----------------------------------------
Total Dipole Moment    :      1.32400      -0.10459      -0.48619
                        -----------------------------------------
Magnitude (a.u.)       :      1.41432
Magnitude (Debye)      :      3.59491

Rotational constants in cm-1:     1.688821     0.152599     0.140943
Rotational constants in MHz : 50629.576893  4574.808600  4225.351432

                             ****ORCA TERMINATED NORMALLY****
TOTAL RUN TIME: 0 days 0 hours 0 minutes 10 seconds 882 msec
