                         Program Version 5.0.3 -  RELEASE  -
|  1> ! B3LYP cc-pVDZ
|  2> !TightSCF
|  3> %scf
|  4>  ConvForced true
|  5>  convergence tight
|  6>  MaxIter 500
|  7> end
|  8>
|  9> %tddft
| 10>  nroots 1
| 11> end
| 12>
| 13> # 	24932
| 14> * xyz 0 1
| 15> 		C   -0.610792  -0.427288  -0.018722
| 16> 		O   -0.562357  -1.635673   0.014822
| 17> 		C    0.626326   0.431912   0.047974
| 18> 		C    1.844489  -0.133182  -0.013688
| 19> 		H   -1.637400   0.030479  -0.201709
| 20> 		H    0.573224   1.498369  -0.061438
| 21> 		H    2.018812  -1.215349  -0.144879
| 22> 		H    2.772229   0.431907  -0.010497
| 23> *
| 24>
| 25>                          ****END OF INPUT****

CARTESIAN COORDINATES (ANGSTROEM)
---------------------------------
  C     -0.610792   -0.427288   -0.018722
  O     -0.562357   -1.635673    0.014822
  C      0.626326    0.431912    0.047974
  C      1.844489   -0.133182   -0.013688
  H     -1.637400    0.030479   -0.201709
  H      0.573224    1.498369   -0.061438
  H      2.018812   -1.215349   -0.144879
  H      2.772229    0.431907   -0.010497

 Total Charge           Charge          ....    0
 Multiplicity           Mult            ....    1
 Number of Electrons    NEL             ....   30
 Basis Dimension        Dim             ....   76

ORBITAL ENERGIES
----------------

  NO   OCC          E(Eh)            E(eV)
   0   2.0000     -19.136701      -520.7361
   1   2.0000     -10.278864      -279.7021
   2   2.0000     -10.213435      -277.9217
   3   2.0000     -10.206857      -277.7427
   4   2.0000      -1.046395       -28.4738
   5   2.0000      -0.789667       -21.4879
   6   2.0000      -0.647443       -17.6178
   7   2.0000      -0.546709       -14.8767
   8   2.0000      -0.506493       -13.7824
   9   2.0000      -0.445427       -12.1207
  10   2.0000      -0.424109       -11.5406
  11   2.0000      -0.397306       -10.8113
  12   2.0000      -0.378622       -10.3028
  13   2.0000      -0.285739        -7.7754
  14   2.0000      -0.254847        -6.9347
  15   0.0000      -0.068086        -1.8527
  16   0.0000       0.054052         1.4708
  17   0.0000       0.071252         1.9389
  18   0.0000       0.092184         2.5085
  19   0.0000       0.116861         3.1800

MULLIKEN ATOMIC CHARGES
-----------------------
   0 C :    0.173360
   1 O :   -0.188515
   2 C :   -0.094837
   3 C :    0.058468
   4 H :   -0.010699
   5 H :   -0.010301
   6 H :    0.042120
   7 H :    0.030405
Sum of atomic charges:    0.0000000

LOEWDIN ATOMIC CHARGES
----------------------
   0 C :   -0.031156
   1 O :   -0.006070
   2 C :   -0.081129
   3 C :    0.030493
   4 H :   -0.000947
   5 H :    0.024870
   6 H :    0.034597
   7 H :    0.029343

  Mayer bond orders larger than 0.100000
B(  0-C ,  1-O ) :   2.1895 B(  0-C ,  2-C ) :   1.0163 B(  0-C ,  4-H ) :   0.9200
B(  2-C ,  3-C ) :   1.9669 B(  2-C ,  5-H ) :   0.9437 B(  3-C ,  6-H ) :   0.9431
B(  3-C ,  7-H ) :   0.9473

-----------------------------------------------------------------------------
         ABSORPTION SPECTRUM VIA TRANSITION ELECTRIC DIPOLE MOMENTS
-----------------------------------------------------------------------------
State   Energy    Wavelength  fosc         T2        TX        TY        TZ
        (cm-1)      (nm)                 (au**2)    (au)      (au)      (au)
-----------------------------------------------------------------------------
   1   28091.3    356.0   0.000147896   0.00173  -0.02815  -0.01529   0.02659

FINAL SINGLE POINT ENERGY      -191.676936485539

DIPOLE MOMENT
-------------
                                X             Y             Z
Electronic contribution:     -1.95594      -1.62351       0.29584
Nuclear contribution   :      2.33900       2.48697      -0.39258
                        -----------------------------------------
Total Dipole Moment    :      0.38306       0.86346      -0.09673
                        -----------------------------------------
Magnitude (a.u.)       :      0.94955
Magnitude (Debye)      :      2.41357

Rotational constants in cm-1:     0.744960     0.208655     0.163328
Rotational constants in MHz : 22333.326869  6255.318290  4896.440303

                             ****ORCA TERMINATED NORMALLY****
TOTAL RUN TIME: 0 days 0 hours 3 minutes 22 seconds 367 msec
