                         Program Version 5.0.3 -  RELEASE  -
|  1> ! HF-3c
|  2> !TightSCF
|  3> %scf
|  4>  ConvForced true
|  5>  convergence tight
|  6>  MaxIter 500
|  7> end
|  8>
|  9> %tddft
| 10>  nroots 1
| 11> end
| 12>
| 13> # 	18281
| 14> * xyz 0 1
| 15> 		C   -1.242274  -0.344362   0.037356
| 16> 		O   -1.311496  -1.578602  -0.136811
| 17> 		C   -0.016970   0.468832  -0.079234
| 18> 		C    1.217836   0.008921  -0.037898
| 19> 		H   -2.146044   0.231325   0.052870
| 20> 		H   -0.184403   1.545323  -0.207548
| 21> 		H    1.443489  -0.927973   0.299379
| 22> 		H    2.188596   0.612457   0.045703
| 23> *
| 24>
| 25>                          ****END OF INPUT****

CARTESIAN COORDINATES (ANGSTROEM)
---------------------------------
  C     -1.242274   -0.344362    0.037356
  O     -1.311496   -1.578602   -0.136811
  C     -0.016970    0.468832   -0.079234
  C      1.217836    0.008921   -0.037898
  H     -2.146044    0.231325    0.052870
  H     -0.184403    1.545323   -0.207548
  H      1.443489   -0.927973    0.299379
  H      2.188596    0.612457    0.045703

 Total Charge           Charge          ....    0
 Multiplicity           Mult            ....    1
 Number of Electrons    NEL             ....   30
 Basis Dimension        Dim             ....   24

ORBITAL ENERGIES
----------------

  NO   OCC          E(Eh)            E(eV)
   0   2.0000     -20.361442      -554.0630
   1   2.0000     -11.290974      -307.2430
   2   2.0000     -11.196702      -304.6777
   3   2.0000     -11.194213      -304.6100
   4   2.0000      -1.376127       -37.4463
   5   2.0000      -1.083779       -29.4911
   6   2.0000      -0.905176       -24.6311
   7   2.0000      -0.761957       -20.7339
   8   2.0000      -0.696483       -18.9523
   9   2.0000      -0.623585       -16.9686
  10   2.0000      -0.587138       -15.9768
  11   2.0000      -0.527829       -14.3630
  12   2.0000      -0.523659       -14.2495
  13   2.0000      -0.419754       -11.4221
  14   2.0000      -0.396219       -10.7817
  15   0.0000       0.120383         3.2758
  16   0.0000       0.296905         8.0792
  17   0.0000       0.513328        13.9684
  18   0.0000       0.621806        16.9202
  19   0.0000       0.703542        19.1444

MULLIKEN ATOMIC CHARGES
-----------------------
   0 C :    0.147186
   1 O :   -0.336163
   2 C :   -0.174088
   3 C :   -0.219952
   4 H :    0.139452
   5 H :    0.145031
   6 H :    0.147964
   7 H :    0.150569
Sum of atomic charges:   -0.0000000

LOEWDIN ATOMIC CHARGES
----------------------
   0 C :    0.140818
   1 O :   -0.252906
   2 C :   -0.128099
   3 C :   -0.120543
   4 H :    0.074034
   5 H :    0.093501
   6 H :    0.089837
   7 H :    0.103357

  Mayer bond orders larger than 0.100000
B(  0-C ,  1-O ) :   1.9014 B(  0-C ,  2-C ) :   1.0344 B(  0-C ,  4-H ) :   0.9334
B(  2-C ,  3-C ) :   1.9456 B(  2-C ,  5-H ) :   0.9554 B(  3-C ,  6-H ) :   0.9636
B(  3-C ,  7-H ) :   0.9608

-----------------------------------------------------------------------------
         ABSORPTION SPECTRUM VIA TRANSITION ELECTRIC DIPOLE MOMENTS
-----------------------------------------------------------------------------
State   Energy    Wavelength  fosc         T2        TX        TY        TZ
        (cm-1)      (nm)                 (au**2)    (au)      (au)      (au)
-----------------------------------------------------------------------------
   1   29745.8    336.2   0.000040676   0.00045   0.02093   0.00336   0.00082

Dispersion correction           -0.025317049
FINAL SINGLE POINT ENERGY      -189.341160871339

DIPOLE MOMENT
-------------
                                X             Y             Z
Electronic contribution:     -2.16977      -1.84213      -0.20861
Nuclear contribution   :      2.55705       2.83802       0.37519
                        -----------------------------------------
Total Dipole Moment    :      0.38728       0.99589       0.16659
                        -----------------------------------------
Magnitude (a.u.)       :      1.08145
Magnitude (Debye)      :      2.74883

Rotational constants in cm-1:     0.805445     0.193972     0.157367
Rotational constants in MHz : 24146.645444  5815.145673  4717.757746

                             ****ORCA TERMINATED NORMALLY****
TOTAL RUN TIME: 0 days 0 hours 0 minutes 9 seconds 87 msec
