                         Program Version 5.0.3 -  RELEASE  -
|  1> ! B3LYP cc-pVDZ
|  2> !TightSCF
|  3> %scf
|  4>  ConvForced true
|  5>  convergence tight
|  6>  MaxIter 500
|  7> end
|  8>
|  9> %tddft
| 10>  nroots 1
| 11> end
| 12>
| 13> # 	14555
| 14> * xyz 0 1
| 15> 		C   -1.208220  -0.367196  -0.002909
| 16> 		O   -1.997618  -0.645398   0.827569
| 17> 		C    0.017445   0.554689   0.304200
| 18> 		C    1.234521   0.067800  -0.187610
| 19> 		H   -1.283195  -0.676734  -0.871508
| 20> 		H   -0.110567   1.329100   0.831836
| 21> 		H    1.124988  -0.989234  -0.772450
| 22> 		H    2.179547   0.696500  -0.165783
| 23> *
| 24>
| 25>                          ****END OF INPUT****

CARTESIAN COORDINATES (ANGSTROEM)
---------------------------------
  C     -1.208220   -0.367196   -0.002909
  O     -1.997618   -0.645398    0.827569
  C      0.017445    0.554689    0.304200
  C      1.234521    0.067800   -0.187610
  H     -1.283195   -0.676734   -0.871508
  H     -0.110567    1.329100    0.831836
  H      1.124988   -0.989234   -0.772450
  H      2.179547    0.696500   -0.165783

 Total Charge           Charge          ....    0
 Multiplicity           Mult            ....    1
 Number of Electrons    NEL             ....   30
 Basis Dimension        Dim             ....   76

ORBITAL ENERGIES
----------------

  NO   OCC          E(Eh)            E(eV)
   0   2.0000     -19.139637      -520.8160
   1   2.0000     -10.263475      -279.2833
   2   2.0000     -10.228719      -278.3376
   3   2.0000     -10.198826      -277.5242
   4   2.0000      -1.065960       -29.0062
   5   2.0000      -0.780487       -21.2381
   6   2.0000      -0.644202       -17.5296
   7   2.0000      -0.599702       -16.3187
   8   2.0000      -0.492256       -13.3950
   9   2.0000      -0.459742       -12.5102
  10   2.0000      -0.425942       -11.5905
  11   2.0000      -0.393437       -10.7060
  12   2.0000      -0.391987       -10.6665
  13   2.0000      -0.278988        -7.5917
  14   2.0000      -0.252369        -6.8673
  15   0.0000      -0.053622        -1.4591
  16   0.0000       0.016171         0.4400
  17   0.0000       0.064817         1.7638
  18   0.0000       0.099471         2.7067
  19   0.0000       0.127283         3.4635

MULLIKEN ATOMIC CHARGES
-----------------------
   0 C :    0.263284
   1 O :   -0.170656
   2 C :    0.004407
   3 C :   -0.056338
   4 H :   -0.076615
   5 H :   -0.067101
   6 H :    0.048929
   7 H :    0.054090
Sum of atomic charges:   -0.0000000

LOEWDIN ATOMIC CHARGES
----------------------
   0 C :   -0.004321
   1 O :    0.041599
   2 C :   -0.012192
   3 C :   -0.036980
   4 H :   -0.048069
   5 H :   -0.025079
   6 H :    0.047067
   7 H :    0.037974

  Mayer bond orders larger than 0.100000
B(  0-C ,  1-O ) :   2.2331 B(  0-C ,  2-C ) :   1.0037 B(  0-C ,  4-H ) :   0.9382
B(  2-C ,  3-C ) :   1.9551 B(  2-C ,  5-H ) :   0.9673 B(  3-C ,  6-H ) :   0.9377
B(  3-C ,  7-H ) :   0.9445

-----------------------------------------------------------------------------
         ABSORPTION SPECTRUM VIA TRANSITION ELECTRIC DIPOLE MOMENTS
-----------------------------------------------------------------------------
State   Energy    Wavelength  fosc         T2        TX        TY        TZ
        (cm-1)      (nm)                 (au**2)    (au)      (au)      (au)
-----------------------------------------------------------------------------
   1   30837.0    324.3   0.001244346   0.01328  -0.10623  -0.00757   0.04407

FINAL SINGLE POINT ENERGY      -191.594186386630

DIPOLE MOMENT
-------------
                                X             Y             Z
Electronic contribution:     -3.08516      -0.50460       1.23890
Nuclear contribution   :      3.74606       0.79132      -1.82047
                        -----------------------------------------
Total Dipole Moment    :      0.66090       0.28673      -0.58157
                        -----------------------------------------
Magnitude (a.u.)       :      0.92586
Magnitude (Debye)      :      2.35335

Rotational constants in cm-1:     1.223021     0.156835     0.146754
Rotational constants in MHz : 36665.248838  4701.806886  4399.583351

                             ****ORCA TERMINATED NORMALLY****
TOTAL RUN TIME: 0 days 0 hours 3 minutes 23 seconds 577 msec
