                         Program Version 5.0.3 -  RELEASE  -
|  1> ! B3LYP cc-pVDZ
|  2> !TightSCF
|  3> %scf
|  4>  ConvForced true
|  5>  convergence tight
|  6>  MaxIter 500
|  7> end
|  8>
|  9> %tddft
| 10>  nroots 1
| 11> end
| 12>
| 13> # 	5400
| 14> * xyz 0 1
| 15> 		C   -1.231785  -0.263635  -0.082567
| 16> 		O   -1.189033  -1.467711  -0.040102
| 17> 		C    0.001955   0.537776  -0.055756
| 18> 		C    1.188370  -0.038486  -0.045529
| 19> 		H   -2.255702   0.052581   0.017011
| 20> 		H   -0.089425   1.686931   0.216252
| 21> 		H    1.332696  -1.052179   0.038831
| 22> 		H    2.208704   0.537121  -0.036755
| 23> *
| 24>
| 25>                          ****END OF INPUT****

CARTESIAN COORDINATES (ANGSTROEM)
---------------------------------
  C     -1.231785   -0.263635   -0.082567
  O     -1.189033   -1.467711   -0.040102
  C      0.001955    0.537776   -0.055756
  C      1.188370   -0.038486   -0.045529
  H     -2.255702    0.052581    0.017011
  H     -0.089425    1.686931    0.216252
  H      1.332696   -1.052179    0.038831
  H      2.208704    0.537121   -0.036755

 Total Charge           Charge          ....    0
 Multiplicity           Mult            ....    1
 Number of Electrons    NEL             ....   30
 Basis Dimension        Dim             ....   76

ORBITAL ENERGIES
----------------

  NO   OCC          E(Eh)            E(eV)
   0   2.0000     -19.129829      -520.5491
   1   2.0000     -10.268449      -279.4187
   2   2.0000     -10.212616      -277.8994
   3   2.0000     -10.211537      -277.8700
   4   2.0000      -1.048495       -28.5310
   5   2.0000      -0.794599       -21.6221
   6   2.0000      -0.650873       -17.7112
   7   2.0000      -0.549996       -14.9662
   8   2.0000      -0.507457       -13.8086
   9   2.0000      -0.449629       -12.2350
  10   2.0000      -0.418849       -11.3975
  11   2.0000      -0.401463       -10.9244
  12   2.0000      -0.369468       -10.0537
  13   2.0000      -0.286687        -7.8011
  14   2.0000      -0.249690        -6.7944
  15   0.0000      -0.068051        -1.8518
  16   0.0000       0.049175         1.3381
  17   0.0000       0.065733         1.7887
  18   0.0000       0.097614         2.6562
  19   0.0000       0.114824         3.1245

MULLIKEN ATOMIC CHARGES
-----------------------
   0 C :    0.196297
   1 O :   -0.194187
   2 C :   -0.139127
   3 C :    0.080633
   4 H :   -0.025320
   5 H :    0.020922
   6 H :    0.014262
   7 H :    0.046519
Sum of atomic charges:   -0.0000000

LOEWDIN ATOMIC CHARGES
----------------------
   0 C :   -0.036960
   1 O :   -0.004172
   2 C :   -0.092083
   3 C :    0.030626
   4 H :   -0.003192
   5 H :    0.045046
   6 H :    0.012542
   7 H :    0.048192

  Mayer bond orders larger than 0.100000
B(  0-C ,  1-O ) :   2.1772 B(  0-C ,  2-C ) :   1.0244 B(  0-C ,  4-H ) :   0.9491
B(  2-C ,  3-C ) :   1.9677 B(  2-C ,  5-H ) :   0.9343 B(  3-C ,  6-H ) :   0.9372
B(  3-C ,  7-H ) :   0.9466

-----------------------------------------------------------------------------
         ABSORPTION SPECTRUM VIA TRANSITION ELECTRIC DIPOLE MOMENTS
-----------------------------------------------------------------------------
State   Energy    Wavelength  fosc         T2        TX        TY        TZ
        (cm-1)      (nm)                 (au**2)    (au)      (au)      (au)
-----------------------------------------------------------------------------
   1   26856.5    372.3   0.000231011   0.00283   0.03458   0.01998   0.03516

FINAL SINGLE POINT ENERGY      -191.661537981847

DIPOLE MOMENT
-------------
                                X             Y             Z
Electronic contribution:     -1.99655      -1.62032      -0.32470
Nuclear contribution   :      2.33553       2.43188       0.39576
                        -----------------------------------------
Total Dipole Moment    :      0.33898       0.81156       0.07106
                        -----------------------------------------
Magnitude (a.u.)       :      0.88237
Magnitude (Debye)      :      2.24281

Rotational constants in cm-1:     0.763083     0.215810     0.168553
Rotational constants in MHz : 22876.648125  6469.818089  5053.091847

                             ****ORCA TERMINATED NORMALLY****
TOTAL RUN TIME: 0 days 0 hours 3 minutes 9 seconds 846 msec
