                         Program Version 5.0.3 -  RELEASE  -
|  1> ! B3LYP cc-pVDZ
|  2> !TightSCF
|  3> %scf
|  4>  ConvForced true
|  5>  convergence tight
|  6>  MaxIter 500
|  7> end
|  8>
|  9> %tddft
| 10>  nroots 1
| 11> end
| 12>
| 13> # 	22341
| 14> * xyz 0 1
| 15> 		C   -0.571005  -0.483311  -0.006897
| 16> 		O   -0.577489  -1.624508  -0.030538
| 17> 		C    0.581613   0.474743   0.045196
| 18> 		C    1.862243  -0.160513   0.026586
| 19> 		H   -1.478820   0.173647   0.211013
| 20> 		H    0.624511   1.621688  -0.328562
| 21> 		H    2.021270  -1.198051   0.276864
| 22> 		H    2.671415   0.460681  -0.495925
| 23> *
| 24>
| 25>                          ****END OF INPUT****

CARTESIAN COORDINATES (ANGSTROEM)
---------------------------------
  C     -0.571005   -0.483311   -0.006897
  O     -0.577489   -1.624508   -0.030538
  C      0.581613    0.474743    0.045196
  C      1.862243   -0.160513    0.026586
  H     -1.478820    0.173647    0.211013
  H      0.624511    1.621688   -0.328562
  H      2.021270   -1.198051    0.276864
  H      2.671415    0.460681   -0.495925

 Total Charge           Charge          ....    0
 Multiplicity           Mult            ....    1
 Number of Electrons    NEL             ....   30
 Basis Dimension        Dim             ....   76

ORBITAL ENERGIES
----------------

  NO   OCC          E(Eh)            E(eV)
   0   2.0000     -19.145894      -520.9863
   1   2.0000     -10.276758      -279.6448
   2   2.0000     -10.226720      -278.2832
   3   2.0000     -10.217829      -278.0413
   4   2.0000      -1.091060       -29.6893
   5   2.0000      -0.774545       -21.0764
   6   2.0000      -0.645892       -17.5756
   7   2.0000      -0.532172       -14.4811
   8   2.0000      -0.498902       -13.5758
   9   2.0000      -0.460288       -12.5251
  10   2.0000      -0.425398       -11.5757
  11   2.0000      -0.400531       -10.8990
  12   2.0000      -0.388099       -10.5607
  13   2.0000      -0.274278        -7.4635
  14   2.0000      -0.251951        -6.8559
  15   0.0000      -0.075831        -2.0635
  16   0.0000       0.042383         1.1533
  17   0.0000       0.060269         1.6400
  18   0.0000       0.090081         2.4512
  19   0.0000       0.113639         3.0923

MULLIKEN ATOMIC CHARGES
-----------------------
   0 C :    0.191965
   1 O :   -0.123291
   2 C :   -0.197379
   3 C :    0.025927
   4 H :   -0.041608
   5 H :    0.045241
   6 H :    0.048025
   7 H :    0.051121
Sum of atomic charges:    0.0000000

LOEWDIN ATOMIC CHARGES
----------------------
   0 C :   -0.093955
   1 O :    0.072855
   2 C :   -0.107288
   3 C :    0.031162
   4 H :   -0.021760
   5 H :    0.053523
   6 H :    0.023991
   7 H :    0.041472

  Mayer bond orders larger than 0.100000
B(  0-C ,  1-O ) :   2.2784 B(  0-C ,  2-C ) :   1.0081 B(  0-C ,  4-H ) :   0.9037
B(  2-C ,  3-C ) :   1.9117 B(  2-C ,  5-H ) :   0.9361 B(  3-C ,  6-H ) :   0.9503
B(  3-C ,  7-H ) :   0.9526

-----------------------------------------------------------------------------
         ABSORPTION SPECTRUM VIA TRANSITION ELECTRIC DIPOLE MOMENTS
-----------------------------------------------------------------------------
State   Energy    Wavelength  fosc         T2        TX        TY        TZ
        (cm-1)      (nm)                 (au**2)    (au)      (au)      (au)
-----------------------------------------------------------------------------
   1   27300.2    366.3   0.000408632   0.00493   0.05412   0.02878  -0.03420

FINAL SINGLE POINT ENERGY      -191.638783211171

DIPOLE MOMENT
-------------
                                X             Y             Z
Electronic contribution:     -1.96527      -2.07945       0.19663
Nuclear contribution   :      2.44176       2.77990      -0.31299
                        -----------------------------------------
Total Dipole Moment    :      0.47649       0.70045      -0.11635
                        -----------------------------------------
Magnitude (a.u.)       :      0.85511
Magnitude (Debye)      :      2.17351

Rotational constants in cm-1:     0.716666     0.209138     0.163550
Rotational constants in MHz : 21485.107403  6269.784815  4903.107984

                             ****ORCA TERMINATED NORMALLY****
TOTAL RUN TIME: 0 days 0 hours 3 minutes 22 seconds 27 msec
