                         Program Version 5.0.3 -  RELEASE  -
|  1> ! B3LYP cc-pVDZ
|  2> !TightSCF
|  3> %scf
|  4>  ConvForced true
|  5>  convergence tight
|  6>  MaxIter 500
|  7> end
|  8>
|  9> %tddft
| 10>  nroots 1
| 11> end
| 12>
| 13> # 	27306
| 14> * xyz 0 1
| 15> 		C   -0.607874  -0.421204   0.000245
| 16> 		O   -0.521574  -1.582157  -0.016240
| 17> 		C    0.613448   0.422921   0.006207
| 18> 		C    1.792874  -0.176396  -0.020026
| 19> 		H   -1.494100  -0.057463   0.275703
| 20> 		H    0.576337   1.465184  -0.211173
| 21> 		H    1.832911  -1.241241   0.222556
| 22> 		H    2.869202   0.258647   0.122488
| 23> *
| 24>
| 25>                          ****END OF INPUT****

CARTESIAN COORDINATES (ANGSTROEM)
---------------------------------
  C     -0.607874   -0.421204    0.000245
  O     -0.521574   -1.582157   -0.016240
  C      0.613448    0.422921    0.006207
  C      1.792874   -0.176396   -0.020026
  H     -1.494100   -0.057463    0.275703
  H      0.576337    1.465184   -0.211173
  H      1.832911   -1.241241    0.222556
  H      2.869202    0.258647    0.122488

 Total Charge           Charge          ....    0
 Multiplicity           Mult            ....    1
 Number of Electrons    NEL             ....   30
 Basis Dimension        Dim             ....   76

ORBITAL ENERGIES
----------------

  NO   OCC          E(Eh)            E(eV)
   0   2.0000     -19.131534      -520.5955
   1   2.0000     -10.259982      -279.1883
   2   2.0000     -10.209358      -277.8108
   3   2.0000     -10.195784      -277.4414
   4   2.0000      -1.073295       -29.2058
   5   2.0000      -0.790876       -21.5208
   6   2.0000      -0.652243       -17.7484
   7   2.0000      -0.558218       -15.1899
   8   2.0000      -0.514245       -13.9933
   9   2.0000      -0.448588       -12.2067
  10   2.0000      -0.431750       -11.7485
  11   2.0000      -0.407183       -11.0800
  12   2.0000      -0.361951        -9.8492
  13   2.0000      -0.287570        -7.8252
  14   2.0000      -0.253459        -6.8970
  15   0.0000      -0.062228        -1.6933
  16   0.0000       0.054586         1.4854
  17   0.0000       0.079627         2.1667
  18   0.0000       0.100396         2.7319
  19   0.0000       0.126399         3.4395

MULLIKEN ATOMIC CHARGES
-----------------------
   0 C :    0.237797
   1 O :   -0.159634
   2 C :   -0.109433
   3 C :    0.021399
   4 H :   -0.055639
   5 H :   -0.014775
   6 H :    0.034266
   7 H :    0.046020
Sum of atomic charges:   -0.0000000

LOEWDIN ATOMIC CHARGES
----------------------
   0 C :   -0.045273
   1 O :    0.046404
   2 C :   -0.080528
   3 C :    0.011763
   4 H :   -0.024347
   5 H :    0.020331
   6 H :    0.027132
   7 H :    0.044518

  Mayer bond orders larger than 0.100000
B(  0-C ,  1-O ) :   2.2291 B(  0-C ,  2-C ) :   1.0225 B(  0-C ,  4-H ) :   0.9422
B(  2-C ,  3-C ) :   1.9698 B(  2-C ,  5-H ) :   0.9465 B(  3-C ,  6-H ) :   0.9316
B(  3-C ,  7-H ) :   0.9519

-----------------------------------------------------------------------------
         ABSORPTION SPECTRUM VIA TRANSITION ELECTRIC DIPOLE MOMENTS
-----------------------------------------------------------------------------
State   Energy    Wavelength  fosc         T2        TX        TY        TZ
        (cm-1)      (nm)                 (au**2)    (au)      (au)      (au)
-----------------------------------------------------------------------------
   1   28969.9    345.2   0.000720690   0.00819  -0.08654  -0.01075   0.02420

FINAL SINGLE POINT ENERGY      -191.643880081082

DIPOLE MOMENT
-------------
                                X             Y             Z
Electronic contribution:     -2.17446      -1.41081      -0.31845
Nuclear contribution   :      2.39550       2.18866       0.38469
                        -----------------------------------------
Total Dipole Moment    :      0.22104       0.77785       0.06624
                        -----------------------------------------
Magnitude (a.u.)       :      0.81136
Magnitude (Debye)      :      2.06231

Rotational constants in cm-1:     0.767301     0.225022     0.174701
Rotational constants in MHz : 23003.106367  6745.977296  5237.414066

                             ****ORCA TERMINATED NORMALLY****
TOTAL RUN TIME: 0 days 0 hours 3 minutes 6 seconds 830 msec
