                         Program Version 5.0.3 -  RELEASE  -
|  1> ! HF-3c
|  2> !TightSCF
|  3> %scf
|  4>  ConvForced true
|  5>  convergence tight
|  6>  MaxIter 500
|  7> end
|  8>
|  9> %tddft
| 10>  nroots 1
| 11> end
| 12>
| 13> # 	20376
| 14> * xyz 0 1
| 15> 		C   -0.556248  -0.413203   0.094166
| 16> 		O   -0.597891  -1.680690  -0.047289
| 17> 		C    0.605252   0.449096  -0.087793
| 18> 		C    1.847535  -0.107696   0.057110
| 19> 		H   -1.387808  -0.010763   0.218946
| 20> 		H    0.625928   1.540335  -0.240889
| 21> 		H    1.830630  -1.361556  -0.078738
| 22> 		H    2.836860   0.577279   0.085827
| 23> *
| 24>
| 25>                          ****END OF INPUT****

CARTESIAN COORDINATES (ANGSTROEM)
---------------------------------
  C     -0.556248   -0.413203    0.094166
  O     -0.597891   -1.680690   -0.047289
  C      0.605252    0.449096   -0.087793
  C      1.847535   -0.107696    0.057110
  H     -1.387808   -0.010763    0.218946
  H      0.625928    1.540335   -0.240889
  H      1.830630   -1.361556   -0.078738
  H      2.836860    0.577279    0.085827

 Total Charge           Charge          ....    0
 Multiplicity           Mult            ....    1
 Number of Electrons    NEL             ....   30
 Basis Dimension        Dim             ....   24

ORBITAL ENERGIES
----------------

  NO   OCC          E(Eh)            E(eV)
   0   2.0000     -20.342466      -553.5466
   1   2.0000     -11.287037      -307.1359
   2   2.0000     -11.184304      -304.3404
   3   2.0000     -11.175158      -304.0915
   4   2.0000      -1.355752       -36.8919
   5   2.0000      -1.064150       -28.9570
   6   2.0000      -0.899560       -24.4783
   7   2.0000      -0.743354       -20.2277
   8   2.0000      -0.696149       -18.9432
   9   2.0000      -0.584233       -15.8978
  10   2.0000      -0.566801       -15.4234
  11   2.0000      -0.519796       -14.1444
  12   2.0000      -0.494459       -13.4549
  13   2.0000      -0.424423       -11.5491
  14   2.0000      -0.367590       -10.0026
  15   0.0000       0.119334         3.2472
  16   0.0000       0.284928         7.7533
  17   0.0000       0.468324        12.7437
  18   0.0000       0.547789        14.9061
  19   0.0000       0.573519        15.6063

MULLIKEN ATOMIC CHARGES
-----------------------
   0 C :    0.111426
   1 O :   -0.341189
   2 C :   -0.202373
   3 C :   -0.170192
   4 H :    0.140550
   5 H :    0.146107
   6 H :    0.168967
   7 H :    0.146704
Sum of atomic charges:   -0.0000000

LOEWDIN ATOMIC CHARGES
----------------------
   0 C :    0.129809
   1 O :   -0.269258
   2 C :   -0.162427
   3 C :   -0.089984
   4 H :    0.064286
   5 H :    0.095935
   6 H :    0.127006
   7 H :    0.104633

  Mayer bond orders larger than 0.100000
B(  0-C ,  1-O ) :   1.8737 B(  0-C ,  2-C ) :   1.0647 B(  0-C ,  4-H ) :   0.9494
B(  2-C ,  3-C ) :   1.9005 B(  2-C ,  5-H ) :   0.9585 B(  3-C ,  6-H ) :   0.9464
B(  3-C ,  7-H ) :   0.9593

-----------------------------------------------------------------------------
         ABSORPTION SPECTRUM VIA TRANSITION ELECTRIC DIPOLE MOMENTS
-----------------------------------------------------------------------------
State   Energy    Wavelength  fosc         T2        TX        TY        TZ
        (cm-1)      (nm)                 (au**2)    (au)      (au)      (au)
-----------------------------------------------------------------------------
   1   29326.2    341.0   0.000025545   0.00029   0.01104   0.00138   0.01277

Dispersion correction           -0.025647998
FINAL SINGLE POINT ENERGY      -189.280149894222

DIPOLE MOMENT
-------------
                                X             Y             Z
Electronic contribution:     -1.90194      -1.58608       0.06685
Nuclear contribution   :      2.50280       2.48879      -0.01403
                        -----------------------------------------
Total Dipole Moment    :      0.60085       0.90271       0.05282
                        -----------------------------------------
Magnitude (a.u.)       :      1.08568
Magnitude (Debye)      :      2.75958

Rotational constants in cm-1:     0.745140     0.203160     0.160837
Rotational constants in MHz : 22338.742604  6090.587068  4821.777737

                             ****ORCA TERMINATED NORMALLY****
TOTAL RUN TIME: 0 days 0 hours 0 minutes 15 seconds 634 msec
