                         Program Version 5.0.3 -  RELEASE  -
|  1> ! HF-3c
|  2> !TightSCF
|  3> %scf
|  4>  ConvForced true
|  5>  convergence tight
|  6>  MaxIter 500
|  7> end
|  8>
|  9> %tddft
| 10>  nroots 1
| 11> end
| 12>
| 13> # 	7268
| 14> * xyz 0 1
| 15> 		C   -1.140307  -0.372266   0.009399
| 16> 		O   -1.366794  -1.333970   0.696076
| 17> 		C    0.085161   0.437571   0.164452
| 18> 		C    1.252053   0.014939  -0.144168
| 19> 		H   -1.956367  -0.024105  -0.675572
| 20> 		H    0.001763   1.578089   0.441850
| 21> 		H    1.276148  -1.000473  -0.314590
| 22> 		H    1.881738   0.683758  -0.166867
| 23> *
| 24>
| 25>                          ****END OF INPUT****

CARTESIAN COORDINATES (ANGSTROEM)
---------------------------------
  C     -1.140307   -0.372266    0.009399
  O     -1.366794   -1.333970    0.696076
  C      0.085161    0.437571    0.164452
  C      1.252053    0.014939   -0.144168
  H     -1.956367   -0.024105   -0.675572
  H      0.001763    1.578089    0.441850
  H      1.276148   -1.000473   -0.314590
  H      1.881738    0.683758   -0.166867

 Total Charge           Charge          ....    0
 Multiplicity           Mult            ....    1
 Number of Electrons    NEL             ....   30
 Basis Dimension        Dim             ....   24

ORBITAL ENERGIES
----------------

  NO   OCC          E(Eh)            E(eV)
   0   2.0000     -20.377621      -554.5033
   1   2.0000     -11.304268      -307.6048
   2   2.0000     -11.200613      -304.7842
   3   2.0000     -11.189442      -304.4802
   4   2.0000      -1.416042       -38.5325
   5   2.0000      -1.116244       -30.3745
   6   2.0000      -0.902063       -24.5464
   7   2.0000      -0.755780       -20.5658
   8   2.0000      -0.728904       -19.8345
   9   2.0000      -0.646874       -17.6023
  10   2.0000      -0.611505       -16.6399
  11   2.0000      -0.563250       -15.3268
  12   2.0000      -0.509387       -13.8611
  13   2.0000      -0.427081       -11.6215
  14   2.0000      -0.414722       -11.2851
  15   0.0000       0.167726         4.5641
  16   0.0000       0.247055         6.7227
  17   0.0000       0.569485        15.4965
  18   0.0000       0.579996        15.7825
  19   0.0000       0.687811        18.7163

MULLIKEN ATOMIC CHARGES
-----------------------
   0 C :    0.163568
   1 O :   -0.342393
   2 C :   -0.126288
   3 C :   -0.304134
   4 H :    0.144986
   5 H :    0.151029
   6 H :    0.162475
   7 H :    0.150757
Sum of atomic charges:   -0.0000000

LOEWDIN ATOMIC CHARGES
----------------------
   0 C :    0.142497
   1 O :   -0.245188
   2 C :   -0.085822
   3 C :   -0.190052
   4 H :    0.081868
   5 H :    0.104219
   6 H :    0.105289
   7 H :    0.087190

  Mayer bond orders larger than 0.100000
B(  0-C ,  1-O ) :   1.9364 B(  0-C ,  2-C ) :   1.0010 B(  0-C ,  4-H ) :   0.9188
B(  2-C ,  3-C ) :   1.9882 B(  2-C ,  5-H ) :   0.9456 B(  3-C ,  6-H ) :   0.9585
B(  3-C ,  7-H ) :   0.9650

-----------------------------------------------------------------------------
         ABSORPTION SPECTRUM VIA TRANSITION ELECTRIC DIPOLE MOMENTS
-----------------------------------------------------------------------------
State   Energy    Wavelength  fosc         T2        TX        TY        TZ
        (cm-1)      (nm)                 (au**2)    (au)      (au)      (au)
-----------------------------------------------------------------------------
   1   34206.4    292.3   0.000199693   0.00192  -0.03737  -0.01698  -0.01541

Dispersion correction           -0.026019177
FINAL SINGLE POINT ENERGY      -189.278985946602

DIPOLE MOMENT
-------------
                                X             Y             Z
Electronic contribution:     -2.18291      -1.60778       0.87474
Nuclear contribution   :      2.33772       2.42666      -1.38456
                        -----------------------------------------
Total Dipole Moment    :      0.15481       0.81888      -0.50982
                        -----------------------------------------
Magnitude (a.u.)       :      0.97696
Magnitude (Debye)      :      2.48323

Rotational constants in cm-1:     0.931164     0.187806     0.166796
Rotational constants in MHz : 27915.589202  5630.273681  5000.406598

                             ****ORCA TERMINATED NORMALLY****
TOTAL RUN TIME: 0 days 0 hours 0 minutes 12 seconds 545 msec
