                         Program Version 5.0.3 -  RELEASE  -
|  1> ! HF-3c
|  2> !TightSCF
|  3> %scf
|  4>  ConvForced true
|  5>  convergence tight
|  6>  MaxIter 500
|  7> end
|  8>
|  9> %tddft
| 10>  nroots 1
| 11> end
| 12>
| 13> # 	19894
| 14> * xyz 0 1
| 15> 		C   -1.226898  -0.347382   0.030071
| 16> 		O   -2.016045  -0.694673   0.826342
| 17> 		C    0.011320   0.438748   0.357478
| 18> 		C    1.203947   0.140641  -0.203124
| 19> 		H   -1.325064  -0.710008  -1.122369
| 20> 		H    0.038462   1.070963   1.236811
| 21> 		H    1.226662  -0.460104  -1.084567
| 22> 		H    2.091100   0.607638  -0.044614
| 23> *
| 24>
| 25>                          ****END OF INPUT****

CARTESIAN COORDINATES (ANGSTROEM)
---------------------------------
  C     -1.226898   -0.347382    0.030071
  O     -2.016045   -0.694673    0.826342
  C      0.011320    0.438748    0.357478
  C      1.203947    0.140641   -0.203124
  H     -1.325064   -0.710008   -1.122369
  H      0.038462    1.070963    1.236811
  H      1.226662   -0.460104   -1.084567
  H      2.091100    0.607638   -0.044614

 Total Charge           Charge          ....    0
 Multiplicity           Mult            ....    1
 Number of Electrons    NEL             ....   30
 Basis Dimension        Dim             ....   24

ORBITAL ENERGIES
----------------

  NO   OCC          E(Eh)            E(eV)
   0   2.0000     -20.384455      -554.6892
   1   2.0000     -11.311063      -307.7897
   2   2.0000     -11.195360      -304.6412
   3   2.0000     -11.190246      -304.5021
   4   2.0000      -1.434586       -39.0371
   5   2.0000      -1.080634       -29.4055
   6   2.0000      -0.879300       -23.9270
   7   2.0000      -0.771148       -20.9840
   8   2.0000      -0.672950       -18.3119
   9   2.0000      -0.661674       -18.0051
  10   2.0000      -0.594989       -16.1905
  11   2.0000      -0.558168       -15.1885
  12   2.0000      -0.538128       -14.6432
  13   2.0000      -0.406277       -11.0554
  14   2.0000      -0.400704       -10.9037
  15   0.0000       0.141458         3.8493
  16   0.0000       0.280760         7.6399
  17   0.0000       0.507332        13.8052
  18   0.0000       0.589869        16.0512
  19   0.0000       0.676086        18.3972

MULLIKEN ATOMIC CHARGES
-----------------------
   0 C :    0.195456
   1 O :   -0.357987
   2 C :   -0.160133
   3 C :   -0.246465
   4 H :    0.131855
   5 H :    0.155369
   6 H :    0.137050
   7 H :    0.144855
Sum of atomic charges:   -0.0000000

LOEWDIN ATOMIC CHARGES
----------------------
   0 C :    0.155695
   1 O :   -0.248437
   2 C :   -0.114906
   3 C :   -0.143551
   4 H :    0.075822
   5 H :    0.100391
   6 H :    0.086509
   7 H :    0.088477

  Mayer bond orders larger than 0.100000
B(  0-C ,  1-O ) :   1.9334 B(  0-C ,  2-C ) :   0.9977 B(  0-C ,  4-H ) :   0.9039
B(  2-C ,  3-C ) :   1.9638 B(  2-C ,  5-H ) :   0.9543 B(  3-C ,  6-H ) :   0.9667
B(  3-C ,  7-H ) :   0.9675

-----------------------------------------------------------------------------
         ABSORPTION SPECTRUM VIA TRANSITION ELECTRIC DIPOLE MOMENTS
-----------------------------------------------------------------------------
State   Energy    Wavelength  fosc         T2        TX        TY        TZ
        (cm-1)      (nm)                 (au**2)    (au)      (au)      (au)
-----------------------------------------------------------------------------
   1   35797.2    279.4   0.000124591   0.00115   0.02684  -0.00697  -0.01941

Dispersion correction           -0.025191310
FINAL SINGLE POINT ENERGY      -189.312594074465

DIPOLE MOMENT
-------------
                                X             Y             Z
Electronic contribution:     -3.11993      -0.71043       1.27203
Nuclear contribution   :      3.91509       0.99194      -1.90833
                        -----------------------------------------
Total Dipole Moment    :      0.79515       0.28151      -0.63630
                        -----------------------------------------
Magnitude (a.u.)       :      1.05659
Magnitude (Debye)      :      2.68565

Rotational constants in cm-1:     1.351602     0.156343     0.145879
Rotational constants in MHz : 40520.018610  4687.060163  4373.345815

                             ****ORCA TERMINATED NORMALLY****
TOTAL RUN TIME: 0 days 0 hours 0 minutes 15 seconds 928 msec
