                         Program Version 5.0.3 -  RELEASE  -
|  1> ! HF-3c
|  2> !TightSCF
|  3> %scf
|  4>  ConvForced true
|  5>  convergence tight
|  6>  MaxIter 500
|  7> end
|  8>
|  9> %tddft
| 10>  nroots 1
| 11> end
| 12>
| 13> # 	14102
| 14> * xyz 0 1
| 15> 		C   -1.134368  -0.299240  -0.078785
| 16> 		O   -1.224065  -1.489736   0.371374
| 17> 		C   -0.001642   0.563047   0.116320
| 18> 		C    1.189277  -0.070539  -0.100345
| 19> 		H   -2.095508   0.237055  -0.530667
| 20> 		H   -0.109732   1.619797   0.545997
| 21> 		H    1.311976  -1.145998  -0.316487
| 22> 		H    2.080278   0.637920  -0.015868
| 23> *
| 24>
| 25>                          ****END OF INPUT****

CARTESIAN COORDINATES (ANGSTROEM)
---------------------------------
  C     -1.134368   -0.299240   -0.078785
  O     -1.224065   -1.489736    0.371374
  C     -0.001642    0.563047    0.116320
  C      1.189277   -0.070539   -0.100345
  H     -2.095508    0.237055   -0.530667
  H     -0.109732    1.619797    0.545997
  H      1.311976   -1.145998   -0.316487
  H      2.080278    0.637920   -0.015868

 Total Charge           Charge          ....    0
 Multiplicity           Mult            ....    1
 Number of Electrons    NEL             ....   30
 Basis Dimension        Dim             ....   24

ORBITAL ENERGIES
----------------

  NO   OCC          E(Eh)            E(eV)
   0   2.0000     -20.335102      -553.3463
   1   2.0000     -11.273006      -306.7541
   2   2.0000     -11.185373      -304.3695
   3   2.0000     -11.183865      -304.3284
   4   2.0000      -1.346766       -36.6474
   5   2.0000      -1.073074       -29.1998
   6   2.0000      -0.876963       -23.8634
   7   2.0000      -0.725805       -19.7502
   8   2.0000      -0.679093       -18.4791
   9   2.0000      -0.596282       -16.2257
  10   2.0000      -0.572977       -15.5915
  11   2.0000      -0.533461       -14.5162
  12   2.0000      -0.484499       -13.1839
  13   2.0000      -0.402649       -10.9566
  14   2.0000      -0.376034       -10.2324
  15   0.0000       0.138333         3.7642
  16   0.0000       0.257021         6.9939
  17   0.0000       0.540984        14.7209
  18   0.0000       0.578328        15.7371
  19   0.0000       0.596365        16.2279

MULLIKEN ATOMIC CHARGES
-----------------------
   0 C :    0.153583
   1 O :   -0.352632
   2 C :   -0.183840
   3 C :   -0.205121
   4 H :    0.130905
   5 H :    0.156326
   6 H :    0.160763
   7 H :    0.140017
Sum of atomic charges:   -0.0000000

LOEWDIN ATOMIC CHARGES
----------------------
   0 C :    0.145688
   1 O :   -0.279689
   2 C :   -0.141764
   3 C :   -0.111702
   4 H :    0.077127
   5 H :    0.108160
   6 H :    0.107840
   7 H :    0.094340

  Mayer bond orders larger than 0.100000
B(  0-C ,  1-O ) :   1.8926 B(  0-C ,  2-C ) :   1.0533 B(  0-C ,  4-H ) :   0.9195
B(  2-C ,  3-C ) :   1.9291 B(  2-C ,  5-H ) :   0.9515 B(  3-C ,  6-H ) :   0.9605
B(  3-C ,  7-H ) :   0.9649

-----------------------------------------------------------------------------
         ABSORPTION SPECTRUM VIA TRANSITION ELECTRIC DIPOLE MOMENTS
-----------------------------------------------------------------------------
State   Energy    Wavelength  fosc         T2        TX        TY        TZ
        (cm-1)      (nm)                 (au**2)    (au)      (au)      (au)
-----------------------------------------------------------------------------
   1   30376.6    329.2   0.000028134   0.00030   0.01082  -0.01110   0.00804

Dispersion correction           -0.025526351
FINAL SINGLE POINT ENERGY      -189.321645155159

DIPOLE MOMENT
-------------
                                X             Y             Z
Electronic contribution:     -1.88425      -1.61105       0.31327
Nuclear contribution   :      2.28816       2.59766      -0.61904
                        -----------------------------------------
Total Dipole Moment    :      0.40391       0.98661      -0.30576
                        -----------------------------------------
Magnitude (a.u.)       :      1.10907
Magnitude (Debye)      :      2.81903

Rotational constants in cm-1:     0.703595     0.210959     0.169026
Rotational constants in MHz : 21093.244339  6324.396565  5067.277957

                             ****ORCA TERMINATED NORMALLY****
TOTAL RUN TIME: 0 days 0 hours 0 minutes 11 seconds 907 msec
