                         Program Version 5.0.3 -  RELEASE  -
|  1> ! B3LYP cc-pVDZ
|  2> !TightSCF
|  3> %scf
|  4>  ConvForced true
|  5>  convergence tight
|  6>  MaxIter 500
|  7> end
|  8>
|  9> %tddft
| 10>  nroots 1
| 11> end
| 12>
| 13> # 	25894
| 14> * xyz 0 1
| 15> 		C   -0.610285  -0.436552   0.035563
| 16> 		O   -0.590784  -1.631476  -0.015960
| 17> 		C    0.636058   0.394709  -0.004703
| 18> 		C    1.881660  -0.092365   0.011059
| 19> 		H   -1.587592  -0.032799  -0.077875
| 20> 		H    0.483194   1.495352  -0.106343
| 21> 		H    1.953361  -1.196420  -0.008382
| 22> 		H    2.750523   0.458641  -0.060516
| 23> *
| 24>
| 25>                          ****END OF INPUT****

CARTESIAN COORDINATES (ANGSTROEM)
---------------------------------
  C     -0.610285   -0.436552    0.035563
  O     -0.590784   -1.631476   -0.015960
  C      0.636058    0.394709   -0.004703
  C      1.881660   -0.092365    0.011059
  H     -1.587592   -0.032799   -0.077875
  H      0.483194    1.495352   -0.106343
  H      1.953361   -1.196420   -0.008382
  H      2.750523    0.458641   -0.060516

 Total Charge           Charge          ....    0
 Multiplicity           Mult            ....    1
 Number of Electrons    NEL             ....   30
 Basis Dimension        Dim             ....   76

ORBITAL ENERGIES
----------------

  NO   OCC          E(Eh)            E(eV)
   0   2.0000     -19.134565      -520.6780
   1   2.0000     -10.270083      -279.4632
   2   2.0000     -10.207376      -277.7568
   3   2.0000     -10.206596      -277.7356
   4   2.0000      -1.054365       -28.6907
   5   2.0000      -0.790103       -21.4998
   6   2.0000      -0.655518       -17.8375
   7   2.0000      -0.552352       -15.0303
   8   2.0000      -0.507349       -13.8057
   9   2.0000      -0.448635       -12.2080
  10   2.0000      -0.435792       -11.8585
  11   2.0000      -0.401617       -10.9286
  12   2.0000      -0.372577       -10.1383
  13   2.0000      -0.286863        -7.8059
  14   2.0000      -0.253548        -6.8994
  15   0.0000      -0.067101        -1.8259
  16   0.0000       0.060753         1.6532
  17   0.0000       0.073635         2.0037
  18   0.0000       0.098769         2.6876
  19   0.0000       0.122258         3.3268

MULLIKEN ATOMIC CHARGES
-----------------------
   0 C :    0.201264
   1 O :   -0.182234
   2 C :   -0.148069
   3 C :    0.113615
   4 H :   -0.028017
   5 H :   -0.006873
   6 H :    0.034959
   7 H :    0.015355
Sum of atomic charges:    0.0000000

LOEWDIN ATOMIC CHARGES
----------------------
   0 C :   -0.036808
   1 O :    0.009745
   2 C :   -0.077852
   3 C :    0.030512
   4 H :   -0.007884
   5 H :    0.028473
   6 H :    0.037456
   7 H :    0.016359

  Mayer bond orders larger than 0.100000
B(  0-C ,  1-O ) :   2.1932 B(  0-C ,  2-C ) :   1.0264 B(  0-C ,  4-H ) :   0.9361
B(  2-C ,  3-C ) :   1.9848 B(  2-C ,  5-H ) :   0.9435 B(  3-C ,  6-H ) :   0.9272
B(  3-C ,  7-H ) :   0.9434

-----------------------------------------------------------------------------
         ABSORPTION SPECTRUM VIA TRANSITION ELECTRIC DIPOLE MOMENTS
-----------------------------------------------------------------------------
State   Energy    Wavelength  fosc         T2        TX        TY        TZ
        (cm-1)      (nm)                 (au**2)    (au)      (au)      (au)
-----------------------------------------------------------------------------
   1   27878.0    358.7   0.000056158   0.00066  -0.00098   0.00444  -0.02535

FINAL SINGLE POINT ENERGY      -191.671700358788

DIPOLE MOMENT
-------------
                                X             Y             Z
Electronic contribution:     -1.89284      -1.61790       0.21133
Nuclear contribution   :      2.22000       2.46912      -0.23723
                        -----------------------------------------
Total Dipole Moment    :      0.32717       0.85122      -0.02590
                        -----------------------------------------
Magnitude (a.u.)       :      0.91230
Magnitude (Debye)      :      2.31888

Rotational constants in cm-1:     0.796109     0.202704     0.161697
Rotational constants in MHz : 23866.736148  6076.899481  4847.552304

                             ****ORCA TERMINATED NORMALLY****
TOTAL RUN TIME: 0 days 0 hours 3 minutes 17 seconds 871 msec
