                         Program Version 5.0.3 -  RELEASE  -
|  1> ! HF-3c
|  2> !TightSCF
|  3> %scf
|  4>  ConvForced true
|  5>  convergence tight
|  6>  MaxIter 500
|  7> end
|  8>
|  9> %tddft
| 10>  nroots 1
| 11> end
| 12>
| 13> # 	23741
| 14> * xyz 0 1
| 15> 		C   -0.562330  -0.441970   0.084690
| 16> 		O   -0.592328  -1.638246  -0.034706
| 17> 		C    0.593410   0.460178  -0.002208
| 18> 		C    1.862873  -0.137089  -0.020166
| 19> 		H   -1.464071  -0.092969  -0.211074
| 20> 		H    0.538398   1.536844  -0.209311
| 21> 		H    1.968400  -1.227886   0.157546
| 22> 		H    2.767219   0.425203   0.065671
| 23> *
| 24>
| 25>                          ****END OF INPUT****

CARTESIAN COORDINATES (ANGSTROEM)
---------------------------------
  C     -0.562330   -0.441970    0.084690
  O     -0.592328   -1.638246   -0.034706
  C      0.593410    0.460178   -0.002208
  C      1.862873   -0.137089   -0.020166
  H     -1.464071   -0.092969   -0.211074
  H      0.538398    1.536844   -0.209311
  H      1.968400   -1.227886    0.157546
  H      2.767219    0.425203    0.065671

 Total Charge           Charge          ....    0
 Multiplicity           Mult            ....    1
 Number of Electrons    NEL             ....   30
 Basis Dimension        Dim             ....   24

ORBITAL ENERGIES
----------------

  NO   OCC          E(Eh)            E(eV)
   0   2.0000     -20.361399      -554.0618
   1   2.0000     -11.294791      -307.3469
   2   2.0000     -11.191351      -304.5321
   3   2.0000     -11.188410      -304.4521
   4   2.0000      -1.410287       -38.3759
   5   2.0000      -1.062859       -28.9219
   6   2.0000      -0.894653       -24.3447
   7   2.0000      -0.765822       -20.8391
   8   2.0000      -0.707504       -19.2521
   9   2.0000      -0.607229       -16.5235
  10   2.0000      -0.590184       -16.0597
  11   2.0000      -0.543042       -14.7769
  12   2.0000      -0.537141       -14.6164
  13   2.0000      -0.415202       -11.2982
  14   2.0000      -0.375703       -10.2234
  15   0.0000       0.116680         3.1750
  16   0.0000       0.285531         7.7697
  17   0.0000       0.581198        15.8152
  18   0.0000       0.596920        16.2430
  19   0.0000       0.643638        17.5143

MULLIKEN ATOMIC CHARGES
-----------------------
   0 C :    0.131915
   1 O :   -0.346286
   2 C :   -0.174233
   3 C :   -0.201422
   4 H :    0.140721
   5 H :    0.151112
   6 H :    0.156080
   7 H :    0.142113
Sum of atomic charges:    0.0000000

LOEWDIN ATOMIC CHARGES
----------------------
   0 C :    0.125107
   1 O :   -0.252354
   2 C :   -0.134038
   3 C :   -0.100285
   4 H :    0.068264
   5 H :    0.099242
   6 H :    0.103778
   7 H :    0.090287

  Mayer bond orders larger than 0.100000
B(  0-C ,  1-O ) :   1.8874 B(  0-C ,  2-C ) :   1.0414 B(  0-C ,  4-H ) :   0.9401
B(  2-C ,  3-C ) :   1.9185 B(  2-C ,  5-H ) :   0.9603 B(  3-C ,  6-H ) :   0.9620
B(  3-C ,  7-H ) :   0.9688

-----------------------------------------------------------------------------
         ABSORPTION SPECTRUM VIA TRANSITION ELECTRIC DIPOLE MOMENTS
-----------------------------------------------------------------------------
State   Energy    Wavelength  fosc         T2        TX        TY        TZ
        (cm-1)      (nm)                 (au**2)    (au)      (au)      (au)
-----------------------------------------------------------------------------
   1   29847.8    335.0   0.000076196   0.00084  -0.00303  -0.01944  -0.02130

Dispersion correction           -0.025581646
FINAL SINGLE POINT ENERGY      -189.319216825587

DIPOLE MOMENT
-------------
                                X             Y             Z
Electronic contribution:     -1.95914      -1.52162       0.20331
Nuclear contribution   :      2.41571       2.39117      -0.18512
                        -----------------------------------------
Total Dipole Moment    :      0.45657       0.86955       0.01819
                        -----------------------------------------
Magnitude (a.u.)       :      0.98230
Magnitude (Debye)      :      2.49680

Rotational constants in cm-1:     0.751840     0.207190     0.163148
Rotational constants in MHz : 22539.596839  6211.401244  4891.046478

                             ****ORCA TERMINATED NORMALLY****
TOTAL RUN TIME: 0 days 0 hours 0 minutes 15 seconds 975 msec
