                         Program Version 5.0.3 -  RELEASE  -
|  1> ! B3LYP cc-pVDZ
|  2> !TightSCF
|  3> %scf
|  4>  ConvForced true
|  5>  convergence tight
|  6>  MaxIter 500
|  7> end
|  8>
|  9> %tddft
| 10>  nroots 1
| 11> end
| 12>
| 13> # 	15561
| 14> * xyz 0 1
| 15> 		C   -1.210626  -0.294269  -0.016427
| 16> 		O   -1.221209  -1.551624  -0.046193
| 17> 		C    0.017177   0.425814  -0.099948
| 18> 		C    1.222358  -0.040119   0.017322
| 19> 		H   -2.256265   0.187834   0.145251
| 20> 		H   -0.026699   1.520950   0.295542
| 21> 		H    1.450291  -1.057378  -0.377006
| 22> 		H    2.006988   0.727179   0.114001
| 23> *
| 24>
| 25>                          ****END OF INPUT****

CARTESIAN COORDINATES (ANGSTROEM)
---------------------------------
  C     -1.210626   -0.294269   -0.016427
  O     -1.221209   -1.551624   -0.046193
  C      0.017177    0.425814   -0.099948
  C      1.222358   -0.040119    0.017322
  H     -2.256265    0.187834    0.145251
  H     -0.026699    1.520950    0.295542
  H      1.450291   -1.057378   -0.377006
  H      2.006988    0.727179    0.114001

 Total Charge           Charge          ....    0
 Multiplicity           Mult            ....    1
 Number of Electrons    NEL             ....   30
 Basis Dimension        Dim             ....   76

ORBITAL ENERGIES
----------------

  NO   OCC          E(Eh)            E(eV)
   0   2.0000     -19.134533      -520.6771
   1   2.0000     -10.279867      -279.7294
   2   2.0000     -10.215841      -277.9872
   3   2.0000     -10.207556      -277.7617
   4   2.0000      -1.021319       -27.7915
   5   2.0000      -0.810210       -22.0469
   6   2.0000      -0.663827       -18.0636
   7   2.0000      -0.530735       -14.4420
   8   2.0000      -0.511290       -13.9129
   9   2.0000      -0.442239       -12.0339
  10   2.0000      -0.422498       -11.4968
  11   2.0000      -0.391887       -10.6638
  12   2.0000      -0.359798        -9.7906
  13   2.0000      -0.294495        -8.0136
  14   2.0000      -0.253797        -6.9062
  15   0.0000      -0.079952        -2.1756
  16   0.0000       0.048002         1.3062
  17   0.0000       0.053724         1.4619
  18   0.0000       0.091547         2.4911
  19   0.0000       0.109441         2.9780

MULLIKEN ATOMIC CHARGES
-----------------------
   0 C :    0.152760
   1 O :   -0.228745
   2 C :   -0.099483
   3 C :    0.069836
   4 H :    0.004711
   5 H :    0.010244
   6 H :    0.049276
   7 H :    0.041400
Sum of atomic charges:    0.0000000

LOEWDIN ATOMIC CHARGES
----------------------
   0 C :   -0.019465
   1 O :   -0.050119
   2 C :   -0.098503
   3 C :    0.027866
   4 H :    0.013277
   5 H :    0.043376
   6 H :    0.041333
   7 H :    0.042235

  Mayer bond orders larger than 0.100000
B(  0-C ,  1-O ) :   2.1303 B(  0-C ,  2-C ) :   1.0754 B(  0-C ,  4-H ) :   0.9282
B(  1-O ,  3-C ) :   0.1038 B(  2-C ,  3-C ) :   1.9688 B(  2-C ,  5-H ) :   0.9218
B(  3-C ,  6-H ) :   0.9362 B(  3-C ,  7-H ) :   0.9294

-----------------------------------------------------------------------------
         ABSORPTION SPECTRUM VIA TRANSITION ELECTRIC DIPOLE MOMENTS
-----------------------------------------------------------------------------
State   Energy    Wavelength  fosc         T2        TX        TY        TZ
        (cm-1)      (nm)                 (au**2)    (au)      (au)      (au)
-----------------------------------------------------------------------------
   1   25017.1    399.7   0.000867247   0.01141   0.09938   0.00848   0.03827

FINAL SINGLE POINT ENERGY      -191.667733173459

DIPOLE MOMENT
-------------
                                X             Y             Z
Electronic contribution:     -1.84851      -1.85064      -0.23855
Nuclear contribution   :      2.29373       2.77143       0.28368
                        -----------------------------------------
Total Dipole Moment    :      0.44522       0.92079       0.04513
                        -----------------------------------------
Magnitude (a.u.)       :      1.02378
Magnitude (Debye)      :      2.60224

Rotational constants in cm-1:     0.787567     0.207775     0.165503
Rotational constants in MHz : 23610.670797  6228.940332  4961.653390

                             ****ORCA TERMINATED NORMALLY****
TOTAL RUN TIME: 0 days 0 hours 3 minutes 18 seconds 630 msec
