                         Program Version 5.0.3 -  RELEASE  -
|  1> ! HF-3c
|  2> !TightSCF
|  3> %scf
|  4>  ConvForced true
|  5>  convergence tight
|  6>  MaxIter 500
|  7> end
|  8>
|  9> %tddft
| 10>  nroots 1
| 11> end
| 12>
| 13> # 	3326
| 14> * xyz 0 1
| 15> 		C   -1.228849  -0.323077   0.015477
| 16> 		O   -1.415092  -1.345410  -0.550821
| 17> 		C    0.048850   0.534140  -0.137048
| 18> 		C    1.177697   0.054042   0.092270
| 19> 		H   -1.899346   0.127930   0.774092
| 20> 		H   -0.124844   1.336480  -0.559930
| 21> 		H    1.242846  -1.022485   0.442880
| 22> 		H    2.158380   0.645363  -0.063061
| 23> *
| 24>
| 25>                          ****END OF INPUT****

CARTESIAN COORDINATES (ANGSTROEM)
---------------------------------
  C     -1.228849   -0.323077    0.015477
  O     -1.415092   -1.345410   -0.550821
  C      0.048850    0.534140   -0.137048
  C      1.177697    0.054042    0.092270
  H     -1.899346    0.127930    0.774092
  H     -0.124844    1.336480   -0.559930
  H      1.242846   -1.022485    0.442880
  H      2.158380    0.645363   -0.063061

 Total Charge           Charge          ....    0
 Multiplicity           Mult            ....    1
 Number of Electrons    NEL             ....   30
 Basis Dimension        Dim             ....   24

ORBITAL ENERGIES
----------------

  NO   OCC          E(Eh)            E(eV)
   0   2.0000     -20.391697      -554.8863
   1   2.0000     -11.308369      -307.7164
   2   2.0000     -11.191590      -304.5387
   3   2.0000     -11.191119      -304.5258
   4   2.0000      -1.430433       -38.9241
   5   2.0000      -1.106689       -30.1145
   6   2.0000      -0.882319       -24.0091
   7   2.0000      -0.777812       -21.1654
   8   2.0000      -0.706325       -19.2201
   9   2.0000      -0.634274       -17.2595
  10   2.0000      -0.620687       -16.8897
  11   2.0000      -0.543433       -14.7876
  12   2.0000      -0.532597       -14.4927
  13   2.0000      -0.431478       -11.7411
  14   2.0000      -0.404618       -11.0102
  15   0.0000       0.185272         5.0415
  16   0.0000       0.262145         7.1333
  17   0.0000       0.496211        13.5026
  18   0.0000       0.594431        16.1753
  19   0.0000       0.656318        17.8593

MULLIKEN ATOMIC CHARGES
-----------------------
   0 C :    0.199623
   1 O :   -0.348659
   2 C :   -0.217195
   3 C :   -0.215397
   4 H :    0.137702
   5 H :    0.144149
   6 H :    0.149422
   7 H :    0.150355
Sum of atomic charges:   -0.0000000

LOEWDIN ATOMIC CHARGES
----------------------
   0 C :    0.169547
   1 O :   -0.241314
   2 C :   -0.158337
   3 C :   -0.127826
   4 H :    0.072952
   5 H :    0.080377
   6 H :    0.101008
   7 H :    0.103592

  Mayer bond orders larger than 0.100000
B(  0-C ,  1-O ) :   1.9651 B(  0-C ,  2-C ) :   0.9529 B(  0-C ,  4-H ) :   0.9155
B(  2-C ,  3-C ) :   2.0117 B(  2-C ,  5-H ) :   0.9569 B(  3-C ,  6-H ) :   0.9560
B(  3-C ,  7-H ) :   0.9546

-----------------------------------------------------------------------------
         ABSORPTION SPECTRUM VIA TRANSITION ELECTRIC DIPOLE MOMENTS
-----------------------------------------------------------------------------
State   Energy    Wavelength  fosc         T2        TX        TY        TZ
        (cm-1)      (nm)                 (au**2)    (au)      (au)      (au)
-----------------------------------------------------------------------------
   1   36382.7    274.9   0.000062238   0.00056  -0.02179  -0.00923   0.00178

Dispersion correction           -0.025859906
FINAL SINGLE POINT ENERGY      -189.281160933175

DIPOLE MOMENT
-------------
                                X             Y             Z
Electronic contribution:     -2.34647      -1.47283      -0.66886
Nuclear contribution   :      2.70097       2.15904       1.12473
                        -----------------------------------------
Total Dipole Moment    :      0.35449       0.68621       0.45587
                        -----------------------------------------
Magnitude (a.u.)       :      0.89686
Magnitude (Debye)      :      2.27964

Rotational constants in cm-1:     0.899795     0.187910     0.164859
Rotational constants in MHz : 26975.167661  5633.397075  4942.339860

                             ****ORCA TERMINATED NORMALLY****
TOTAL RUN TIME: 0 days 0 hours 0 minutes 12 seconds 923 msec
