                         Program Version 5.0.3 -  RELEASE  -
|  1> ! B3LYP cc-pVDZ
|  2> !TightSCF
|  3> %scf
|  4>  ConvForced true
|  5>  convergence tight
|  6>  MaxIter 500
|  7> end
|  8>
|  9> %tddft
| 10>  nroots 1
| 11> end
| 12>
| 13> # 	12453
| 14> * xyz 0 1
| 15> 		C   -1.179884  -0.397534   0.020808
| 16> 		O   -2.058764  -0.635910   0.878921
| 17> 		C   -0.009680   0.382743   0.310956
| 18> 		C    1.196857   0.102085  -0.259340
| 19> 		H   -1.239666  -0.773146  -1.008873
| 20> 		H    0.038958   1.275781   1.150755
| 21> 		H    1.157039  -0.540458  -1.186776
| 22> 		H    2.060990   0.590504   0.032505
| 23> *
| 24>
| 25>                          ****END OF INPUT****

CARTESIAN COORDINATES (ANGSTROEM)
---------------------------------
  C     -1.179884   -0.397534    0.020808
  O     -2.058764   -0.635910    0.878921
  C     -0.009680    0.382743    0.310956
  C      1.196857    0.102085   -0.259340
  H     -1.239666   -0.773146   -1.008873
  H      0.038958    1.275781    1.150755
  H      1.157039   -0.540458   -1.186776
  H      2.060990    0.590504    0.032505

 Total Charge           Charge          ....    0
 Multiplicity           Mult            ....    1
 Number of Electrons    NEL             ....   30
 Basis Dimension        Dim             ....   76

ORBITAL ENERGIES
----------------

  NO   OCC          E(Eh)            E(eV)
   0   2.0000     -19.138800      -520.7932
   1   2.0000     -10.278971      -279.7050
   2   2.0000     -10.221659      -278.1455
   3   2.0000     -10.220206      -278.1060
   4   2.0000      -1.024946       -27.8902
   5   2.0000      -0.803204       -21.8563
   6   2.0000      -0.659531       -17.9468
   7   2.0000      -0.559777       -15.2323
   8   2.0000      -0.479671       -13.0525
   9   2.0000      -0.470903       -12.8139
  10   2.0000      -0.420470       -11.4416
  11   2.0000      -0.397524       -10.8172
  12   2.0000      -0.364212        -9.9107
  13   2.0000      -0.286979        -7.8091
  14   2.0000      -0.258072        -7.0225
  15   0.0000      -0.071859        -1.9554
  16   0.0000       0.022141         0.6025
  17   0.0000       0.067087         1.8255
  18   0.0000       0.072905         1.9839
  19   0.0000       0.122072         3.3218

MULLIKEN ATOMIC CHARGES
-----------------------
   0 C :    0.207124
   1 O :   -0.224775
   2 C :   -0.130957
   3 C :    0.060200
   4 H :   -0.010236
   5 H :    0.042389
   6 H :    0.034727
   7 H :    0.021527
Sum of atomic charges:    0.0000000

LOEWDIN ATOMIC CHARGES
----------------------
   0 C :   -0.021635
   1 O :   -0.034171
   2 C :   -0.062672
   3 C :    0.007139
   4 H :    0.000838
   5 H :    0.057042
   6 H :    0.036583
   7 H :    0.016877

  Mayer bond orders larger than 0.100000
B(  0-C ,  1-O ) :   2.1186 B(  0-C ,  2-C ) :   1.0798 B(  0-C ,  4-H ) :   0.9227
B(  1-O ,  3-C ) :   0.1012 B(  2-C ,  3-C ) :   1.9270 B(  2-C ,  5-H ) :   0.9362
B(  3-C ,  6-H ) :   0.9432 B(  3-C ,  7-H ) :   0.9413

-----------------------------------------------------------------------------
         ABSORPTION SPECTRUM VIA TRANSITION ELECTRIC DIPOLE MOMENTS
-----------------------------------------------------------------------------
State   Energy    Wavelength  fosc         T2        TX        TY        TZ
        (cm-1)      (nm)                 (au**2)    (au)      (au)      (au)
-----------------------------------------------------------------------------
   1   27742.5    360.5   0.000592513   0.00703   0.08210   0.01702   0.00132

FINAL SINGLE POINT ENERGY      -191.662467395740

DIPOLE MOMENT
-------------
                                X             Y             Z
Electronic contribution:     -2.94336      -0.74538       1.24090
Nuclear contribution   :      3.93306       1.08490      -1.87164
                        -----------------------------------------
Total Dipole Moment    :      0.98970       0.33952      -0.63074
                        -----------------------------------------
Magnitude (a.u.)       :      1.22173
Magnitude (Debye)      :      3.10538

Rotational constants in cm-1:     1.356031     0.156176     0.144598
Rotational constants in MHz : 40652.777912  4682.049236  4334.949081

                             ****ORCA TERMINATED NORMALLY****
TOTAL RUN TIME: 0 days 0 hours 3 minutes 21 seconds 880 msec
