                         Program Version 5.0.3 -  RELEASE  -
|  1> ! B3LYP cc-pVDZ
|  2> !TightSCF
|  3> %scf
|  4>  ConvForced true
|  5>  convergence tight
|  6>  MaxIter 500
|  7> end
|  8>
|  9> %tddft
| 10>  nroots 1
| 11> end
| 12>
| 13> # 	11312
| 14> * xyz 0 1
| 15> 		C   -1.210101  -0.342525  -0.009911
| 16> 		O   -1.833871  -1.017014  -0.845130
| 17> 		C    0.023851   0.329637  -0.276558
| 18> 		C    1.178964   0.009578   0.154461
| 19> 		H   -1.634055  -0.232198   0.957752
| 20> 		H   -0.097855   1.350899  -0.775841
| 21> 		H    1.409652  -0.689676   0.793682
| 22> 		H    2.187743   0.629865   0.007802
| 23> *
| 24>
| 25>                          ****END OF INPUT****

CARTESIAN COORDINATES (ANGSTROEM)
---------------------------------
  C     -1.210101   -0.342525   -0.009911
  O     -1.833871   -1.017014   -0.845130
  C      0.023851    0.329637   -0.276558
  C      1.178964    0.009578    0.154461
  H     -1.634055   -0.232198    0.957752
  H     -0.097855    1.350899   -0.775841
  H      1.409652   -0.689676    0.793682
  H      2.187743    0.629865    0.007802

 Total Charge           Charge          ....    0
 Multiplicity           Mult            ....    1
 Number of Electrons    NEL             ....   30
 Basis Dimension        Dim             ....   76

ORBITAL ENERGIES
----------------

  NO   OCC          E(Eh)            E(eV)
   0   2.0000     -19.142308      -520.8887
   1   2.0000     -10.277006      -279.6516
   2   2.0000     -10.205648      -277.7098
   3   2.0000     -10.198726      -277.5215
   4   2.0000      -1.033978       -28.1360
   5   2.0000      -0.815299       -22.1854
   6   2.0000      -0.666914       -18.1477
   7   2.0000      -0.572448       -15.5771
   8   2.0000      -0.500327       -13.6146
   9   2.0000      -0.473246       -12.8777
  10   2.0000      -0.440564       -11.9884
  11   2.0000      -0.377648       -10.2763
  12   2.0000      -0.357772        -9.7355
  13   2.0000      -0.297599        -8.0981
  14   2.0000      -0.256759        -6.9868
  15   0.0000      -0.047529        -1.2933
  16   0.0000      -0.000262        -0.0071
  17   0.0000       0.067048         1.8245
  18   0.0000       0.098235         2.6731
  19   0.0000       0.112375         3.0579

MULLIKEN ATOMIC CHARGES
-----------------------
   0 C :    0.196012
   1 O :   -0.211083
   2 C :   -0.073473
   3 C :    0.059891
   4 H :   -0.011578
   5 H :    0.037862
   6 H :   -0.033062
   7 H :    0.035432
Sum of atomic charges:   -0.0000000

LOEWDIN ATOMIC CHARGES
----------------------
   0 C :    0.000223
   1 O :   -0.017377
   2 C :   -0.065320
   3 C :   -0.015551
   4 H :   -0.005035
   5 H :    0.060340
   6 H :   -0.007555
   7 H :    0.050274

  Mayer bond orders larger than 0.100000
B(  0-C ,  1-O ) :   2.1926 B(  0-C ,  2-C ) :   1.0125 B(  0-C ,  4-H ) :   0.9340
B(  2-C ,  3-C ) :   2.0563 B(  2-C ,  5-H ) :   0.9138 B(  3-C ,  6-H ) :   0.9511
B(  3-C ,  7-H ) :   0.9394

-----------------------------------------------------------------------------
         ABSORPTION SPECTRUM VIA TRANSITION ELECTRIC DIPOLE MOMENTS
-----------------------------------------------------------------------------
State   Energy    Wavelength  fosc         T2        TX        TY        TZ
        (cm-1)      (nm)                 (au**2)    (au)      (au)      (au)
-----------------------------------------------------------------------------
   1   30660.9    326.1   0.000106751   0.00115   0.03136   0.00498   0.01173

FINAL SINGLE POINT ENERGY      -191.625116819857

DIPOLE MOMENT
-------------
                                X             Y             Z
Electronic contribution:     -2.94078      -1.40165      -1.20630
Nuclear contribution   :      3.57420       2.00275       1.85866
                        -----------------------------------------
Total Dipole Moment    :      0.63342       0.60110       0.65236
                        -----------------------------------------
Magnitude (a.u.)       :      1.09001
Magnitude (Debye)      :      2.77058

Rotational constants in cm-1:     1.225436     0.159492     0.157545
Rotational constants in MHz : 36737.647474  4781.464119  4723.072534

                             ****ORCA TERMINATED NORMALLY****
TOTAL RUN TIME: 0 days 0 hours 3 minutes 18 seconds 796 msec
