                         Program Version 5.0.3 -  RELEASE  -
|  1> ! HF-3c
|  2> !TightSCF
|  3> %scf
|  4>  ConvForced true
|  5>  convergence tight
|  6>  MaxIter 500
|  7> end
|  8>
|  9> %tddft
| 10>  nroots 1
| 11> end
| 12>
| 13> # 	20223
| 14> * xyz 0 1
| 15> 		C   -0.535065  -0.402015   0.021079
| 16> 		O   -0.612260  -1.691579  -0.007539
| 17> 		C    0.635027   0.426097  -0.023157
| 18> 		C    1.827615  -0.100341   0.021114
| 19> 		H   -1.444590   0.278239  -0.011317
| 20> 		H    0.411714   1.390764   0.007288
| 21> 		H    1.991903  -1.133314  -0.062427
| 22> 		H    2.752504   0.494033  -0.041818
| 23> *
| 24>
| 25>                          ****END OF INPUT****

CARTESIAN COORDINATES (ANGSTROEM)
---------------------------------
  C     -0.535065   -0.402015    0.021079
  O     -0.612260   -1.691579   -0.007539
  C      0.635027    0.426097   -0.023157
  C      1.827615   -0.100341    0.021114
  H     -1.444590    0.278239   -0.011317
  H      0.411714    1.390764    0.007288
  H      1.991903   -1.133314   -0.062427
  H      2.752504    0.494033   -0.041818

 Total Charge           Charge          ....    0
 Multiplicity           Mult            ....    1
 Number of Electrons    NEL             ....   30
 Basis Dimension        Dim             ....   24

ORBITAL ENERGIES
----------------

  NO   OCC          E(Eh)            E(eV)
   0   2.0000     -20.342334      -553.5431
   1   2.0000     -11.276985      -306.8624
   2   2.0000     -11.209279      -305.0200
   3   2.0000     -11.202391      -304.8326
   4   2.0000      -1.340192       -36.4685
   5   2.0000      -1.108850       -30.1733
   6   2.0000      -0.917571       -24.9684
   7   2.0000      -0.759997       -20.6806
   8   2.0000      -0.705055       -19.1855
   9   2.0000      -0.628534       -17.1033
  10   2.0000      -0.577012       -15.7013
  11   2.0000      -0.539631       -14.6841
  12   2.0000      -0.521183       -14.1821
  13   2.0000      -0.413626       -11.2553
  14   2.0000      -0.395927       -10.7737
  15   0.0000       0.110839         3.0161
  16   0.0000       0.306399         8.3375
  17   0.0000       0.552176        15.0255
  18   0.0000       0.641696        17.4614
  19   0.0000       0.653248        17.7758

MULLIKEN ATOMIC CHARGES
-----------------------
   0 C :    0.154501
   1 O :   -0.342553
   2 C :   -0.206961
   3 C :   -0.198935
   4 H :    0.132423
   5 H :    0.147058
   6 H :    0.162886
   7 H :    0.151580
Sum of atomic charges:   -0.0000000

LOEWDIN ATOMIC CHARGES
----------------------
   0 C :    0.150451
   1 O :   -0.272854
   2 C :   -0.148895
   3 C :   -0.093000
   4 H :    0.074468
   5 H :    0.086397
   6 H :    0.103517
   7 H :    0.099917

  Mayer bond orders larger than 0.100000
B(  0-C ,  1-O ) :   1.8841 B(  0-C ,  2-C ) :   1.0601 B(  0-C ,  4-H ) :   0.9300
B(  2-C ,  3-C ) :   1.9203 B(  2-C ,  5-H ) :   0.9589 B(  3-C ,  6-H ) :   0.9590
B(  3-C ,  7-H ) :   0.9622

-----------------------------------------------------------------------------
         ABSORPTION SPECTRUM VIA TRANSITION ELECTRIC DIPOLE MOMENTS
-----------------------------------------------------------------------------
State   Energy    Wavelength  fosc         T2        TX        TY        TZ
        (cm-1)      (nm)                 (au**2)    (au)      (au)      (au)
-----------------------------------------------------------------------------
   1   28200.2    354.6   0.000033487   0.00039  -0.01737   0.00190  -0.00924

Dispersion correction           -0.026084815
FINAL SINGLE POINT ENERGY      -189.340360023975

DIPOLE MOMENT
-------------
                                X             Y             Z
Electronic contribution:     -1.86261      -1.76064       0.09452
Nuclear contribution   :      2.32405       2.75151      -0.10162
                        -----------------------------------------
Total Dipole Moment    :      0.46143       0.99087      -0.00710
                        -----------------------------------------
Magnitude (a.u.)       :      1.09307
Magnitude (Debye)      :      2.77836

Rotational constants in cm-1:     0.765558     0.206166     0.162500
Rotational constants in MHz : 22950.861823  6180.703339  4871.617837

                             ****ORCA TERMINATED NORMALLY****
TOTAL RUN TIME: 0 days 0 hours 0 minutes 12 seconds 141 msec
