                         Program Version 5.0.3 -  RELEASE  -
|  1> ! B3LYP cc-pVDZ
|  2> !TightSCF
|  3> %scf
|  4>  ConvForced true
|  5>  convergence tight
|  6>  MaxIter 500
|  7> end
|  8>
|  9> %tddft
| 10>  nroots 1
| 11> end
| 12>
| 13> # 	4466
| 14> * xyz 0 1
| 15> 		C   -1.187678  -0.330546  -0.017040
| 16> 		O   -1.407408  -1.407537  -0.588864
| 17> 		C    0.025955   0.479499  -0.092100
| 18> 		C    1.210023   0.040002   0.154453
| 19> 		H   -1.875845   0.038711   0.796879
| 20> 		H   -0.068040   1.463460  -0.591306
| 21> 		H    1.240757  -1.024791   0.439245
| 22> 		H    2.061634   0.651350  -0.068872
| 23> *
| 24>
| 25>                          ****END OF INPUT****

CARTESIAN COORDINATES (ANGSTROEM)
---------------------------------
  C     -1.187678   -0.330546   -0.017040
  O     -1.407408   -1.407537   -0.588864
  C      0.025955    0.479499   -0.092100
  C      1.210023    0.040002    0.154453
  H     -1.875845    0.038711    0.796879
  H     -0.068040    1.463460   -0.591306
  H      1.240757   -1.024791    0.439245
  H      2.061634    0.651350   -0.068872

 Total Charge           Charge          ....    0
 Multiplicity           Mult            ....    1
 Number of Electrons    NEL             ....   30
 Basis Dimension        Dim             ....   76

ORBITAL ENERGIES
----------------

  NO   OCC          E(Eh)            E(eV)
   0   2.0000     -19.148603      -521.0600
   1   2.0000     -10.283817      -279.8369
   2   2.0000     -10.200726      -277.5759
   3   2.0000     -10.199554      -277.5440
   4   2.0000      -1.037088       -28.2206
   5   2.0000      -0.810948       -22.0670
   6   2.0000      -0.661823       -18.0091
   7   2.0000      -0.544687       -14.8217
   8   2.0000      -0.506174       -13.7737
   9   2.0000      -0.452145       -12.3035
  10   2.0000      -0.442905       -12.0521
  11   2.0000      -0.389227       -10.5914
  12   2.0000      -0.366586        -9.9753
  13   2.0000      -0.295806        -8.0493
  14   2.0000      -0.258617        -7.0373
  15   0.0000      -0.051625        -1.4048
  16   0.0000       0.008336         0.2268
  17   0.0000       0.076563         2.0834
  18   0.0000       0.094038         2.5589
  19   0.0000       0.103379         2.8131

MULLIKEN ATOMIC CHARGES
-----------------------
   0 C :    0.169700
   1 O :   -0.199768
   2 C :   -0.110224
   3 C :    0.083569
   4 H :   -0.001964
   5 H :    0.015282
   6 H :    0.022331
   7 H :    0.021074
Sum of atomic charges:   -0.0000000

LOEWDIN ATOMIC CHARGES
----------------------
   0 C :   -0.006415
   1 O :   -0.015738
   2 C :   -0.077128
   3 C :   -0.010729
   4 H :    0.000224
   5 H :    0.042019
   6 H :    0.036332
   7 H :    0.031434

  Mayer bond orders larger than 0.100000
B(  0-C ,  1-O ) :   2.2050 B(  0-C ,  2-C ) :   1.0054 B(  0-C ,  4-H ) :   0.9099
B(  2-C ,  3-C ) :   2.0555 B(  2-C ,  5-H ) :   0.9254 B(  3-C ,  6-H ) :   0.9318
B(  3-C ,  7-H ) :   0.9329

-----------------------------------------------------------------------------
         ABSORPTION SPECTRUM VIA TRANSITION ELECTRIC DIPOLE MOMENTS
-----------------------------------------------------------------------------
State   Energy    Wavelength  fosc         T2        TX        TY        TZ
        (cm-1)      (nm)                 (au**2)    (au)      (au)      (au)
-----------------------------------------------------------------------------
   1   30534.2    327.5   0.000119820   0.00129   0.00618   0.00142  -0.03538

FINAL SINGLE POINT ENERGY      -191.649783828694

DIPOLE MOMENT
-------------
                                X             Y             Z
Electronic contribution:     -2.20430      -1.51195      -0.78629
Nuclear contribution   :      2.63585       2.32245       1.08915
                        -----------------------------------------
Total Dipole Moment    :      0.43154       0.81050       0.30286
                        -----------------------------------------
Magnitude (a.u.)       :      0.96688
Magnitude (Debye)      :      2.45762

Rotational constants in cm-1:     0.883854     0.185351     0.162457
Rotational constants in MHz : 26497.290737  5556.690536  4870.347881

                             ****ORCA TERMINATED NORMALLY****
TOTAL RUN TIME: 0 days 0 hours 3 minutes 22 seconds 230 msec
