                         Program Version 5.0.3 -  RELEASE  -
|  1> ! B3LYP cc-pVDZ
|  2> !TightSCF
|  3> %scf
|  4>  ConvForced true
|  5>  convergence tight
|  6>  MaxIter 500
|  7> end
|  8>
|  9> %tddft
| 10>  nroots 1
| 11> end
| 12>
| 13> # 	26725
| 14> * xyz 0 1
| 15> 		C   -0.544442  -0.380190   0.017937
| 16> 		O   -0.571210  -1.637381  -0.004454
| 17> 		C    0.617918   0.376115  -0.024015
| 18> 		C    1.817125  -0.153661   0.042726
| 19> 		H   -1.655609   0.316382  -0.013232
| 20> 		H    0.284931   1.499258  -0.045101
| 21> 		H    2.174813  -1.138712  -0.243594
| 22> 		H    2.675888   0.520810  -0.066019
| 23> *
| 24>
| 25>                          ****END OF INPUT****

CARTESIAN COORDINATES (ANGSTROEM)
---------------------------------
  C     -0.544442   -0.380190    0.017937
  O     -0.571210   -1.637381   -0.004454
  C      0.617918    0.376115   -0.024015
  C      1.817125   -0.153661    0.042726
  H     -1.655609    0.316382   -0.013232
  H      0.284931    1.499258   -0.045101
  H      2.174813   -1.138712   -0.243594
  H      2.675888    0.520810   -0.066019

 Total Charge           Charge          ....    0
 Multiplicity           Mult            ....    1
 Number of Electrons    NEL             ....   30
 Basis Dimension        Dim             ....   76

ORBITAL ENERGIES
----------------

  NO   OCC          E(Eh)            E(eV)
   0   2.0000     -19.140240      -520.8324
   1   2.0000     -10.283022      -279.8152
   2   2.0000     -10.222339      -278.1640
   3   2.0000     -10.215963      -277.9905
   4   2.0000      -1.022669       -27.8282
   5   2.0000      -0.814475       -22.1630
   6   2.0000      -0.676524       -18.4091
   7   2.0000      -0.529537       -14.4094
   8   2.0000      -0.498593       -13.5674
   9   2.0000      -0.458970       -12.4892
  10   2.0000      -0.402736       -10.9590
  11   2.0000      -0.396507       -10.7895
  12   2.0000      -0.369993       -10.0680
  13   2.0000      -0.294211        -8.0059
  14   2.0000      -0.255464        -6.9515
  15   0.0000      -0.088470        -2.4074
  16   0.0000       0.035912         0.9772
  17   0.0000       0.063196         1.7197
  18   0.0000       0.085011         2.3133
  19   0.0000       0.101940         2.7739

MULLIKEN ATOMIC CHARGES
-----------------------
   0 C :    0.112994
   1 O :   -0.216761
   2 C :   -0.071946
   3 C :    0.090317
   4 H :   -0.019188
   5 H :    0.018992
   6 H :    0.051903
   7 H :    0.033689
Sum of atomic charges:   -0.0000000

LOEWDIN ATOMIC CHARGES
----------------------
   0 C :   -0.037410
   1 O :   -0.042858
   2 C :   -0.091790
   3 C :    0.040240
   4 H :   -0.001577
   5 H :    0.051416
   6 H :    0.043545
   7 H :    0.038434

  Mayer bond orders larger than 0.100000
B(  0-C ,  1-O ) :   2.1398 B(  0-C ,  2-C ) :   1.1259 B(  0-C ,  4-H ) :   0.8780
B(  1-O ,  3-C ) :   0.1257 B(  2-C ,  3-C ) :   1.9088 B(  2-C ,  5-H ) :   0.9329
B(  3-C ,  6-H ) :   0.9444 B(  3-C ,  7-H ) :   0.9360

-----------------------------------------------------------------------------
         ABSORPTION SPECTRUM VIA TRANSITION ELECTRIC DIPOLE MOMENTS
-----------------------------------------------------------------------------
State   Energy    Wavelength  fosc         T2        TX        TY        TZ
        (cm-1)      (nm)                 (au**2)    (au)      (au)      (au)
-----------------------------------------------------------------------------
   1   24088.6    415.1   0.000290901   0.00398  -0.03314   0.02177  -0.04902

FINAL SINGLE POINT ENERGY      -191.658615662866

DIPOLE MOMENT
-------------
                                X             Y             Z
Electronic contribution:     -1.46391      -2.02759       0.26692
Nuclear contribution   :      2.10885       2.90606      -0.34513
                        -----------------------------------------
Total Dipole Moment    :      0.64494       0.87846      -0.07822
                        -----------------------------------------
Magnitude (a.u.)       :      1.09259
Magnitude (Debye)      :      2.77715

Rotational constants in cm-1:     0.723388     0.218312     0.168034
Rotational constants in MHz : 21686.620833  6544.837683  5037.527780

                             ****ORCA TERMINATED NORMALLY****
TOTAL RUN TIME: 0 days 0 hours 3 minutes 26 seconds 603 msec
