                         Program Version 5.0.3 -  RELEASE  -
|  1> ! B3LYP cc-pVDZ
|  2> !TightSCF
|  3> %scf
|  4>  ConvForced true
|  5>  convergence tight
|  6>  MaxIter 500
|  7> end
|  8>
|  9> %tddft
| 10>  nroots 1
| 11> end
| 12>
| 13> # 	5541
| 14> * xyz 0 1
| 15> 		C   -1.209208  -0.320372  -0.022121
| 16> 		O   -1.203760  -1.533571  -0.037027
| 17> 		C    0.043722   0.479126  -0.094937
| 18> 		C    1.304543  -0.017524  -0.040334
| 19> 		H   -2.246613   0.272237   0.178117
| 20> 		H   -0.204309   1.478182   0.029775
| 21> 		H    1.344198  -1.006348   0.130063
| 22> 		H    2.133253   0.628830  -0.143309
| 23> *
| 24>
| 25>                          ****END OF INPUT****

CARTESIAN COORDINATES (ANGSTROEM)
---------------------------------
  C     -1.209208   -0.320372   -0.022121
  O     -1.203760   -1.533571   -0.037027
  C      0.043722    0.479126   -0.094937
  C      1.304543   -0.017524   -0.040334
  H     -2.246613    0.272237    0.178117
  H     -0.204309    1.478182    0.029775
  H      1.344198   -1.006348    0.130063
  H      2.133253    0.628830   -0.143309

 Total Charge           Charge          ....    0
 Multiplicity           Mult            ....    1
 Number of Electrons    NEL             ....   30
 Basis Dimension        Dim             ....   76

ORBITAL ENERGIES
----------------

  NO   OCC          E(Eh)            E(eV)
   0   2.0000     -19.139979      -520.8253
   1   2.0000     -10.281646      -279.7778
   2   2.0000     -10.208250      -277.7806
   3   2.0000     -10.202847      -277.6336
   4   2.0000      -1.045853       -28.4591
   5   2.0000      -0.796543       -21.6750
   6   2.0000      -0.663717       -18.0607
   7   2.0000      -0.538294       -14.6477
   8   2.0000      -0.510198       -13.8832
   9   2.0000      -0.449817       -12.2401
  10   2.0000      -0.433168       -11.7871
  11   2.0000      -0.398473       -10.8430
  12   2.0000      -0.389801       -10.6070
  13   2.0000      -0.285100        -7.7580
  14   2.0000      -0.254939        -6.9372
  15   0.0000      -0.075230        -2.0471
  16   0.0000       0.054985         1.4962
  17   0.0000       0.066193         1.8012
  18   0.0000       0.094566         2.5733
  19   0.0000       0.126951         3.4545

MULLIKEN ATOMIC CHARGES
-----------------------
   0 C :    0.127306
   1 O :   -0.187271
   2 C :   -0.095950
   3 C :    0.169585
   4 H :   -0.006665
   5 H :   -0.032920
   6 H :   -0.002196
   7 H :    0.028110
Sum of atomic charges:    0.0000000

LOEWDIN ATOMIC CHARGES
----------------------
   0 C :   -0.042045
   1 O :   -0.006976
   2 C :   -0.062025
   3 C :    0.056199
   4 H :    0.003318
   5 H :    0.011382
   6 H :    0.010268
   7 H :    0.029880

  Mayer bond orders larger than 0.100000
B(  0-C ,  1-O ) :   2.1778 B(  0-C ,  2-C ) :   1.0561 B(  0-C ,  4-H ) :   0.8945
B(  2-C ,  3-C ) :   1.9649 B(  2-C ,  5-H ) :   0.9485 B(  3-C ,  6-H ) :   0.9264
B(  3-C ,  7-H ) :   0.9437

-----------------------------------------------------------------------------
         ABSORPTION SPECTRUM VIA TRANSITION ELECTRIC DIPOLE MOMENTS
-----------------------------------------------------------------------------
State   Energy    Wavelength  fosc         T2        TX        TY        TZ
        (cm-1)      (nm)                 (au**2)    (au)      (au)      (au)
-----------------------------------------------------------------------------
   1   26859.9    372.3   0.000245822   0.00301  -0.03241  -0.02150  -0.03873

FINAL SINGLE POINT ENERGY      -191.666139279173

DIPOLE MOMENT
-------------
                                X             Y             Z
Electronic contribution:     -1.61845      -1.84234      -0.26859
Nuclear contribution   :      2.05769       2.70714       0.33573
                        -----------------------------------------
Total Dipole Moment    :      0.43924       0.86481       0.06714
                        -----------------------------------------
Magnitude (a.u.)       :      0.97228
Magnitude (Debye)      :      2.47134

Rotational constants in cm-1:     0.779691     0.201650     0.160582
Rotational constants in MHz : 23374.537468  6045.323669  4814.115639

                             ****ORCA TERMINATED NORMALLY****
TOTAL RUN TIME: 0 days 0 hours 3 minutes 28 seconds 242 msec
