                         Program Version 5.0.3 -  RELEASE  -
|  1> ! HF-3c
|  2> !TightSCF
|  3> %scf
|  4>  ConvForced true
|  5>  convergence tight
|  6>  MaxIter 500
|  7> end
|  8>
|  9> %tddft
| 10>  nroots 1
| 11> end
| 12>
| 13> # 	18039
| 14> * xyz 0 1
| 15> 		C   -1.115063  -0.435936  -0.053160
| 16> 		O   -2.233147  -0.238393  -0.739977
| 17> 		C    0.097215   0.324438  -0.392313
| 18> 		C    1.141685   0.251744   0.309997
| 19> 		H   -1.195798  -1.037416   0.861117
| 20> 		H   -0.002191   1.017833  -1.162089
| 21> 		H    1.225839  -0.373617   1.163779
| 22> 		H    2.091407   0.552407   0.013714
| 23> *
| 24>
| 25>                          ****END OF INPUT****

CARTESIAN COORDINATES (ANGSTROEM)
---------------------------------
  C     -1.115063   -0.435936   -0.053160
  O     -2.233147   -0.238393   -0.739977
  C      0.097215    0.324438   -0.392313
  C      1.141685    0.251744    0.309997
  H     -1.195798   -1.037416    0.861117
  H     -0.002191    1.017833   -1.162089
  H      1.225839   -0.373617    1.163779
  H      2.091407    0.552407    0.013714

 Total Charge           Charge          ....    0
 Multiplicity           Mult            ....    1
 Number of Electrons    NEL             ....   30
 Basis Dimension        Dim             ....   24

ORBITAL ENERGIES
----------------

  NO   OCC          E(Eh)            E(eV)
   0   2.0000     -20.341982      -553.5335
   1   2.0000     -11.275449      -306.8206
   2   2.0000     -11.213679      -305.1397
   3   2.0000     -11.203238      -304.8556
   4   2.0000      -1.326637       -36.0996
   5   2.0000      -1.121015       -30.5044
   6   2.0000      -0.894119       -24.3302
   7   2.0000      -0.796470       -21.6731
   8   2.0000      -0.674586       -18.3564
   9   2.0000      -0.669688       -18.2231
  10   2.0000      -0.559462       -15.2237
  11   2.0000      -0.545179       -14.8351
  12   2.0000      -0.511152       -13.9091
  13   2.0000      -0.424959       -11.5637
  14   2.0000      -0.398436       -10.8420
  15   0.0000       0.112020         3.0482
  16   0.0000       0.293840         7.9958
  17   0.0000       0.543444        14.7879
  18   0.0000       0.607035        16.5183
  19   0.0000       0.672654        18.3038

MULLIKEN ATOMIC CHARGES
-----------------------
   0 C :    0.133287
   1 O :   -0.323048
   2 C :   -0.178972
   3 C :   -0.242956
   4 H :    0.148239
   5 H :    0.167273
   6 H :    0.143796
   7 H :    0.152381
Sum of atomic charges:   -0.0000000

LOEWDIN ATOMIC CHARGES
----------------------
   0 C :    0.137657
   1 O :   -0.259879
   2 C :   -0.116291
   3 C :   -0.140047
   4 H :    0.086593
   5 H :    0.105259
   6 H :    0.090747
   7 H :    0.095961

  Mayer bond orders larger than 0.100000
B(  0-C ,  1-O ) :   1.8902 B(  0-C ,  2-C ) :   1.0454 B(  0-C ,  4-H ) :   0.9391
B(  2-C ,  3-C ) :   1.9529 B(  2-C ,  5-H ) :   0.9486 B(  3-C ,  6-H ) :   0.9610
B(  3-C ,  7-H ) :   0.9609

-----------------------------------------------------------------------------
         ABSORPTION SPECTRUM VIA TRANSITION ELECTRIC DIPOLE MOMENTS
-----------------------------------------------------------------------------
State   Energy    Wavelength  fosc         T2        TX        TY        TZ
        (cm-1)      (nm)                 (au**2)    (au)      (au)      (au)
-----------------------------------------------------------------------------
   1   26145.1    382.5   0.000046310   0.00058  -0.00841   0.00737  -0.02140

Dispersion correction           -0.025749740
FINAL SINGLE POINT ENERGY      -189.342405828215

DIPOLE MOMENT
-------------
                                X             Y             Z
Electronic contribution:     -3.08971      -0.36393      -1.09263
Nuclear contribution   :      4.11263       0.27816       1.65693
                        -----------------------------------------
Total Dipole Moment    :      1.02292      -0.08577       0.56430
                        -----------------------------------------
Magnitude (a.u.)       :      1.17139
Magnitude (Debye)      :      2.97744

Rotational constants in cm-1:     1.590149     0.154457     0.141017
Rotational constants in MHz : 47671.463331  4630.489819  4227.585295

                             ****ORCA TERMINATED NORMALLY****
TOTAL RUN TIME: 0 days 0 hours 0 minutes 16 seconds 64 msec
