                         Program Version 5.0.3 -  RELEASE  -
|  1> ! B3LYP cc-pVDZ
|  2> !TightSCF
|  3> %scf
|  4>  ConvForced true
|  5>  convergence tight
|  6>  MaxIter 500
|  7> end
|  8>
|  9> %tddft
| 10>  nroots 1
| 11> end
| 12>
| 13> # 	12175
| 14> * xyz 0 1
| 15> 		C   -1.172915  -0.283900  -0.064402
| 16> 		O   -1.864596  -0.758165  -1.016727
| 17> 		C    0.029012   0.488818  -0.256835
| 18> 		C    1.177760   0.133160   0.248244
| 19> 		H   -1.480964  -0.580461   1.014112
| 20> 		H   -0.031967   1.319339  -0.858987
| 21> 		H    1.256518  -0.892261   0.833358
| 22> 		H    2.094993   0.638726   0.120726
| 23> *
| 24>
| 25>                          ****END OF INPUT****

CARTESIAN COORDINATES (ANGSTROEM)
---------------------------------
  C     -1.172915   -0.283900   -0.064402
  O     -1.864596   -0.758165   -1.016727
  C      0.029012    0.488818   -0.256835
  C      1.177760    0.133160    0.248244
  H     -1.480964   -0.580461    1.014112
  H     -0.031967    1.319339   -0.858987
  H      1.256518   -0.892261    0.833358
  H      2.094993    0.638726    0.120726

 Total Charge           Charge          ....    0
 Multiplicity           Mult            ....    1
 Number of Electrons    NEL             ....   30
 Basis Dimension        Dim             ....   76

ORBITAL ENERGIES
----------------

  NO   OCC          E(Eh)            E(eV)
   0   2.0000     -19.142420      -520.8917
   1   2.0000     -10.285081      -279.8713
   2   2.0000     -10.215091      -277.9668
   3   2.0000     -10.202457      -277.6230
   4   2.0000      -1.018348       -27.7107
   5   2.0000      -0.814464       -22.1627
   6   2.0000      -0.655068       -17.8253
   7   2.0000      -0.567811       -15.4509
   8   2.0000      -0.489240       -13.3129
   9   2.0000      -0.472544       -12.8586
  10   2.0000      -0.426908       -11.6168
  11   2.0000      -0.384681       -10.4677
  12   2.0000      -0.366109        -9.9623
  13   2.0000      -0.295301        -8.0355
  14   2.0000      -0.256381        -6.9765
  15   0.0000      -0.062511        -1.7010
  16   0.0000       0.013086         0.3561
  17   0.0000       0.075468         2.0536
  18   0.0000       0.090405         2.4601
  19   0.0000       0.100989         2.7480

MULLIKEN ATOMIC CHARGES
-----------------------
   0 C :    0.146479
   1 O :   -0.229763
   2 C :    0.004465
   3 C :    0.022327
   4 H :    0.007868
   5 H :   -0.012024
   6 H :    0.036909
   7 H :    0.023741
Sum of atomic charges:    0.0000000

LOEWDIN ATOMIC CHARGES
----------------------
   0 C :    0.006930
   1 O :   -0.048418
   2 C :   -0.055832
   3 C :   -0.004918
   4 H :    0.008687
   5 H :    0.025763
   6 H :    0.044586
   7 H :    0.023203

  Mayer bond orders larger than 0.100000
B(  0-C ,  1-O ) :   2.1359 B(  0-C ,  2-C ) :   1.0343 B(  0-C ,  4-H ) :   0.9194
B(  2-C ,  3-C ) :   1.9969 B(  2-C ,  5-H ) :   0.9430 B(  3-C ,  6-H ) :   0.9404
B(  3-C ,  7-H ) :   0.9405

-----------------------------------------------------------------------------
         ABSORPTION SPECTRUM VIA TRANSITION ELECTRIC DIPOLE MOMENTS
-----------------------------------------------------------------------------
State   Energy    Wavelength  fosc         T2        TX        TY        TZ
        (cm-1)      (nm)                 (au**2)    (au)      (au)      (au)
-----------------------------------------------------------------------------
   1   28430.8    351.7   0.000682779   0.00791  -0.07723   0.00837  -0.04326

FINAL SINGLE POINT ENERGY      -191.656333019522

DIPOLE MOMENT
-------------
                                X             Y             Z
Electronic contribution:     -2.74026      -0.48584      -1.48623
Nuclear contribution   :      3.55015       0.95350       2.10249
                        -----------------------------------------
Total Dipole Moment    :      0.80989       0.46766       0.61626
                        -----------------------------------------
Magnitude (a.u.)       :      1.12000
Magnitude (Debye)      :      2.84681

Rotational constants in cm-1:     1.209384     0.158826     0.153214
Rotational constants in MHz : 36256.417694  4761.475690  4593.230074

                             ****ORCA TERMINATED NORMALLY****
TOTAL RUN TIME: 0 days 0 hours 3 minutes 6 seconds 61 msec
