                         Program Version 5.0.3 -  RELEASE  -
|  1> ! HF-3c
|  2> !TightSCF
|  3> %scf
|  4>  ConvForced true
|  5>  convergence tight
|  6>  MaxIter 500
|  7> end
|  8>
|  9> %tddft
| 10>  nroots 1
| 11> end
| 12>
| 13> # 	19977
| 14> * xyz 0 1
| 15> 		C   -1.177688  -0.371820   0.010876
| 16> 		O   -2.153884  -0.416456   0.849092
| 17> 		C    0.034115   0.339036   0.347082
| 18> 		C    1.193143   0.012605  -0.252845
| 19> 		H   -1.130245  -0.856043  -0.893895
| 20> 		H   -0.005298   1.275117   1.157164
| 21> 		H    1.190855  -0.521452  -1.092721
| 22> 		H    2.076518   0.567814  -0.136608
| 23> *
| 24>
| 25>                          ****END OF INPUT****

CARTESIAN COORDINATES (ANGSTROEM)
---------------------------------
  C     -1.177688   -0.371820    0.010876
  O     -2.153884   -0.416456    0.849092
  C      0.034115    0.339036    0.347082
  C      1.193143    0.012605   -0.252845
  H     -1.130245   -0.856043   -0.893895
  H     -0.005298    1.275117    1.157164
  H      1.190855   -0.521452   -1.092721
  H      2.076518    0.567814   -0.136608

 Total Charge           Charge          ....    0
 Multiplicity           Mult            ....    1
 Number of Electrons    NEL             ....   30
 Basis Dimension        Dim             ....   24

ORBITAL ENERGIES
----------------

  NO   OCC          E(Eh)            E(eV)
   0   2.0000     -20.358633      -553.9866
   1   2.0000     -11.289418      -307.2007
   2   2.0000     -11.199921      -304.7653
   3   2.0000     -11.188083      -304.4432
   4   2.0000      -1.355273       -36.8789
   5   2.0000      -1.093221       -29.7481
   6   2.0000      -0.906290       -24.6614
   7   2.0000      -0.785082       -21.3632
   8   2.0000      -0.668209       -18.1829
   9   2.0000      -0.649357       -17.6699
  10   2.0000      -0.571277       -15.5452
  11   2.0000      -0.542154       -14.7528
  12   2.0000      -0.503762       -13.7081
  13   2.0000      -0.428046       -11.6477
  14   2.0000      -0.386155       -10.5078
  15   0.0000       0.108872         2.9625
  16   0.0000       0.277649         7.5552
  17   0.0000       0.497276        13.5316
  18   0.0000       0.615237        16.7414
  19   0.0000       0.690676        18.7942

MULLIKEN ATOMIC CHARGES
-----------------------
   0 C :    0.124383
   1 O :   -0.322089
   2 C :   -0.130399
   3 C :   -0.265489
   4 H :    0.145530
   5 H :    0.164762
   6 H :    0.136919
   7 H :    0.146381
Sum of atomic charges:   -0.0000000

LOEWDIN ATOMIC CHARGES
----------------------
   0 C :    0.132814
   1 O :   -0.250355
   2 C :   -0.092356
   3 C :   -0.161846
   4 H :    0.076896
   5 H :    0.120147
   6 H :    0.081635
   7 H :    0.093064

  Mayer bond orders larger than 0.100000
B(  0-C ,  1-O ) :   1.8885 B(  0-C ,  2-C ) :   1.0603 B(  0-C ,  4-H ) :   0.9359
B(  2-C ,  3-C ) :   1.9314 B(  2-C ,  5-H ) :   0.9468 B(  3-C ,  6-H ) :   0.9678
B(  3-C ,  7-H ) :   0.9656

-----------------------------------------------------------------------------
         ABSORPTION SPECTRUM VIA TRANSITION ELECTRIC DIPOLE MOMENTS
-----------------------------------------------------------------------------
State   Energy    Wavelength  fosc         T2        TX        TY        TZ
        (cm-1)      (nm)                 (au**2)    (au)      (au)      (au)
-----------------------------------------------------------------------------
   1   27975.9    357.5   0.000061674   0.00073  -0.02326  -0.00066   0.01357

Dispersion correction           -0.025677248
FINAL SINGLE POINT ENERGY      -189.320534603222

DIPOLE MOMENT
-------------
                                X             Y             Z
Electronic contribution:     -3.21965      -0.63643       1.22879
Nuclear contribution   :      4.09947       0.86301      -1.82606
                        -----------------------------------------
Total Dipole Moment    :      0.87982       0.22658      -0.59727
                        -----------------------------------------
Magnitude (a.u.)       :      1.08727
Magnitude (Debye)      :      2.76363

Rotational constants in cm-1:     1.461155     0.155716     0.142936
Rotational constants in MHz : 43804.339751  4668.261327  4285.118541

                             ****ORCA TERMINATED NORMALLY****
TOTAL RUN TIME: 0 days 0 hours 0 minutes 12 seconds 845 msec
