                         Program Version 5.0.3 -  RELEASE  -
|  1> ! HF-3c
|  2> !TightSCF
|  3> %scf
|  4>  ConvForced true
|  5>  convergence tight
|  6>  MaxIter 500
|  7> end
|  8>
|  9> %tddft
| 10>  nroots 1
| 11> end
| 12>
| 13> # 	18692
| 14> * xyz 0 1
| 15> 		C   -1.219789  -0.300828  -0.037479
| 16> 		O   -1.911467  -0.762208   0.829687
| 17> 		C    0.027515   0.506720   0.228120
| 18> 		C    1.193637   0.040913  -0.110872
| 19> 		H   -1.477279  -0.606144  -0.989395
| 20> 		H   -0.069491   1.358015   0.912620
| 21> 		H    1.304827  -0.798248  -0.861912
| 22> 		H    2.144081   0.615312  -0.032510
| 23> *
| 24>
| 25>                          ****END OF INPUT****

CARTESIAN COORDINATES (ANGSTROEM)
---------------------------------
  C     -1.219789   -0.300828   -0.037479
  O     -1.911467   -0.762208    0.829687
  C      0.027515    0.506720    0.228120
  C      1.193637    0.040913   -0.110872
  H     -1.477279   -0.606144   -0.989395
  H     -0.069491    1.358015    0.912620
  H      1.304827   -0.798248   -0.861912
  H      2.144081    0.615312   -0.032510

 Total Charge           Charge          ....    0
 Multiplicity           Mult            ....    1
 Number of Electrons    NEL             ....   30
 Basis Dimension        Dim             ....   24

ORBITAL ENERGIES
----------------

  NO   OCC          E(Eh)            E(eV)
   0   2.0000     -20.376574      -554.4748
   1   2.0000     -11.302773      -307.5641
   2   2.0000     -11.196520      -304.6728
   3   2.0000     -11.185864      -304.3828
   4   2.0000      -1.416246       -38.5380
   5   2.0000      -1.086825       -29.5740
   6   2.0000      -0.876840       -23.8600
   7   2.0000      -0.787049       -21.4167
   8   2.0000      -0.679855       -18.4998
   9   2.0000      -0.646369       -17.5886
  10   2.0000      -0.601171       -16.3587
  11   2.0000      -0.534367       -14.5409
  12   2.0000      -0.518560       -14.1107
  13   2.0000      -0.417352       -11.3567
  14   2.0000      -0.410931       -11.1820
  15   0.0000       0.162950         4.4341
  16   0.0000       0.254404         6.9227
  17   0.0000       0.523903        14.2561
  18   0.0000       0.602560        16.3965
  19   0.0000       0.653248        17.7758

MULLIKEN ATOMIC CHARGES
-----------------------
   0 C :    0.157207
   1 O :   -0.340076
   2 C :   -0.168959
   3 C :   -0.231538
   4 H :    0.142514
   5 H :    0.157728
   6 H :    0.138219
   7 H :    0.144905
Sum of atomic charges:   -0.0000000

LOEWDIN ATOMIC CHARGES
----------------------
   0 C :    0.143841
   1 O :   -0.242207
   2 C :   -0.121246
   3 C :   -0.143757
   4 H :    0.071529
   5 H :    0.103941
   6 H :    0.091846
   7 H :    0.096054

  Mayer bond orders larger than 0.100000
B(  0-C ,  1-O ) :   1.9380 B(  0-C ,  2-C ) :   0.9853 B(  0-C ,  4-H ) :   0.9326
B(  2-C ,  3-C ) :   1.9935 B(  2-C ,  5-H ) :   0.9485 B(  3-C ,  6-H ) :   0.9614
B(  3-C ,  7-H ) :   0.9601

-----------------------------------------------------------------------------
         ABSORPTION SPECTRUM VIA TRANSITION ELECTRIC DIPOLE MOMENTS
-----------------------------------------------------------------------------
State   Energy    Wavelength  fosc         T2        TX        TY        TZ
        (cm-1)      (nm)                 (au**2)    (au)      (au)      (au)
-----------------------------------------------------------------------------
   1   33955.6    294.5   0.000028940   0.00028   0.00901  -0.00984  -0.01013

Dispersion correction           -0.025223046
FINAL SINGLE POINT ENERGY      -189.321036098134

DIPOLE MOMENT
-------------
                                X             Y             Z
Electronic contribution:     -2.95319      -0.73672       1.13667
Nuclear contribution   :      3.68140       1.10422      -1.78950
                        -----------------------------------------
Total Dipole Moment    :      0.72822       0.36750      -0.65283
                        -----------------------------------------
Magnitude (a.u.)       :      1.04477
Magnitude (Debye)      :      2.65559

Rotational constants in cm-1:     1.174619     0.160652     0.155024
Rotational constants in MHz : 35214.186081  4816.227369  4647.492018

                             ****ORCA TERMINATED NORMALLY****
TOTAL RUN TIME: 0 days 0 hours 0 minutes 12 seconds 882 msec
