                         Program Version 5.0.3 -  RELEASE  -
|  1> ! HF-3c
|  2> !TightSCF
|  3> %scf
|  4>  ConvForced true
|  5>  convergence tight
|  6>  MaxIter 500
|  7> end
|  8>
|  9> %tddft
| 10>  nroots 1
| 11> end
| 12>
| 13> # 	12493
| 14> * xyz 0 1
| 15> 		C   -1.177658  -0.335960   0.019488
| 16> 		O   -1.698880  -0.982466   0.878048
| 17> 		C    0.022597   0.463372   0.283610
| 18> 		C    1.226952   0.058842  -0.167378
| 19> 		H   -1.461452  -0.330805  -1.068730
| 20> 		H   -0.245075   1.377718   0.767786
| 21> 		H    1.256805  -0.862997  -0.671213
| 22> 		H    2.099054   0.634614   0.022300
| 23> *
| 24>
| 25>                          ****END OF INPUT****

CARTESIAN COORDINATES (ANGSTROEM)
---------------------------------
  C     -1.177658   -0.335960    0.019488
  O     -1.698880   -0.982466    0.878048
  C      0.022597    0.463372    0.283610
  C      1.226952    0.058842   -0.167378
  H     -1.461452   -0.330805   -1.068730
  H     -0.245075    1.377718    0.767786
  H      1.256805   -0.862997   -0.671213
  H      2.099054    0.634614    0.022300

 Total Charge           Charge          ....    0
 Multiplicity           Mult            ....    1
 Number of Electrons    NEL             ....   30
 Basis Dimension        Dim             ....   24

ORBITAL ENERGIES
----------------

  NO   OCC          E(Eh)            E(eV)
   0   2.0000     -20.382412      -554.6336
   1   2.0000     -11.303842      -307.5932
   2   2.0000     -11.190871      -304.5191
   3   2.0000     -11.183482      -304.3180
   4   2.0000      -1.421501       -38.6810
   5   2.0000      -1.084082       -29.4994
   6   2.0000      -0.892680       -24.2910
   7   2.0000      -0.773073       -21.0364
   8   2.0000      -0.684387       -18.6231
   9   2.0000      -0.648376       -17.6432
  10   2.0000      -0.611383       -16.6366
  11   2.0000      -0.567545       -15.4437
  12   2.0000      -0.513468       -13.9722
  13   2.0000      -0.412274       -11.2185
  14   2.0000      -0.398947       -10.8559
  15   0.0000       0.176862         4.8127
  16   0.0000       0.225301         6.1308
  17   0.0000       0.585390        15.9293
  18   0.0000       0.632248        17.2043
  19   0.0000       0.684118        18.6158

MULLIKEN ATOMIC CHARGES
-----------------------
   0 C :    0.175199
   1 O :   -0.344705
   2 C :   -0.157471
   3 C :   -0.254318
   4 H :    0.140148
   5 H :    0.152133
   6 H :    0.141330
   7 H :    0.147684
Sum of atomic charges:   -0.0000000

LOEWDIN ATOMIC CHARGES
----------------------
   0 C :    0.152253
   1 O :   -0.243972
   2 C :   -0.109816
   3 C :   -0.158351
   4 H :    0.077068
   5 H :    0.097943
   6 H :    0.089649
   7 H :    0.095226

  Mayer bond orders larger than 0.100000
B(  0-C ,  1-O ) :   1.9485 B(  0-C ,  2-C ) :   0.9920 B(  0-C ,  4-H ) :   0.9128
B(  2-C ,  3-C ) :   1.9905 B(  2-C ,  5-H ) :   0.9520 B(  3-C ,  6-H ) :   0.9668
B(  3-C ,  7-H ) :   0.9649

-----------------------------------------------------------------------------
         ABSORPTION SPECTRUM VIA TRANSITION ELECTRIC DIPOLE MOMENTS
-----------------------------------------------------------------------------
State   Energy    Wavelength  fosc         T2        TX        TY        TZ
        (cm-1)      (nm)                 (au**2)    (au)      (au)      (au)
-----------------------------------------------------------------------------
   1   35372.3    282.7   0.000056700   0.00053  -0.00024   0.00052  -0.02296

Dispersion correction           -0.025677595
FINAL SINGLE POINT ENERGY      -189.317773831240

DIPOLE MOMENT
-------------
                                X             Y             Z
Electronic contribution:     -2.69551      -1.07291       1.19245
Nuclear contribution   :      3.17901       1.60390      -1.86737
                        -----------------------------------------
Total Dipole Moment    :      0.48350       0.53099      -0.67491
                        -----------------------------------------
Magnitude (a.u.)       :      0.98551
Magnitude (Debye)      :      2.50497

Rotational constants in cm-1:     1.068986     0.167040     0.163030
Rotational constants in MHz : 32047.393328  5007.726693  4887.524267

                             ****ORCA TERMINATED NORMALLY****
TOTAL RUN TIME: 0 days 0 hours 0 minutes 10 seconds 242 msec
