                         Program Version 5.0.3 -  RELEASE  -
|  1> ! HF-3c
|  2> !TightSCF
|  3> %scf
|  4>  ConvForced true
|  5>  convergence tight
|  6>  MaxIter 500
|  7> end
|  8>
|  9> %tddft
| 10>  nroots 1
| 11> end
| 12>
| 13> # 	20230
| 14> * xyz 0 1
| 15> 		C   -0.602297  -0.466988  -0.022571
| 16> 		O   -0.609121  -1.640284   0.010145
| 17> 		C    0.629552   0.388290   0.030638
| 18> 		C    1.895819  -0.067158   0.017747
| 19> 		H   -1.310558   0.339133  -0.057838
| 20> 		H    0.330547   1.351980  -0.098503
| 21> 		H    1.837822  -1.154422  -0.215443
| 22> 		H    2.805292   0.484459  -0.102330
| 23> *
| 24>
| 25>                          ****END OF INPUT****

CARTESIAN COORDINATES (ANGSTROEM)
---------------------------------
  C     -0.602297   -0.466988   -0.022571
  O     -0.609121   -1.640284    0.010145
  C      0.629552    0.388290    0.030638
  C      1.895819   -0.067158    0.017747
  H     -1.310558    0.339133   -0.057838
  H      0.330547    1.351980   -0.098503
  H      1.837822   -1.154422   -0.215443
  H      2.805292    0.484459   -0.102330

 Total Charge           Charge          ....    0
 Multiplicity           Mult            ....    1
 Number of Electrons    NEL             ....   30
 Basis Dimension        Dim             ....   24

ORBITAL ENERGIES
----------------

  NO   OCC          E(Eh)            E(eV)
   0   2.0000     -20.391576      -554.8830
   1   2.0000     -11.309237      -307.7400
   2   2.0000     -11.187589      -304.4298
   3   2.0000     -11.171508      -303.9922
   4   2.0000      -1.435582       -39.0642
   5   2.0000      -1.077515       -29.3207
   6   2.0000      -0.915192       -24.9036
   7   2.0000      -0.746221       -20.3057
   8   2.0000      -0.708226       -19.2718
   9   2.0000      -0.626167       -17.0389
  10   2.0000      -0.615844       -16.7580
  11   2.0000      -0.563979       -15.3467
  12   2.0000      -0.529202       -14.4003
  13   2.0000      -0.408426       -11.1138
  14   2.0000      -0.391402       -10.6506
  15   0.0000       0.129397         3.5211
  16   0.0000       0.306598         8.3430
  17   0.0000       0.559877        15.2350
  18   0.0000       0.621693        16.9171
  19   0.0000       0.645028        17.5521

MULLIKEN ATOMIC CHARGES
-----------------------
   0 C :    0.181769
   1 O :   -0.355070
   2 C :   -0.181974
   3 C :   -0.223814
   4 H :    0.142473
   5 H :    0.123675
   6 H :    0.161884
   7 H :    0.151057
Sum of atomic charges:    0.0000000

LOEWDIN ATOMIC CHARGES
----------------------
   0 C :    0.155532
   1 O :   -0.245294
   2 C :   -0.142881
   3 C :   -0.121116
   4 H :    0.074370
   5 H :    0.070324
   6 H :    0.110655
   7 H :    0.098410

  Mayer bond orders larger than 0.100000
B(  0-C ,  1-O ) :   1.9256 B(  0-C ,  2-C ) :   1.0022 B(  0-C ,  4-H ) :   0.9162
B(  2-C ,  3-C ) :   1.9466 B(  2-C ,  5-H ) :   0.9671 B(  3-C ,  6-H ) :   0.9542
B(  3-C ,  7-H ) :   0.9642

-----------------------------------------------------------------------------
         ABSORPTION SPECTRUM VIA TRANSITION ELECTRIC DIPOLE MOMENTS
-----------------------------------------------------------------------------
State   Energy    Wavelength  fosc         T2        TX        TY        TZ
        (cm-1)      (nm)                 (au**2)    (au)      (au)      (au)
-----------------------------------------------------------------------------
   1   33949.7    294.6   0.000080654   0.00078   0.02578   0.00407   0.01005

Dispersion correction           -0.026261301
FINAL SINGLE POINT ENERGY      -189.304705753202

DIPOLE MOMENT
-------------
                                X             Y             Z
Electronic contribution:     -2.02444      -1.87111       0.30454
Nuclear contribution   :      2.28220       2.74584      -0.44428
                        -----------------------------------------
Total Dipole Moment    :      0.25776       0.87473      -0.13974
                        -----------------------------------------
Magnitude (a.u.)       :      0.92256
Magnitude (Debye)      :      2.34497

Rotational constants in cm-1:     0.812832     0.201249     0.161599
Rotational constants in MHz : 24368.092495  6033.292777  4844.605618

                             ****ORCA TERMINATED NORMALLY****
TOTAL RUN TIME: 0 days 0 hours 0 minutes 11 seconds 434 msec
