                         Program Version 5.0.3 -  RELEASE  -
|  1> ! B3LYP cc-pVDZ
|  2> !TightSCF
|  3> %scf
|  4>  ConvForced true
|  5>  convergence tight
|  6>  MaxIter 500
|  7> end
|  8>
|  9> %tddft
| 10>  nroots 1
| 11> end
| 12>
| 13> # 	32130
| 14> * xyz 0 1
| 15> 		C   -0.625653  -0.438491   0.056542
| 16> 		O   -0.566538  -1.619622  -0.036176
| 17> 		C    0.611359   0.417889  -0.028105
| 18> 		C    1.882652  -0.138251   0.008690
| 19> 		H   -1.613871   0.048215   0.014751
| 20> 		H    0.466344   1.488592  -0.017983
| 21> 		H    2.069654  -1.179856   0.344584
| 22> 		H    2.749322   0.502811  -0.228597
| 23> *
| 24>
| 25>                          ****END OF INPUT****

CARTESIAN COORDINATES (ANGSTROEM)
---------------------------------
  C     -0.625653   -0.438491    0.056542
  O     -0.566538   -1.619622   -0.036176
  C      0.611359    0.417889   -0.028105
  C      1.882652   -0.138251    0.008690
  H     -1.613871    0.048215    0.014751
  H      0.466344    1.488592   -0.017983
  H      2.069654   -1.179856    0.344584
  H      2.749322    0.502811   -0.228597

 Total Charge           Charge          ....    0
 Multiplicity           Mult            ....    1
 Number of Electrons    NEL             ....   30
 Basis Dimension        Dim             ....   76

ORBITAL ENERGIES
----------------

  NO   OCC          E(Eh)            E(eV)
   0   2.0000     -19.134334      -520.6717
   1   2.0000     -10.271209      -279.4938
   2   2.0000     -10.221077      -278.1296
   3   2.0000     -10.208519      -277.7879
   4   2.0000      -1.058159       -28.7940
   5   2.0000      -0.778035       -21.1714
   6   2.0000      -0.649391       -17.6708
   7   2.0000      -0.544875       -14.8268
   8   2.0000      -0.502778       -13.6813
   9   2.0000      -0.444135       -12.0855
  10   2.0000      -0.422229       -11.4894
  11   2.0000      -0.404831       -11.0160
  12   2.0000      -0.386719       -10.5232
  13   2.0000      -0.275346        -7.4926
  14   2.0000      -0.252678        -6.8757
  15   0.0000      -0.070546        -1.9197
  16   0.0000       0.050315         1.3691
  17   0.0000       0.073654         2.0042
  18   0.0000       0.092012         2.5038
  19   0.0000       0.120000         3.2654

MULLIKEN ATOMIC CHARGES
-----------------------
   0 C :    0.180996
   1 O :   -0.171206
   2 C :   -0.115970
   3 C :    0.043051
   4 H :   -0.025788
   5 H :   -0.005023
   6 H :    0.052094
   7 H :    0.041846
Sum of atomic charges:    0.0000000

LOEWDIN ATOMIC CHARGES
----------------------
   0 C :   -0.052602
   1 O :    0.017545
   2 C :   -0.075812
   3 C :    0.024913
   4 H :   -0.008465
   5 H :    0.022670
   6 H :    0.037946
   7 H :    0.033805

  Mayer bond orders larger than 0.100000
B(  0-C ,  1-O ) :   2.2135 B(  0-C ,  2-C ) :   1.0366 B(  0-C ,  4-H ) :   0.9194
B(  2-C ,  3-C ) :   1.9447 B(  2-C ,  5-H ) :   0.9453 B(  3-C ,  6-H ) :   0.9440
B(  3-C ,  7-H ) :   0.9462

-----------------------------------------------------------------------------
         ABSORPTION SPECTRUM VIA TRANSITION ELECTRIC DIPOLE MOMENTS
-----------------------------------------------------------------------------
State   Energy    Wavelength  fosc         T2        TX        TY        TZ
        (cm-1)      (nm)                 (au**2)    (au)      (au)      (au)
-----------------------------------------------------------------------------
   1   27513.5    363.5   0.000070958   0.00085  -0.02024  -0.00907  -0.01889

FINAL SINGLE POINT ENERGY      -191.673820304360

DIPOLE MOMENT
-------------
                                X             Y             Z
Electronic contribution:     -1.94000      -1.75435      -0.02361
Nuclear contribution   :      2.28847       2.59394       0.10654
                        -----------------------------------------
Total Dipole Moment    :      0.34847       0.83959       0.08293
                        -----------------------------------------
Magnitude (a.u.)       :      0.91281
Magnitude (Debye)      :      2.32018

Rotational constants in cm-1:     0.740197     0.206265     0.162065
Rotational constants in MHz : 22190.541035  6183.682986  4858.600166

                             ****ORCA TERMINATED NORMALLY****
TOTAL RUN TIME: 0 days 0 hours 3 minutes 16 seconds 991 msec
