                         Program Version 5.0.3 -  RELEASE  -
|  1> ! HF-3c
|  2> !TightSCF
|  3> %scf
|  4>  ConvForced true
|  5>  convergence tight
|  6>  MaxIter 500
|  7> end
|  8>
|  9> %tddft
| 10>  nroots 1
| 11> end
| 12>
| 13> # 	32146
| 14> * xyz 0 1
| 15> 		C   -0.631578  -0.489249  -0.048242
| 16> 		O   -0.605643  -1.612344   0.023483
| 17> 		C    0.666075   0.353359   0.063779
| 18> 		C    1.881547  -0.056954  -0.012144
| 19> 		H   -1.591317   0.183007  -0.155132
| 20> 		H    0.595917   1.445255  -0.026344
| 21> 		H    1.915005  -1.161576  -0.128069
| 22> 		H    2.824492   0.656617  -0.105663
| 23> *
| 24>
| 25>                          ****END OF INPUT****

CARTESIAN COORDINATES (ANGSTROEM)
---------------------------------
  C     -0.631578   -0.489249   -0.048242
  O     -0.605643   -1.612344    0.023483
  C      0.666075    0.353359    0.063779
  C      1.881547   -0.056954   -0.012144
  H     -1.591317    0.183007   -0.155132
  H      0.595917    1.445255   -0.026344
  H      1.915005   -1.161576   -0.128069
  H      2.824492    0.656617   -0.105663

 Total Charge           Charge          ....    0
 Multiplicity           Mult            ....    1
 Number of Electrons    NEL             ....   30
 Basis Dimension        Dim             ....   24

ORBITAL ENERGIES
----------------

  NO   OCC          E(Eh)            E(eV)
   0   2.0000     -20.404977      -555.2476
   1   2.0000     -11.326512      -308.2101
   2   2.0000     -11.175638      -304.1046
   3   2.0000     -11.166779      -303.8635
   4   2.0000      -1.477715       -40.2107
   5   2.0000      -1.074476       -29.2380
   6   2.0000      -0.861758       -23.4496
   7   2.0000      -0.730457       -19.8768
   8   2.0000      -0.710728       -19.3399
   9   2.0000      -0.627418       -17.0729
  10   2.0000      -0.597436       -16.2571
  11   2.0000      -0.583741       -15.8844
  12   2.0000      -0.504242       -13.7211
  13   2.0000      -0.406222       -11.0539
  14   2.0000      -0.400650       -10.9022
  15   0.0000       0.164488         4.4759
  16   0.0000       0.327621         8.9150
  17   0.0000       0.478890        13.0313
  18   0.0000       0.568397        15.4669
  19   0.0000       0.613445        16.6927

MULLIKEN ATOMIC CHARGES
-----------------------
   0 C :    0.214658
   1 O :   -0.368543
   2 C :   -0.186173
   3 C :   -0.228249
   4 H :    0.136660
   5 H :    0.128603
   6 H :    0.149914
   7 H :    0.153130
Sum of atomic charges:   -0.0000000

LOEWDIN ATOMIC CHARGES
----------------------
   0 C :    0.162404
   1 O :   -0.238128
   2 C :   -0.151109
   3 C :   -0.138505
   4 H :    0.075567
   5 H :    0.080585
   6 H :    0.099531
   7 H :    0.109655

  Mayer bond orders larger than 0.100000
B(  0-C ,  1-O ) :   1.9494 B(  0-C ,  2-C ) :   0.9625 B(  0-C ,  4-H ) :   0.9003
B(  2-C ,  3-C ) :   1.9847 B(  2-C ,  5-H ) :   0.9599 B(  3-C ,  6-H ) :   0.9549
B(  3-C ,  7-H ) :   0.9565

-----------------------------------------------------------------------------
         ABSORPTION SPECTRUM VIA TRANSITION ELECTRIC DIPOLE MOMENTS
-----------------------------------------------------------------------------
State   Energy    Wavelength  fosc         T2        TX        TY        TZ
        (cm-1)      (nm)                 (au**2)    (au)      (au)      (au)
-----------------------------------------------------------------------------
   1   38815.1    257.6   0.000333070   0.00282  -0.05267  -0.00697  -0.00161

Dispersion correction           -0.025477460
FINAL SINGLE POINT ENERGY      -189.282149669544

DIPOLE MOMENT
-------------
                                X             Y             Z
Electronic contribution:     -2.16058      -1.95846       0.23882
Nuclear contribution   :      2.35468       2.84305      -0.38905
                        -----------------------------------------
Total Dipole Moment    :      0.19410       0.88460      -0.15023
                        -----------------------------------------
Magnitude (a.u.)       :      0.91802
Magnitude (Debye)      :      2.33341

Rotational constants in cm-1:     0.867080     0.196618     0.160702
Rotational constants in MHz : 25994.413685  5894.447090  4817.718917

                             ****ORCA TERMINATED NORMALLY****
TOTAL RUN TIME: 0 days 0 hours 0 minutes 10 seconds 138 msec
