                         Program Version 5.0.3 -  RELEASE  -
|  1> ! B3LYP cc-pVDZ
|  2> !TightSCF
|  3> %scf
|  4>  ConvForced true
|  5>  convergence tight
|  6>  MaxIter 500
|  7> end
|  8>
|  9> %tddft
| 10>  nroots 1
| 11> end
| 12>
| 13> # 	962
| 14> * xyz 0 1
| 15> 		C   -1.091229  -0.346887  -0.036018
| 16> 		O   -1.275225  -1.595169   0.208661
| 17> 		C    0.027127   0.520375   0.105396
| 18> 		C    1.215638  -0.019852  -0.029160
| 19> 		H   -2.140558   0.150619  -0.168213
| 20> 		H   -0.268806   1.599740   0.128972
| 21> 		H    1.467526  -0.821962  -0.006775
| 22> 		H    2.026369   0.523475  -0.171498
| 23> *
| 24>
| 25>                          ****END OF INPUT****

CARTESIAN COORDINATES (ANGSTROEM)
---------------------------------
  C     -1.091229   -0.346887   -0.036018
  O     -1.275225   -1.595169    0.208661
  C      0.027127    0.520375    0.105396
  C      1.215638   -0.019852   -0.029160
  H     -2.140558    0.150619   -0.168213
  H     -0.268806    1.599740    0.128972
  H      1.467526   -0.821962   -0.006775
  H      2.026369    0.523475   -0.171498

 Total Charge           Charge          ....    0
 Multiplicity           Mult            ....    1
 Number of Electrons    NEL             ....   30
 Basis Dimension        Dim             ....   76

ORBITAL ENERGIES
----------------

  NO   OCC          E(Eh)            E(eV)
   0   2.0000     -19.131415      -520.5923
   1   2.0000     -10.273912      -279.5674
   2   2.0000     -10.217359      -278.0285
   3   2.0000     -10.192762      -277.3592
   4   2.0000      -1.000626       -27.2284
   5   2.0000      -0.827872       -22.5275
   6   2.0000      -0.696952       -18.9650
   7   2.0000      -0.566916       -15.4266
   8   2.0000      -0.515809       -14.0359
   9   2.0000      -0.467908       -12.7324
  10   2.0000      -0.411937       -11.2094
  11   2.0000      -0.396664       -10.7938
  12   2.0000      -0.377611       -10.2753
  13   2.0000      -0.291995        -7.9456
  14   2.0000      -0.243203        -6.6179
  15   0.0000      -0.081526        -2.2184
  16   0.0000       0.042015         1.1433
  17   0.0000       0.061843         1.6828
  18   0.0000       0.104888         2.8541
  19   0.0000       0.124382         3.3846

MULLIKEN ATOMIC CHARGES
-----------------------
   0 C :    0.151449
   1 O :   -0.250707
   2 C :   -0.129069
   3 C :    0.363795
   4 H :   -0.012790
   5 H :    0.015591
   6 H :   -0.124061
   7 H :   -0.014206
Sum of atomic charges:   -0.0000000

LOEWDIN ATOMIC CHARGES
----------------------
   0 C :   -0.008043
   1 O :   -0.080521
   2 C :   -0.052584
   3 C :    0.119185
   4 H :    0.003661
   5 H :    0.048429
   6 H :   -0.053926
   7 H :    0.023799

  Mayer bond orders larger than 0.100000
B(  0-C ,  1-O ) :   2.1011 B(  0-C ,  2-C ) :   1.1083 B(  0-C ,  4-H ) :   0.9207
B(  1-O ,  3-C ) :   0.1054 B(  2-C ,  3-C ) :   1.9276 B(  2-C ,  5-H ) :   0.9411
B(  3-C ,  6-H ) :   0.9135 B(  3-C ,  7-H ) :   0.9390

-----------------------------------------------------------------------------
         ABSORPTION SPECTRUM VIA TRANSITION ELECTRIC DIPOLE MOMENTS
-----------------------------------------------------------------------------
State   Energy    Wavelength  fosc         T2        TX        TY        TZ
        (cm-1)      (nm)                 (au**2)    (au)      (au)      (au)
-----------------------------------------------------------------------------
   1   22833.2    438.0   0.000754997   0.01089  -0.10211  -0.00113   0.02138

FINAL SINGLE POINT ENERGY      -191.596679661385

DIPOLE MOMENT
-------------
                                X             Y             Z
Electronic contribution:     -1.47792      -1.80304       0.27021
Nuclear contribution   :      2.17388       2.83118      -0.44305
                        -----------------------------------------
Total Dipole Moment    :      0.69596       1.02814      -0.17284
                        -----------------------------------------
Magnitude (a.u.)       :      1.25352
Magnitude (Debye)      :      3.18620

Rotational constants in cm-1:     0.803756     0.200739     0.162031
Rotational constants in MHz : 24096.007191  6017.994790  4857.552674

                             ****ORCA TERMINATED NORMALLY****
TOTAL RUN TIME: 0 days 0 hours 3 minutes 23 seconds 29 msec
