                         Program Version 5.0.3 -  RELEASE  -
|  1> ! HF-3c
|  2> !TightSCF
|  3> %scf
|  4>  ConvForced true
|  5>  convergence tight
|  6>  MaxIter 500
|  7> end
|  8>
|  9> %tddft
| 10>  nroots 1
| 11> end
| 12>
| 13> # 	74
| 14> * xyz 0 1
| 15> 		C   -1.143817  -0.402603  -0.093473
| 16> 		O   -1.869524  -0.873345  -0.896858
| 17> 		C    0.014371   0.443759  -0.334081
| 18> 		C    1.220376   0.086804   0.190095
| 19> 		H   -1.233130  -0.523952   1.016665
| 20> 		H   -0.178646   1.425435  -0.761888
| 21> 		H    1.264076  -0.926851   0.908257
| 22> 		H    1.936798   0.839051  -0.009440
| 23> *
| 24>
| 25>                          ****END OF INPUT****

CARTESIAN COORDINATES (ANGSTROEM)
---------------------------------
  C     -1.143817   -0.402603   -0.093473
  O     -1.869524   -0.873345   -0.896858
  C      0.014371    0.443759   -0.334081
  C      1.220376    0.086804    0.190095
  H     -1.233130   -0.523952    1.016665
  H     -0.178646    1.425435   -0.761888
  H      1.264076   -0.926851    0.908257
  H      1.936798    0.839051   -0.009440

 Total Charge           Charge          ....    0
 Multiplicity           Mult            ....    1
 Number of Electrons    NEL             ....   30
 Basis Dimension        Dim             ....   24

ORBITAL ENERGIES
----------------

  NO   OCC          E(Eh)            E(eV)
   0   2.0000     -20.382825      -554.6449
   1   2.0000     -11.303418      -307.5816
   2   2.0000     -11.178289      -304.1767
   3   2.0000     -11.176735      -304.1344
   4   2.0000      -1.426235       -38.8098
   5   2.0000      -1.078427       -29.3455
   6   2.0000      -0.879946       -23.9446
   7   2.0000      -0.758756       -20.6468
   8   2.0000      -0.669878       -18.2283
   9   2.0000      -0.641633       -17.4597
  10   2.0000      -0.592565       -16.1245
  11   2.0000      -0.549147       -14.9431
  12   2.0000      -0.514281       -13.9943
  13   2.0000      -0.413421       -11.2498
  14   2.0000      -0.381368       -10.3775
  15   0.0000       0.163335         4.4446
  16   0.0000       0.251882         6.8541
  17   0.0000       0.475987        12.9523
  18   0.0000       0.623700        16.9718
  19   0.0000       0.649821        17.6825

MULLIKEN ATOMIC CHARGES
-----------------------
   0 C :    0.178831
   1 O :   -0.350711
   2 C :   -0.174415
   3 C :   -0.232614
   4 H :    0.130009
   5 H :    0.149724
   6 H :    0.153385
   7 H :    0.145789
Sum of atomic charges:   -0.0000000

LOEWDIN ATOMIC CHARGES
----------------------
   0 C :    0.152676
   1 O :   -0.244486
   2 C :   -0.133191
   3 C :   -0.148377
   4 H :    0.067430
   5 H :    0.097723
   6 H :    0.114748
   7 H :    0.093477

  Mayer bond orders larger than 0.100000
B(  0-C ,  1-O ) :   1.9394 B(  0-C ,  2-C ) :   1.0012 B(  0-C ,  4-H ) :   0.9111
B(  2-C ,  3-C ) :   1.9737 B(  2-C ,  5-H ) :   0.9528 B(  3-C ,  6-H ) :   0.9578
B(  3-C ,  7-H ) :   0.9643

-----------------------------------------------------------------------------
         ABSORPTION SPECTRUM VIA TRANSITION ELECTRIC DIPOLE MOMENTS
-----------------------------------------------------------------------------
State   Energy    Wavelength  fosc         T2        TX        TY        TZ
        (cm-1)      (nm)                 (au**2)    (au)      (au)      (au)
-----------------------------------------------------------------------------
   1   35715.7    280.0   0.000137103   0.00126  -0.03526   0.00018  -0.00451

Dispersion correction           -0.025670975
FINAL SINGLE POINT ENERGY      -189.290571624674

DIPOLE MOMENT
-------------
                                X             Y             Z
Electronic contribution:     -2.74277      -1.11480      -1.40414
Nuclear contribution   :      3.46624       1.53102       2.14677
                        -----------------------------------------
Total Dipole Moment    :      0.72347       0.41622       0.74263
                        -----------------------------------------
Magnitude (a.u.)       :      1.11720
Magnitude (Debye)      :      2.83971

Rotational constants in cm-1:     1.218819     0.161387     0.153146
Rotational constants in MHz : 36539.275044  4838.245929  4591.187723

                             ****ORCA TERMINATED NORMALLY****
TOTAL RUN TIME: 0 days 0 hours 0 minutes 12 seconds 557 msec
