                         Program Version 5.0.3 -  RELEASE  -
|  1> ! B3LYP cc-pVDZ
|  2> !TightSCF
|  3> %scf
|  4>  ConvForced true
|  5>  convergence tight
|  6>  MaxIter 500
|  7> end
|  8>
|  9> %tddft
| 10>  nroots 1
| 11> end
| 12>
| 13> # 	26600
| 14> * xyz 0 1
| 15> 		C   -0.641568  -0.412028  -0.014783
| 16> 		O   -0.546058  -1.609734   0.007784
| 17> 		C    0.654987   0.354871   0.026136
| 18> 		C    1.831983  -0.120526   0.003172
| 19> 		H   -1.617904   0.090153  -0.121481
| 20> 		H    0.682021   1.555666   0.016328
| 21> 		H    1.995269  -1.318611  -0.052189
| 22> 		H    2.611945   0.605021  -0.143553
| 23> *
| 24>
| 25>                          ****END OF INPUT****

CARTESIAN COORDINATES (ANGSTROEM)
---------------------------------
  C     -0.641568   -0.412028   -0.014783
  O     -0.546058   -1.609734    0.007784
  C      0.654987    0.354871    0.026136
  C      1.831983   -0.120526    0.003172
  H     -1.617904    0.090153   -0.121481
  H      0.682021    1.555666    0.016328
  H      1.995269   -1.318611   -0.052189
  H      2.611945    0.605021   -0.143553

 Total Charge           Charge          ....    0
 Multiplicity           Mult            ....    1
 Number of Electrons    NEL             ....   30
 Basis Dimension        Dim             ....   76

ORBITAL ENERGIES
----------------

  NO   OCC          E(Eh)            E(eV)
   0   2.0000     -19.141804      -520.8750
   1   2.0000     -10.281016      -279.7607
   2   2.0000     -10.204363      -277.6748
   3   2.0000     -10.201286      -277.5911
   4   2.0000      -1.057259       -28.7695
   5   2.0000      -0.798419       -21.7261
   6   2.0000      -0.647342       -17.6151
   7   2.0000      -0.536405       -14.5963
   8   2.0000      -0.499929       -13.6038
   9   2.0000      -0.443069       -12.0565
  10   2.0000      -0.432205       -11.7609
  11   2.0000      -0.405601       -11.0370
  12   2.0000      -0.352250        -9.5852
  13   2.0000      -0.294177        -8.0050
  14   2.0000      -0.259719        -7.0673
  15   0.0000      -0.061432        -1.6716
  16   0.0000       0.055123         1.5000
  17   0.0000       0.069508         1.8914
  18   0.0000       0.083237         2.2650
  19   0.0000       0.107454         2.9240

MULLIKEN ATOMIC CHARGES
-----------------------
   0 C :    0.196765
   1 O :   -0.179272
   2 C :   -0.145017
   3 C :    0.056659
   4 H :   -0.007202
   5 H :   -0.001863
   6 H :    0.053972
   7 H :    0.025958
Sum of atomic charges:    0.0000000

LOEWDIN ATOMIC CHARGES
----------------------
   0 C :   -0.025024
   1 O :    0.010953
   2 C :   -0.102073
   3 C :   -0.009757
   4 H :    0.000484
   5 H :    0.038224
   6 H :    0.053285
   7 H :    0.033907

  Mayer bond orders larger than 0.100000
B(  0-C ,  1-O ) :   2.1993 B(  0-C ,  2-C ) :   1.0031 B(  0-C ,  4-H ) :   0.9238
B(  2-C ,  3-C ) :   2.0335 B(  2-C ,  5-H ) :   0.9185 B(  3-C ,  6-H ) :   0.9193
B(  3-C ,  7-H ) :   0.9180

-----------------------------------------------------------------------------
         ABSORPTION SPECTRUM VIA TRANSITION ELECTRIC DIPOLE MOMENTS
-----------------------------------------------------------------------------
State   Energy    Wavelength  fosc         T2        TX        TY        TZ
        (cm-1)      (nm)                 (au**2)    (au)      (au)      (au)
-----------------------------------------------------------------------------
   1   29783.9    335.8   0.000131052   0.00145  -0.01706   0.00475  -0.03369

FINAL SINGLE POINT ENERGY      -191.645767994796

DIPOLE MOMENT
-------------
                                X             Y             Z
Electronic contribution:     -2.09259      -1.84506       0.20914
Nuclear contribution   :      2.28518       2.66173      -0.28189
                        -----------------------------------------
Total Dipole Moment    :      0.19260       0.81667      -0.07275
                        -----------------------------------------
Magnitude (a.u.)       :      0.84222
Magnitude (Debye)      :      2.14075

Rotational constants in cm-1:     0.782021     0.212620     0.167337
Rotational constants in MHz : 23444.399075  6374.181695  5016.623040

                             ****ORCA TERMINATED NORMALLY****
TOTAL RUN TIME: 0 days 0 hours 3 minutes 22 seconds 123 msec
