                         Program Version 5.0.3 -  RELEASE  -
|  1> ! HF-3c
|  2> !TightSCF
|  3> %scf
|  4>  ConvForced true
|  5>  convergence tight
|  6>  MaxIter 500
|  7> end
|  8>
|  9> %tddft
| 10>  nroots 1
| 11> end
| 12>
| 13> # 	13491
| 14> * xyz 0 1
| 15> 		C   -1.177110  -0.335157  -0.001481
| 16> 		O   -1.624514  -1.028850  -0.955096
| 17> 		C    0.042584   0.495374  -0.216409
| 18> 		C    1.185593   0.038987   0.188076
| 19> 		H   -1.701990  -0.249373   0.975906
| 20> 		H   -0.074691   1.504067  -0.775732
| 21> 		H    1.223302  -1.050747   0.676947
| 22> 		H    2.142635   0.624702   0.109024
| 23> *
| 24>
| 25>                          ****END OF INPUT****

CARTESIAN COORDINATES (ANGSTROEM)
---------------------------------
  C     -1.177110   -0.335157   -0.001481
  O     -1.624514   -1.028850   -0.955096
  C      0.042584    0.495374   -0.216409
  C      1.185593    0.038987    0.188076
  H     -1.701990   -0.249373    0.975906
  H     -0.074691    1.504067   -0.775732
  H      1.223302   -1.050747    0.676947
  H      2.142635    0.624702    0.109024

 Total Charge           Charge          ....    0
 Multiplicity           Mult            ....    1
 Number of Electrons    NEL             ....   30
 Basis Dimension        Dim             ....   24

ORBITAL ENERGIES
----------------

  NO   OCC          E(Eh)            E(eV)
   0   2.0000     -20.359255      -554.0035
   1   2.0000     -11.285788      -307.1019
   2   2.0000     -11.186432      -304.3983
   3   2.0000     -11.175804      -304.1091
   4   2.0000      -1.368486       -37.2384
   5   2.0000      -1.079647       -29.3787
   6   2.0000      -0.869628       -23.6638
   7   2.0000      -0.745533       -20.2870
   8   2.0000      -0.666549       -18.1377
   9   2.0000      -0.624055       -16.9814
  10   2.0000      -0.587121       -15.9764
  11   2.0000      -0.518432       -14.1072
  12   2.0000      -0.476828       -12.9752
  13   2.0000      -0.415454       -11.3051
  14   2.0000      -0.402542       -10.9537
  15   0.0000       0.173765         4.7284
  16   0.0000       0.236154         6.4261
  17   0.0000       0.510203        13.8833
  18   0.0000       0.571145        15.5417
  19   0.0000       0.601663        16.3721

MULLIKEN ATOMIC CHARGES
-----------------------
   0 C :    0.152943
   1 O :   -0.334078
   2 C :   -0.170562
   3 C :   -0.230441
   4 H :    0.145840
   5 H :    0.156320
   6 H :    0.138711
   7 H :    0.141266
Sum of atomic charges:    0.0000000

LOEWDIN ATOMIC CHARGES
----------------------
   0 C :    0.147477
   1 O :   -0.253837
   2 C :   -0.127323
   3 C :   -0.150623
   4 H :    0.083790
   5 H :    0.108849
   6 H :    0.097503
   7 H :    0.094163

  Mayer bond orders larger than 0.100000
B(  0-C ,  1-O ) :   1.9423 B(  0-C ,  2-C ) :   0.9928 B(  0-C ,  4-H ) :   0.9241
B(  2-C ,  3-C ) :   2.0056 B(  2-C ,  5-H ) :   0.9410 B(  3-C ,  6-H ) :   0.9585
B(  3-C ,  7-H ) :   0.9602

-----------------------------------------------------------------------------
         ABSORPTION SPECTRUM VIA TRANSITION ELECTRIC DIPOLE MOMENTS
-----------------------------------------------------------------------------
State   Energy    Wavelength  fosc         T2        TX        TY        TZ
        (cm-1)      (nm)                 (au**2)    (au)      (au)      (au)
-----------------------------------------------------------------------------
   1   31290.7    319.6   0.000097919   0.00103  -0.02824  -0.01156   0.00994

Dispersion correction           -0.025057924
FINAL SINGLE POINT ENERGY      -189.325439021878

DIPOLE MOMENT
-------------
                                X             Y             Z
Electronic contribution:     -2.58871      -1.08584      -1.16969
Nuclear contribution   :      3.06467       1.65144       1.89517
                        -----------------------------------------
Total Dipole Moment    :      0.47596       0.56559       0.72548
                        -----------------------------------------
Magnitude (a.u.)       :      1.03574
Magnitude (Debye)      :      2.63264

Rotational constants in cm-1:     0.940033     0.168708     0.163367
Rotational constants in MHz : 28181.468044  5057.752242  4897.632949

                             ****ORCA TERMINATED NORMALLY****
TOTAL RUN TIME: 0 days 0 hours 0 minutes 11 seconds 134 msec
