                         Program Version 5.0.3 -  RELEASE  -
|  1> ! HF-3c
|  2> !TightSCF
|  3> %scf
|  4>  ConvForced true
|  5>  convergence tight
|  6>  MaxIter 500
|  7> end
|  8>
|  9> %tddft
| 10>  nroots 1
| 11> end
| 12>
| 13> # 	20630
| 14> * xyz 0 1
| 15> 		C   -0.562238  -0.389592  -0.081359
| 16> 		O   -0.558175  -1.649809   0.049066
| 17> 		C    0.558146   0.429380   0.062558
| 18> 		C    1.852072  -0.174825  -0.021665
| 19> 		H   -1.394145   0.145722  -0.249508
| 20> 		H    0.568991   1.592346   0.236548
| 21> 		H    1.939835  -1.171331  -0.196119
| 22> 		H    2.697851   0.493417  -0.073731
| 23> *
| 24>
| 25>                          ****END OF INPUT****

CARTESIAN COORDINATES (ANGSTROEM)
---------------------------------
  C     -0.562238   -0.389592   -0.081359
  O     -0.558175   -1.649809    0.049066
  C      0.558146    0.429380    0.062558
  C      1.852072   -0.174825   -0.021665
  H     -1.394145    0.145722   -0.249508
  H      0.568991    1.592346    0.236548
  H      1.939835   -1.171331   -0.196119
  H      2.697851    0.493417   -0.073731

 Total Charge           Charge          ....    0
 Multiplicity           Mult            ....    1
 Number of Electrons    NEL             ....   30
 Basis Dimension        Dim             ....   24

ORBITAL ENERGIES
----------------

  NO   OCC          E(Eh)            E(eV)
   0   2.0000     -20.344365      -553.5983
   1   2.0000     -11.287236      -307.1413
   2   2.0000     -11.195257      -304.6384
   3   2.0000     -11.185928      -304.3846
   4   2.0000      -1.359678       -36.9987
   5   2.0000      -1.070098       -29.1188
   6   2.0000      -0.922056       -25.0904
   7   2.0000      -0.758939       -20.6518
   8   2.0000      -0.701711       -19.0945
   9   2.0000      -0.605542       -16.4776
  10   2.0000      -0.580140       -15.7864
  11   2.0000      -0.540699       -14.7132
  12   2.0000      -0.514915       -14.0115
  13   2.0000      -0.422810       -11.5052
  14   2.0000      -0.361882        -9.8473
  15   0.0000       0.098468         2.6794
  16   0.0000       0.290128         7.8948
  17   0.0000       0.532385        14.4869
  18   0.0000       0.664087        18.0707
  19   0.0000       0.680161        18.5081

MULLIKEN ATOMIC CHARGES
-----------------------
   0 C :    0.114330
   1 O :   -0.340985
   2 C :   -0.161522
   3 C :   -0.204324
   4 H :    0.139164
   5 H :    0.150541
   6 H :    0.157055
   7 H :    0.145742
Sum of atomic charges:   -0.0000000

LOEWDIN ATOMIC CHARGES
----------------------
   0 C :    0.125022
   1 O :   -0.267816
   2 C :   -0.127387
   3 C :   -0.094674
   4 H :    0.068854
   5 H :    0.104773
   6 H :    0.096509
   7 H :    0.094719

  Mayer bond orders larger than 0.100000
B(  0-C ,  1-O ) :   1.8495 B(  0-C ,  2-C ) :   1.1068 B(  0-C ,  4-H ) :   0.9372
B(  1-O ,  3-C ) :   0.1114 B(  2-C ,  3-C ) :   1.8694 B(  2-C ,  5-H ) :   0.9576
B(  3-C ,  6-H ) :   0.9657 B(  3-C ,  7-H ) :   0.9698

-----------------------------------------------------------------------------
         ABSORPTION SPECTRUM VIA TRANSITION ELECTRIC DIPOLE MOMENTS
-----------------------------------------------------------------------------
State   Energy    Wavelength  fosc         T2        TX        TY        TZ
        (cm-1)      (nm)                 (au**2)    (au)      (au)      (au)
-----------------------------------------------------------------------------
   1   28441.5    351.6   0.000017690   0.00020  -0.01363  -0.00082  -0.00429

Dispersion correction           -0.025925608
FINAL SINGLE POINT ENERGY      -189.316267396072

DIPOLE MOMENT
-------------
                                X             Y             Z
Electronic contribution:     -1.96147      -1.72462       0.14748
Nuclear contribution   :      2.41886       2.78115      -0.26553
                        -----------------------------------------
Total Dipole Moment    :      0.45738       1.05653      -0.11805
                        -----------------------------------------
Magnitude (a.u.)       :      1.15732
Magnitude (Debye)      :      2.94168

Rotational constants in cm-1:     0.701295     0.216815     0.166707
Rotational constants in MHz : 21024.281227  6499.954666  4997.764187

                             ****ORCA TERMINATED NORMALLY****
TOTAL RUN TIME: 0 days 0 hours 0 minutes 13 seconds 662 msec
