                         Program Version 5.0.3 -  RELEASE  -
|  1> ! B3LYP cc-pVDZ
|  2> !TightSCF
|  3> %scf
|  4>  ConvForced true
|  5>  convergence tight
|  6>  MaxIter 500
|  7> end
|  8>
|  9> %tddft
| 10>  nroots 1
| 11> end
| 12>
| 13> # 	24166
| 14> * xyz 0 1
| 15> 		C   -0.591973  -0.439165   0.046411
| 16> 		O   -0.579899  -1.614122  -0.041517
| 17> 		C    0.607723   0.425783  -0.013312
| 18> 		C    1.849776  -0.145064  -0.004797
| 19> 		H   -1.498111   0.062759   0.273641
| 20> 		H    0.453375   1.377304  -0.317015
| 21> 		H    2.155490  -1.066713   0.311529
| 22> 		H    2.790640   0.399392   0.032405
| 23> *
| 24>
| 25>                          ****END OF INPUT****

CARTESIAN COORDINATES (ANGSTROEM)
---------------------------------
  C     -0.591973   -0.439165    0.046411
  O     -0.579899   -1.614122   -0.041517
  C      0.607723    0.425783   -0.013312
  C      1.849776   -0.145064   -0.004797
  H     -1.498111    0.062759    0.273641
  H      0.453375    1.377304   -0.317015
  H      2.155490   -1.066713    0.311529
  H      2.790640    0.399392    0.032405

 Total Charge           Charge          ....    0
 Multiplicity           Mult            ....    1
 Number of Electrons    NEL             ....   30
 Basis Dimension        Dim             ....   76

ORBITAL ENERGIES
----------------

  NO   OCC          E(Eh)            E(eV)
   0   2.0000     -19.133201      -520.6409
   1   2.0000     -10.264197      -279.3030
   2   2.0000     -10.209417      -277.8124
   3   2.0000     -10.201269      -277.5906
   4   2.0000      -1.061249       -28.8780
   5   2.0000      -0.790830       -21.5196
   6   2.0000      -0.666714       -18.1422
   7   2.0000      -0.565772       -15.3954
   8   2.0000      -0.508015       -13.8238
   9   2.0000      -0.456395       -12.4192
  10   2.0000      -0.431833       -11.7508
  11   2.0000      -0.400215       -10.8904
  12   2.0000      -0.379861       -10.3365
  13   2.0000      -0.285526        -7.7696
  14   2.0000      -0.251140        -6.8339
  15   0.0000      -0.068743        -1.8706
  16   0.0000       0.052320         1.4237
  17   0.0000       0.081050         2.2055
  18   0.0000       0.098322         2.6755
  19   0.0000       0.130065         3.5392

MULLIKEN ATOMIC CHARGES
-----------------------
   0 C :    0.196048
   1 O :   -0.164742
   2 C :   -0.074535
   3 C :    0.082335
   4 H :   -0.043846
   5 H :   -0.026017
   6 H :    0.009519
   7 H :    0.021238
Sum of atomic charges:   -0.0000000

LOEWDIN ATOMIC CHARGES
----------------------
   0 C :   -0.051746
   1 O :    0.028897
   2 C :   -0.056551
   3 C :    0.042236
   4 H :   -0.017547
   5 H :    0.008866
   6 H :    0.014194
   7 H :    0.031650

  Mayer bond orders larger than 0.100000
B(  0-C ,  1-O ) :   2.2451 B(  0-C ,  2-C ) :   1.0506 B(  0-C ,  4-H ) :   0.9239
B(  2-C ,  3-C ) :   1.9439 B(  2-C ,  5-H ) :   0.9456 B(  3-C ,  6-H ) :   0.9598
B(  3-C ,  7-H ) :   0.9580

-----------------------------------------------------------------------------
         ABSORPTION SPECTRUM VIA TRANSITION ELECTRIC DIPOLE MOMENTS
-----------------------------------------------------------------------------
State   Energy    Wavelength  fosc         T2        TX        TY        TZ
        (cm-1)      (nm)                 (au**2)    (au)      (au)      (au)
-----------------------------------------------------------------------------
   1   27688.1    361.2   0.000409769   0.00487  -0.06838  -0.00552   0.01286

FINAL SINGLE POINT ENERGY      -191.655764153923

DIPOLE MOMENT
-------------
                                X             Y             Z
Electronic contribution:     -2.11772      -1.67994      -0.20845
Nuclear contribution   :      2.50508       2.51203       0.28280
                        -----------------------------------------
Total Dipole Moment    :      0.38736       0.83209       0.07435
                        -----------------------------------------
Magnitude (a.u.)       :      0.92084
Magnitude (Debye)      :      2.34060

Rotational constants in cm-1:     0.766934     0.209890     0.165866
Rotational constants in MHz : 22992.101529  6292.341483  4972.528483

                             ****ORCA TERMINATED NORMALLY****
TOTAL RUN TIME: 0 days 0 hours 3 minutes 26 seconds 842 msec
