                         Program Version 5.0.3 -  RELEASE  -
|  1> ! B3LYP cc-pVDZ
|  2> !TightSCF
|  3> %scf
|  4>  ConvForced true
|  5>  convergence tight
|  6>  MaxIter 500
|  7> end
|  8>
|  9> %tddft
| 10>  nroots 1
| 11> end
| 12>
| 13> # 	17661
| 14> * xyz 0 1
| 15> 		C   -1.160674  -0.320869   0.020322
| 16> 		O   -1.253295  -1.512241  -0.196905
| 17> 		C    0.064678   0.506322  -0.190838
| 18> 		C    1.238536   0.027733  -0.008927
| 19> 		H   -2.180219   0.260588   0.408711
| 20> 		H   -0.252396   1.436806  -0.188692
| 21> 		H    1.438265  -1.065704   0.224340
| 22> 		H    2.132430   0.629842  -0.109289
| 23> *
| 24>
| 25>                          ****END OF INPUT****

CARTESIAN COORDINATES (ANGSTROEM)
---------------------------------
  C     -1.160674   -0.320869    0.020322
  O     -1.253295   -1.512241   -0.196905
  C      0.064678    0.506322   -0.190838
  C      1.238536    0.027733   -0.008927
  H     -2.180219    0.260588    0.408711
  H     -0.252396    1.436806   -0.188692
  H      1.438265   -1.065704    0.224340
  H      2.132430    0.629842   -0.109289

 Total Charge           Charge          ....    0
 Multiplicity           Mult            ....    1
 Number of Electrons    NEL             ....   30
 Basis Dimension        Dim             ....   76

ORBITAL ENERGIES
----------------

  NO   OCC          E(Eh)            E(eV)
   0   2.0000     -19.139818      -520.8209
   1   2.0000     -10.281936      -279.7857
   2   2.0000     -10.213743      -277.9301
   3   2.0000     -10.195104      -277.4229
   4   2.0000      -1.043866       -28.4050
   5   2.0000      -0.812276       -22.1032
   6   2.0000      -0.658650       -17.9228
   7   2.0000      -0.537931       -14.6379
   8   2.0000      -0.508019       -13.8239
   9   2.0000      -0.459022       -12.4906
  10   2.0000      -0.428731       -11.6664
  11   2.0000      -0.393165       -10.6986
  12   2.0000      -0.378872       -10.3096
  13   2.0000      -0.300474        -8.1763
  14   2.0000      -0.251724        -6.8497
  15   0.0000      -0.061005        -1.6600
  16   0.0000       0.047658         1.2968
  17   0.0000       0.063105         1.7172
  18   0.0000       0.085623         2.3299
  19   0.0000       0.117672         3.2020

MULLIKEN ATOMIC CHARGES
-----------------------
   0 C :    0.097010
   1 O :   -0.186335
   2 C :    0.017034
   3 C :    0.064064
   4 H :   -0.013418
   5 H :   -0.057605
   6 H :    0.049016
   7 H :    0.030234
Sum of atomic charges:    0.0000000

LOEWDIN ATOMIC CHARGES
----------------------
   0 C :   -0.030032
   1 O :   -0.008440
   2 C :   -0.065431
   3 C :    0.022058
   4 H :   -0.001883
   5 H :    0.003408
   6 H :    0.047867
   7 H :    0.032452

  Mayer bond orders larger than 0.100000
B(  0-C ,  1-O ) :   2.1959 B(  0-C ,  2-C ) :   1.0318 B(  0-C ,  4-H ) :   0.8869
B(  2-C ,  3-C ) :   1.9868 B(  2-C ,  5-H ) :   0.9441 B(  3-C ,  6-H ) :   0.9295
B(  3-C ,  7-H ) :   0.9386

-----------------------------------------------------------------------------
         ABSORPTION SPECTRUM VIA TRANSITION ELECTRIC DIPOLE MOMENTS
-----------------------------------------------------------------------------
State   Energy    Wavelength  fosc         T2        TX        TY        TZ
        (cm-1)      (nm)                 (au**2)    (au)      (au)      (au)
-----------------------------------------------------------------------------
   1   28861.6    346.5   0.000595866   0.00680  -0.07609  -0.00171  -0.03168

FINAL SINGLE POINT ENERGY      -191.649477727052

DIPOLE MOMENT
-------------
                                X             Y             Z
Electronic contribution:     -1.69480      -1.67056      -0.48467
Nuclear contribution   :      2.20450       2.52951       0.64528
                        -----------------------------------------
Total Dipole Moment    :      0.50971       0.85895       0.16061
                        -----------------------------------------
Magnitude (a.u.)       :      1.01163
Magnitude (Debye)      :      2.57136

Rotational constants in cm-1:     0.810866     0.200214     0.163203
Rotational constants in MHz : 24309.153165  6002.265421  4892.705002

                             ****ORCA TERMINATED NORMALLY****
TOTAL RUN TIME: 0 days 0 hours 3 minutes 23 seconds 74 msec
