                         Program Version 5.0.3 -  RELEASE  -
|  1> ! HF-3c
|  2> !TightSCF
|  3> %scf
|  4>  ConvForced true
|  5>  convergence tight
|  6>  MaxIter 500
|  7> end
|  8>
|  9> %tddft
| 10>  nroots 1
| 11> end
| 12>
| 13> # 	2601
| 14> * xyz 0 1
| 15> 		C   -1.236784  -0.290552  -0.002279
| 16> 		O   -1.277683  -1.547945   0.137278
| 17> 		C   -0.065570   0.514345   0.037393
| 18> 		C    1.202753   0.045711  -0.023546
| 19> 		H   -2.067916   0.226890  -0.338317
| 20> 		H   -0.164049   1.601644   0.248856
| 21> 		H    1.336111  -1.183139  -0.046539
| 22> 		H    2.270240   0.585861  -0.010831
| 23> *
| 24>
| 25>                          ****END OF INPUT****

CARTESIAN COORDINATES (ANGSTROEM)
---------------------------------
  C     -1.236784   -0.290552   -0.002279
  O     -1.277683   -1.547945    0.137278
  C     -0.065570    0.514345    0.037393
  C      1.202753    0.045711   -0.023546
  H     -2.067916    0.226890   -0.338317
  H     -0.164049    1.601644    0.248856
  H      1.336111   -1.183139   -0.046539
  H      2.270240    0.585861   -0.010831

 Total Charge           Charge          ....    0
 Multiplicity           Mult            ....    1
 Number of Electrons    NEL             ....   30
 Basis Dimension        Dim             ....   24

ORBITAL ENERGIES
----------------

  NO   OCC          E(Eh)            E(eV)
   0   2.0000     -20.345827      -553.6381
   1   2.0000     -11.285237      -307.0869
   2   2.0000     -11.190435      -304.5072
   3   2.0000     -11.180429      -304.2349
   4   2.0000      -1.358862       -36.9765
   5   2.0000      -1.068506       -29.0755
   6   2.0000      -0.896704       -24.4006
   7   2.0000      -0.735734       -20.0203
   8   2.0000      -0.686201       -18.6725
   9   2.0000      -0.601999       -16.3812
  10   2.0000      -0.576655       -15.6916
  11   2.0000      -0.516739       -14.0612
  12   2.0000      -0.484560       -13.1855
  13   2.0000      -0.419694       -11.4205
  14   2.0000      -0.375990       -10.2312
  15   0.0000       0.119939         3.2637
  16   0.0000       0.298869         8.1326
  17   0.0000       0.497908        13.5488
  18   0.0000       0.526838        14.3360
  19   0.0000       0.624737        16.9999

MULLIKEN ATOMIC CHARGES
-----------------------
   0 C :    0.130572
   1 O :   -0.341645
   2 C :   -0.204037
   3 C :   -0.166669
   4 H :    0.140086
   5 H :    0.141896
   6 H :    0.149166
   7 H :    0.150631
Sum of atomic charges:    0.0000000

LOEWDIN ATOMIC CHARGES
----------------------
   0 C :    0.136180
   1 O :   -0.265878
   2 C :   -0.165062
   3 C :   -0.084148
   4 H :    0.072235
   5 H :    0.092911
   6 H :    0.106945
   7 H :    0.106818

  Mayer bond orders larger than 0.100000
B(  0-C ,  1-O ) :   1.8760 B(  0-C ,  2-C ) :   1.0710 B(  0-C ,  4-H ) :   0.9355
B(  2-C ,  3-C ) :   1.9076 B(  2-C ,  5-H ) :   0.9541 B(  3-C ,  6-H ) :   0.9548
B(  3-C ,  7-H ) :   0.9603

-----------------------------------------------------------------------------
         ABSORPTION SPECTRUM VIA TRANSITION ELECTRIC DIPOLE MOMENTS
-----------------------------------------------------------------------------
State   Energy    Wavelength  fosc         T2        TX        TY        TZ
        (cm-1)      (nm)                 (au**2)    (au)      (au)      (au)
-----------------------------------------------------------------------------
   1   29382.4    340.3   0.000057175   0.00064  -0.02314   0.00015  -0.01025

Dispersion correction           -0.025291933
FINAL SINGLE POINT ENERGY      -189.317595334977

DIPOLE MOMENT
-------------
                                X             Y             Z
Electronic contribution:     -2.05064      -1.57875       0.17475
Nuclear contribution   :      2.63149       2.49556      -0.28271
                        -----------------------------------------
Total Dipole Moment    :      0.58085       0.91681      -0.10795
                        -----------------------------------------
Magnitude (a.u.)       :      1.09068
Magnitude (Debye)      :      2.77229

Rotational constants in cm-1:     0.757139     0.200666     0.159569
Rotational constants in MHz : 22698.443188  6015.806155  4783.766457

                             ****ORCA TERMINATED NORMALLY****
TOTAL RUN TIME: 0 days 0 hours 0 minutes 16 seconds 12 msec
