                         Program Version 5.0.3 -  RELEASE  -
|  1> ! B3LYP cc-pVDZ
|  2> !TightSCF
|  3> %scf
|  4>  ConvForced true
|  5>  convergence tight
|  6>  MaxIter 500
|  7> end
|  8>
|  9> %tddft
| 10>  nroots 1
| 11> end
| 12>
| 13> # 	31969
| 14> * xyz 0 1
| 15> 		C   -0.573128  -0.430887   0.030103
| 16> 		O   -0.574931  -1.618064  -0.007957
| 17> 		C    0.630957   0.411580  -0.041244
| 18> 		C    1.839310  -0.122517   0.002373
| 19> 		H   -1.647654  -0.031555   0.101131
| 20> 		H    0.589515   1.405067  -0.051776
| 21> 		H    1.779264  -1.265755  -0.088775
| 22> 		H    2.760337   0.472692   0.282674
| 23> *
| 24>
| 25>                          ****END OF INPUT****

CARTESIAN COORDINATES (ANGSTROEM)
---------------------------------
  C     -0.573128   -0.430887    0.030103
  O     -0.574931   -1.618064   -0.007957
  C      0.630957    0.411580   -0.041244
  C      1.839310   -0.122517    0.002373
  H     -1.647654   -0.031555    0.101131
  H      0.589515    1.405067   -0.051776
  H      1.779264   -1.265755   -0.088775
  H      2.760337    0.472692    0.282674

 Total Charge           Charge          ....    0
 Multiplicity           Mult            ....    1
 Number of Electrons    NEL             ....   30
 Basis Dimension        Dim             ....   76

ORBITAL ENERGIES
----------------

  NO   OCC          E(Eh)            E(eV)
   0   2.0000     -19.134456      -520.6750
   1   2.0000     -10.274478      -279.5828
   2   2.0000     -10.216629      -278.0086
   3   2.0000     -10.193144      -277.3696
   4   2.0000      -1.059869       -28.8405
   5   2.0000      -0.802649       -21.8412
   6   2.0000      -0.644386       -17.5346
   7   2.0000      -0.542446       -14.7607
   8   2.0000      -0.521291       -14.1851
   9   2.0000      -0.441775       -12.0213
  10   2.0000      -0.427812       -11.6414
  11   2.0000      -0.406977       -11.0744
  12   2.0000      -0.376580       -10.2473
  13   2.0000      -0.288103        -7.8397
  14   2.0000      -0.252627        -6.8743
  15   0.0000      -0.066075        -1.7980
  16   0.0000       0.059309         1.6139
  17   0.0000       0.074756         2.0342
  18   0.0000       0.089858         2.4452
  19   0.0000       0.123582         3.3628

MULLIKEN ATOMIC CHARGES
-----------------------
   0 C :    0.156576
   1 O :   -0.175415
   2 C :   -0.029470
   3 C :    0.028959
   4 H :   -0.019794
   5 H :   -0.059989
   6 H :    0.048695
   7 H :    0.050439
Sum of atomic charges:   -0.0000000

LOEWDIN ATOMIC CHARGES
----------------------
   0 C :   -0.048389
   1 O :    0.012453
   2 C :   -0.075233
   3 C :    0.021764
   4 H :   -0.000344
   5 H :    0.001186
   6 H :    0.043985
   7 H :    0.044578

  Mayer bond orders larger than 0.100000
B(  0-C ,  1-O ) :   2.1904 B(  0-C ,  2-C ) :   1.0226 B(  0-C ,  4-H ) :   0.9269
B(  2-C ,  3-C ) :   1.9666 B(  2-C ,  5-H ) :   0.9557 B(  3-C ,  6-H ) :   0.9145
B(  3-C ,  7-H ) :   0.9399

-----------------------------------------------------------------------------
         ABSORPTION SPECTRUM VIA TRANSITION ELECTRIC DIPOLE MOMENTS
-----------------------------------------------------------------------------
State   Energy    Wavelength  fosc         T2        TX        TY        TZ
        (cm-1)      (nm)                 (au**2)    (au)      (au)      (au)
-----------------------------------------------------------------------------
   1   28253.9    353.9   0.000309208   0.00360  -0.04050  -0.00669  -0.04379

FINAL SINGLE POINT ENERGY      -191.656623283080

DIPOLE MOMENT
-------------
                                X             Y             Z
Electronic contribution:     -1.72304      -1.46617      -0.16146
Nuclear contribution   :      2.10877       2.33542       0.22725
                        -----------------------------------------
Total Dipole Moment    :      0.38573       0.86925       0.06579
                        -----------------------------------------
Magnitude (a.u.)       :      0.95326
Magnitude (Debye)      :      2.42300

Rotational constants in cm-1:     0.806551     0.210944     0.167657
Rotational constants in MHz : 24179.786059  6323.929224  5026.222000

                             ****ORCA TERMINATED NORMALLY****
TOTAL RUN TIME: 0 days 0 hours 3 minutes 7 seconds 142 msec
