                         Program Version 5.0.3 -  RELEASE  -
|  1> ! HF-3c
|  2> !TightSCF
|  3> %scf
|  4>  ConvForced true
|  5>  convergence tight
|  6>  MaxIter 500
|  7> end
|  8>
|  9> %tddft
| 10>  nroots 1
| 11> end
| 12>
| 13> # 	7369
| 14> * xyz 0 1
| 15> 		C   -1.208563  -0.327644  -0.009974
| 16> 		O   -1.791479  -0.948599   0.896514
| 17> 		C   -0.018167   0.450941   0.215302
| 18> 		C    1.218434   0.006681  -0.210593
| 19> 		H   -1.454603  -0.531353  -1.020394
| 20> 		H   -0.035335   1.516669   0.857401
| 21> 		H    1.314036  -0.849318  -0.794160
| 22> 		H    2.016285   0.666712  -0.060038
| 23> *
| 24>
| 25>                          ****END OF INPUT****

CARTESIAN COORDINATES (ANGSTROEM)
---------------------------------
  C     -1.208563   -0.327644   -0.009974
  O     -1.791479   -0.948599    0.896514
  C     -0.018167    0.450941    0.215302
  C      1.218434    0.006681   -0.210593
  H     -1.454603   -0.531353   -1.020394
  H     -0.035335    1.516669    0.857401
  H      1.314036   -0.849318   -0.794160
  H      2.016285    0.666712   -0.060038

 Total Charge           Charge          ....    0
 Multiplicity           Mult            ....    1
 Number of Electrons    NEL             ....   30
 Basis Dimension        Dim             ....   24

ORBITAL ENERGIES
----------------

  NO   OCC          E(Eh)            E(eV)
   0   2.0000     -20.369589      -554.2847
   1   2.0000     -11.296833      -307.4025
   2   2.0000     -11.192314      -304.5583
   3   2.0000     -11.177232      -304.1479
   4   2.0000      -1.385946       -37.7135
   5   2.0000      -1.072646       -29.1882
   6   2.0000      -0.897623       -24.4256
   7   2.0000      -0.768042       -20.8995
   8   2.0000      -0.673825       -18.3357
   9   2.0000      -0.636046       -17.3077
  10   2.0000      -0.590902       -16.0793
  11   2.0000      -0.550899       -14.9907
  12   2.0000      -0.484804       -13.1922
  13   2.0000      -0.423298       -11.5185
  14   2.0000      -0.385466       -10.4891
  15   0.0000       0.147005         4.0002
  16   0.0000       0.223330         6.0771
  17   0.0000       0.505715        13.7612
  18   0.0000       0.637268        17.3409
  19   0.0000       0.705644        19.2016

MULLIKEN ATOMIC CHARGES
-----------------------
   0 C :    0.136330
   1 O :   -0.327467
   2 C :   -0.134638
   3 C :   -0.261468
   4 H :    0.145432
   5 H :    0.160054
   6 H :    0.139034
   7 H :    0.142723
Sum of atomic charges:   -0.0000000

LOEWDIN ATOMIC CHARGES
----------------------
   0 C :    0.135129
   1 O :   -0.243432
   2 C :   -0.099868
   3 C :   -0.165143
   4 H :    0.077825
   5 H :    0.118190
   6 H :    0.086787
   7 H :    0.090513

  Mayer bond orders larger than 0.100000
B(  0-C ,  1-O ) :   1.9221 B(  0-C ,  2-C ) :   1.0258 B(  0-C ,  4-H ) :   0.9277
B(  2-C ,  3-C ) :   1.9697 B(  2-C ,  5-H ) :   0.9409 B(  3-C ,  6-H ) :   0.9689
B(  3-C ,  7-H ) :   0.9673

-----------------------------------------------------------------------------
         ABSORPTION SPECTRUM VIA TRANSITION ELECTRIC DIPOLE MOMENTS
-----------------------------------------------------------------------------
State   Energy    Wavelength  fosc         T2        TX        TY        TZ
        (cm-1)      (nm)                 (au**2)    (au)      (au)      (au)
-----------------------------------------------------------------------------
   1   31154.3    321.0   0.000037881   0.00040  -0.01195  -0.00505   0.01524

Dispersion correction           -0.025163074
FINAL SINGLE POINT ENERGY      -189.312003652190

DIPOLE MOMENT
-------------
                                X             Y             Z
Electronic contribution:     -2.93654      -1.02284       1.19596
Nuclear contribution   :      3.50822       1.59964      -1.83176
                        -----------------------------------------
Total Dipole Moment    :      0.57168       0.57679      -0.63580
                        -----------------------------------------
Magnitude (a.u.)       :      1.03139
Magnitude (Debye)      :      2.62157

Rotational constants in cm-1:     1.047096     0.161441     0.156805
Rotational constants in MHz : 31391.150682  4839.869671  4700.888206

                             ****ORCA TERMINATED NORMALLY****
TOTAL RUN TIME: 0 days 0 hours 0 minutes 8 seconds 559 msec
