                         Program Version 5.0.3 -  RELEASE  -
|  1> ! HF-3c
|  2> !TightSCF
|  3> %scf
|  4>  ConvForced true
|  5>  convergence tight
|  6>  MaxIter 500
|  7> end
|  8>
|  9> %tddft
| 10>  nroots 1
| 11> end
| 12>
| 13> # 	240
| 14> * xyz 0 1
| 15> 		C   -1.232135  -0.311386  -0.012297
| 16> 		O   -1.185937  -1.563589   0.008363
| 17> 		C    0.031721   0.459829   0.018666
| 18> 		C    1.264982  -0.008026   0.024134
| 19> 		H   -2.122399   0.294117   0.005181
| 20> 		H   -0.182078   1.457583   0.121183
| 21> 		H    1.370448  -0.989486  -0.183383
| 22> 		H    2.115984   0.636110   0.048108
| 23> *
| 24>
| 25>                          ****END OF INPUT****

CARTESIAN COORDINATES (ANGSTROEM)
---------------------------------
  C     -1.232135   -0.311386   -0.012297
  O     -1.185937   -1.563589    0.008363
  C      0.031721    0.459829    0.018666
  C      1.264982   -0.008026    0.024134
  H     -2.122399    0.294117    0.005181
  H     -0.182078    1.457583    0.121183
  H      1.370448   -0.989486   -0.183383
  H      2.115984    0.636110    0.048108

 Total Charge           Charge          ....    0
 Multiplicity           Mult            ....    1
 Number of Electrons    NEL             ....   30
 Basis Dimension        Dim             ....   24

ORBITAL ENERGIES
----------------

  NO   OCC          E(Eh)            E(eV)
   0   2.0000     -20.362530      -554.0926
   1   2.0000     -11.291548      -307.2586
   2   2.0000     -11.197397      -304.6967
   3   2.0000     -11.192630      -304.5669
   4   2.0000      -1.376067       -37.4447
   5   2.0000      -1.090046       -29.6617
   6   2.0000      -0.915602       -24.9148
   7   2.0000      -0.764342       -20.7988
   8   2.0000      -0.710080       -19.3223
   9   2.0000      -0.622983       -16.9522
  10   2.0000      -0.606627       -16.5072
  11   2.0000      -0.541334       -14.7304
  12   2.0000      -0.529211       -14.4006
  13   2.0000      -0.422804       -11.5051
  14   2.0000      -0.397358       -10.8127
  15   0.0000       0.118457         3.2234
  16   0.0000       0.300519         8.1775
  17   0.0000       0.556106        15.1324
  18   0.0000       0.672363        18.2959
  19   0.0000       0.706825        19.2337

MULLIKEN ATOMIC CHARGES
-----------------------
   0 C :    0.148507
   1 O :   -0.334727
   2 C :   -0.170365
   3 C :   -0.237850
   4 H :    0.145481
   5 H :    0.135313
   6 H :    0.159167
   7 H :    0.154474
Sum of atomic charges:   -0.0000000

LOEWDIN ATOMIC CHARGES
----------------------
   0 C :    0.142446
   1 O :   -0.252551
   2 C :   -0.120391
   3 C :   -0.129077
   4 H :    0.080188
   5 H :    0.079679
   6 H :    0.098427
   7 H :    0.101280

  Mayer bond orders larger than 0.100000
B(  0-C ,  1-O ) :   1.9039 B(  0-C ,  2-C ) :   1.0339 B(  0-C ,  4-H ) :   0.9318
B(  2-C ,  3-C ) :   1.9465 B(  2-C ,  5-H ) :   0.9626 B(  3-C ,  6-H ) :   0.9607
B(  3-C ,  7-H ) :   0.9629

-----------------------------------------------------------------------------
         ABSORPTION SPECTRUM VIA TRANSITION ELECTRIC DIPOLE MOMENTS
-----------------------------------------------------------------------------
State   Energy    Wavelength  fosc         T2        TX        TY        TZ
        (cm-1)      (nm)                 (au**2)    (au)      (au)      (au)
-----------------------------------------------------------------------------
   1   29420.6    339.9   0.000008559   0.00010  -0.00976  -0.00062  -0.00026

Dispersion correction           -0.025985561
FINAL SINGLE POINT ENERGY      -189.346024998581

DIPOLE MOMENT
-------------
                                X             Y             Z
Electronic contribution:     -2.03477      -1.80479       0.01378
Nuclear contribution   :      2.23420       2.76176      -0.04124
                        -----------------------------------------
Total Dipole Moment    :      0.19943       0.95696      -0.02746
                        -----------------------------------------
Magnitude (a.u.)       :      0.97791
Magnitude (Debye)      :      2.48565

Rotational constants in cm-1:     0.777022     0.205376     0.162609
Rotational constants in MHz : 23294.534655  6157.023530  4874.900718

                             ****ORCA TERMINATED NORMALLY****
TOTAL RUN TIME: 0 days 0 hours 0 minutes 11 seconds 718 msec
