                         Program Version 5.0.3 -  RELEASE  -
|  1> ! B3LYP cc-pVDZ
|  2> !TightSCF
|  3> %scf
|  4>  ConvForced true
|  5>  convergence tight
|  6>  MaxIter 500
|  7> end
|  8>
|  9> %tddft
| 10>  nroots 1
| 11> end
| 12>
| 13> # 	17211
| 14> * xyz 0 1
| 15> 		C   -1.207159  -0.333434  -0.012722
| 16> 		O   -1.558102  -1.224774  -0.761775
| 17> 		C   -0.008676   0.521892  -0.269145
| 18> 		C    1.236020   0.015688   0.200555
| 19> 		H   -1.812422  -0.027542   0.803832
| 20> 		H   -0.040041   1.523309  -0.519664
| 21> 		H    1.329433  -1.008076   0.527857
| 22> 		H    2.028596   0.565165   0.028273
| 23> *
| 24>
| 25>                          ****END OF INPUT****

CARTESIAN COORDINATES (ANGSTROEM)
---------------------------------
  C     -1.207159   -0.333434   -0.012722
  O     -1.558102   -1.224774   -0.761775
  C     -0.008676    0.521892   -0.269145
  C      1.236020    0.015688    0.200555
  H     -1.812422   -0.027542    0.803832
  H     -0.040041    1.523309   -0.519664
  H      1.329433   -1.008076    0.527857
  H      2.028596    0.565165    0.028273

 Total Charge           Charge          ....    0
 Multiplicity           Mult            ....    1
 Number of Electrons    NEL             ....   30
 Basis Dimension        Dim             ....   76

ORBITAL ENERGIES
----------------

  NO   OCC          E(Eh)            E(eV)
   0   2.0000     -19.143085      -520.9098
   1   2.0000     -10.278365      -279.6885
   2   2.0000     -10.209781      -277.8223
   3   2.0000     -10.202921      -277.6356
   4   2.0000      -1.046753       -28.4836
   5   2.0000      -0.785368       -21.3709
   6   2.0000      -0.659454       -17.9447
   7   2.0000      -0.569426       -15.4949
   8   2.0000      -0.508765       -13.8442
   9   2.0000      -0.450610       -12.2617
  10   2.0000      -0.433451       -11.7948
  11   2.0000      -0.409576       -11.1451
  12   2.0000      -0.372131       -10.1262
  13   2.0000      -0.273926        -7.4539
  14   2.0000      -0.256233        -6.9724
  15   0.0000      -0.040913        -1.1133
  16   0.0000      -0.022385        -0.6091
  17   0.0000       0.089354         2.4314
  18   0.0000       0.102714         2.7950
  19   0.0000       0.110532         3.0077

MULLIKEN ATOMIC CHARGES
-----------------------
   0 C :    0.200667
   1 O :   -0.190009
   2 C :   -0.072379
   3 C :    0.058651
   4 H :   -0.011536
   5 H :   -0.005893
   6 H :    0.028216
   7 H :   -0.007717
Sum of atomic charges:    0.0000000

LOEWDIN ATOMIC CHARGES
----------------------
   0 C :   -0.013271
   1 O :    0.004190
   2 C :   -0.027402
   3 C :    0.009801
   4 H :   -0.009683
   5 H :    0.016774
   6 H :    0.026473
   7 H :   -0.006882

  Mayer bond orders larger than 0.100000
B(  0-C ,  1-O ) :   2.2136 B(  0-C ,  2-C ) :   0.9904 B(  0-C ,  4-H ) :   0.9250
B(  2-C ,  3-C ) :   2.0109 B(  2-C ,  5-H ) :   0.9437 B(  3-C ,  6-H ) :   0.9601
B(  3-C ,  7-H ) :   0.9550

-----------------------------------------------------------------------------
         ABSORPTION SPECTRUM VIA TRANSITION ELECTRIC DIPOLE MOMENTS
-----------------------------------------------------------------------------
State   Energy    Wavelength  fosc         T2        TX        TY        TZ
        (cm-1)      (nm)                 (au**2)    (au)      (au)      (au)
-----------------------------------------------------------------------------
   1   32476.1    307.9   0.000317290   0.00322   0.05260  -0.01420  -0.01573

FINAL SINGLE POINT ENERGY      -191.624221780996

DIPOLE MOMENT
-------------
                                X             Y             Z
Electronic contribution:     -2.51391      -1.32412      -1.09107
Nuclear contribution   :      2.94633       2.05035       1.60480
                        -----------------------------------------
Total Dipole Moment    :      0.43242       0.72624       0.51373
                        -----------------------------------------
Magnitude (a.u.)       :      0.98910
Magnitude (Debye)      :      2.51410

Rotational constants in cm-1:     0.883874     0.173592     0.158760
Rotational constants in MHz : 26497.871471  5204.143139  4759.508574

                             ****ORCA TERMINATED NORMALLY****
TOTAL RUN TIME: 0 days 0 hours 3 minutes 14 seconds 755 msec
