                         Program Version 5.0.3 -  RELEASE  -
|  1> ! B3LYP cc-pVDZ
|  2> !TightSCF
|  3> %scf
|  4>  ConvForced true
|  5>  convergence tight
|  6>  MaxIter 500
|  7> end
|  8>
|  9> %tddft
| 10>  nroots 1
| 11> end
| 12>
| 13> # 	3408
| 14> * xyz 0 1
| 15> 		C   -1.179802  -0.328503  -0.005253
| 16> 		O   -1.611366  -1.340221  -0.702767
| 17> 		C    0.002509   0.424189  -0.225450
| 18> 		C    1.184758   0.062238   0.089079
| 19> 		H   -1.864939   0.016315   0.760694
| 20> 		H   -0.089939   1.477355  -0.573724
| 21> 		H    1.383547  -0.911678   0.677617
| 22> 		H    2.154701   0.662615  -0.013145
| 23> *
| 24>
| 25>                          ****END OF INPUT****

CARTESIAN COORDINATES (ANGSTROEM)
---------------------------------
  C     -1.179802   -0.328503   -0.005253
  O     -1.611366   -1.340221   -0.702767
  C      0.002509    0.424189   -0.225450
  C      1.184758    0.062238    0.089079
  H     -1.864939    0.016315    0.760694
  H     -0.089939    1.477355   -0.573724
  H      1.383547   -0.911678    0.677617
  H      2.154701    0.662615   -0.013145

 Total Charge           Charge          ....    0
 Multiplicity           Mult            ....    1
 Number of Electrons    NEL             ....   30
 Basis Dimension        Dim             ....   76

ORBITAL ENERGIES
----------------

  NO   OCC          E(Eh)            E(eV)
   0   2.0000     -19.142750      -520.9007
   1   2.0000     -10.282369      -279.7975
   2   2.0000     -10.215004      -277.9644
   3   2.0000     -10.207559      -277.7618
   4   2.0000      -1.001852       -27.2618
   5   2.0000      -0.818752       -22.2794
   6   2.0000      -0.667724       -18.1697
   7   2.0000      -0.552463       -15.0333
   8   2.0000      -0.504745       -13.7348
   9   2.0000      -0.462086       -12.5740
  10   2.0000      -0.431260       -11.7352
  11   2.0000      -0.369986       -10.0678
  12   2.0000      -0.350835        -9.5467
  13   2.0000      -0.299098        -8.1389
  14   2.0000      -0.255614        -6.9556
  15   0.0000      -0.058018        -1.5787
  16   0.0000      -0.002321        -0.0632
  17   0.0000       0.067667         1.8413
  18   0.0000       0.084867         2.3093
  19   0.0000       0.107020         2.9122

MULLIKEN ATOMIC CHARGES
-----------------------
   0 C :    0.185216
   1 O :   -0.248108
   2 C :   -0.031303
   3 C :   -0.016037
   4 H :    0.006862
   5 H :    0.026118
   6 H :    0.034930
   7 H :    0.042322
Sum of atomic charges:   -0.0000000

LOEWDIN ATOMIC CHARGES
----------------------
   0 C :    0.032525
   1 O :   -0.072016
   2 C :   -0.080301
   3 C :   -0.023705
   4 H :    0.005336
   5 H :    0.055635
   6 H :    0.039524
   7 H :    0.043001

  Mayer bond orders larger than 0.100000
B(  0-C ,  1-O ) :   2.1440 B(  0-C ,  2-C ) :   1.0243 B(  0-C ,  4-H ) :   0.9309
B(  2-C ,  3-C ) :   2.0343 B(  2-C ,  5-H ) :   0.9144 B(  3-C ,  6-H ) :   0.9422
B(  3-C ,  7-H ) :   0.9384

-----------------------------------------------------------------------------
         ABSORPTION SPECTRUM VIA TRANSITION ELECTRIC DIPOLE MOMENTS
-----------------------------------------------------------------------------
State   Energy    Wavelength  fosc         T2        TX        TY        TZ
        (cm-1)      (nm)                 (au**2)    (au)      (au)      (au)
-----------------------------------------------------------------------------
   1   27842.4    359.2   0.000141528   0.00167   0.04032   0.00069   0.00690

FINAL SINGLE POINT ENERGY      -191.647533084584

DIPOLE MOMENT
-------------
                                X             Y             Z
Electronic contribution:     -2.49069      -1.47029      -1.06097
Nuclear contribution   :      3.08080       2.37698       1.60061
                        -----------------------------------------
Total Dipole Moment    :      0.59011       0.90669       0.53964
                        -----------------------------------------
Magnitude (a.u.)       :      1.20894
Magnitude (Debye)      :      3.07288

Rotational constants in cm-1:     0.972521     0.170470     0.156348
Rotational constants in MHz : 29155.453030  5110.570532  4687.184146

                             ****ORCA TERMINATED NORMALLY****
TOTAL RUN TIME: 0 days 0 hours 3 minutes 19 seconds 496 msec
