                         Program Version 5.0.3 -  RELEASE  -
|  1> ! HF-3c
|  2> !TightSCF
|  3> %scf
|  4>  ConvForced true
|  5>  convergence tight
|  6>  MaxIter 500
|  7> end
|  8>
|  9> %tddft
| 10>  nroots 1
| 11> end
| 12>
| 13> # 	26077
| 14> * xyz 0 1
| 15> 		C   -0.563936  -0.407129  -0.093264
| 16> 		O   -0.537967  -1.583972   0.070793
| 17> 		C    0.621045   0.380630   0.062108
| 18> 		C    1.768329  -0.173234  -0.050815
| 19> 		H   -1.682830   0.104106  -0.394729
| 20> 		H    0.669823   1.458958   0.408210
| 21> 		H    2.024726  -1.179327  -0.289839
| 22> 		H    2.741602   0.410314   0.167427
| 23> *
| 24>
| 25>                          ****END OF INPUT****

CARTESIAN COORDINATES (ANGSTROEM)
---------------------------------
  C     -0.563936   -0.407129   -0.093264
  O     -0.537967   -1.583972    0.070793
  C      0.621045    0.380630    0.062108
  C      1.768329   -0.173234   -0.050815
  H     -1.682830    0.104106   -0.394729
  H      0.669823    1.458958    0.408210
  H      2.024726   -1.179327   -0.289839
  H      2.741602    0.410314    0.167427

 Total Charge           Charge          ....    0
 Multiplicity           Mult            ....    1
 Number of Electrons    NEL             ....   30
 Basis Dimension        Dim             ....   24

ORBITAL ENERGIES
----------------

  NO   OCC          E(Eh)            E(eV)
   0   2.0000     -20.361255      -554.0579
   1   2.0000     -11.296497      -307.3933
   2   2.0000     -11.191788      -304.5440
   3   2.0000     -11.188841      -304.4638
   4   2.0000      -1.416366       -38.5413
   5   2.0000      -1.096152       -29.8278
   6   2.0000      -0.875869       -23.8336
   7   2.0000      -0.734347       -19.9826
   8   2.0000      -0.701360       -19.0850
   9   2.0000      -0.619395       -16.8546
  10   2.0000      -0.590159       -16.0591
  11   2.0000      -0.538414       -14.6510
  12   2.0000      -0.512096       -13.9348
  13   2.0000      -0.407526       -11.0893
  14   2.0000      -0.400231       -10.8908
  15   0.0000       0.151005         4.1091
  16   0.0000       0.318601         8.6696
  17   0.0000       0.468750        12.7553
  18   0.0000       0.568208        15.4617
  19   0.0000       0.641562        17.4578

MULLIKEN ATOMIC CHARGES
-----------------------
   0 C :    0.185210
   1 O :   -0.362570
   2 C :   -0.197386
   3 C :   -0.205054
   4 H :    0.131966
   5 H :    0.155330
   6 H :    0.152607
   7 H :    0.139896
Sum of atomic charges:    0.0000000

LOEWDIN ATOMIC CHARGES
----------------------
   0 C :    0.147711
   1 O :   -0.262070
   2 C :   -0.151247
   3 C :   -0.111410
   4 H :    0.080798
   5 H :    0.105588
   6 H :    0.096264
   7 H :    0.094368

  Mayer bond orders larger than 0.100000
B(  0-C ,  1-O ) :   1.9093 B(  0-C ,  2-C ) :   1.0294 B(  0-C ,  4-H ) :   0.9050
B(  2-C ,  3-C ) :   1.9563 B(  2-C ,  5-H ) :   0.9478 B(  3-C ,  6-H ) :   0.9605
B(  3-C ,  7-H ) :   0.9614

-----------------------------------------------------------------------------
         ABSORPTION SPECTRUM VIA TRANSITION ELECTRIC DIPOLE MOMENTS
-----------------------------------------------------------------------------
State   Energy    Wavelength  fosc         T2        TX        TY        TZ
        (cm-1)      (nm)                 (au**2)    (au)      (au)      (au)
-----------------------------------------------------------------------------
   1   34079.7    293.4   0.000042616   0.00041   0.01334   0.00018   0.01529

Dispersion correction           -0.025935003
FINAL SINGLE POINT ENERGY      -189.304506714103

DIPOLE MOMENT
-------------
                                X             Y             Z
Electronic contribution:     -2.04060      -1.60064       0.01756
Nuclear contribution   :      2.36409       2.53194      -0.10372
                        -----------------------------------------
Total Dipole Moment    :      0.32349       0.93130      -0.08617
                        -----------------------------------------
Magnitude (a.u.)       :      0.98964
Magnitude (Debye)      :      2.51545

Rotational constants in cm-1:     0.770434     0.224850     0.176602
Rotational constants in MHz : 23097.041823  6740.823255  5294.403871

                             ****ORCA TERMINATED NORMALLY****
TOTAL RUN TIME: 0 days 0 hours 0 minutes 16 seconds 46 msec
