                         Program Version 5.0.3 -  RELEASE  -
|  1> ! B3LYP cc-pVDZ
|  2> !TightSCF
|  3> %scf
|  4>  ConvForced true
|  5>  convergence tight
|  6>  MaxIter 500
|  7> end
|  8>
|  9> %tddft
| 10>  nroots 1
| 11> end
| 12>
| 13> # 	26844
| 14> * xyz 0 1
| 15> 		C   -0.579239  -0.389206  -0.003488
| 16> 		O   -0.580900  -1.639225   0.003837
| 17> 		C    0.592397   0.376881   0.013464
| 18> 		C    1.889344  -0.126859  -0.004882
| 19> 		H   -1.619072   0.051054  -0.111980
| 20> 		H    0.350148   1.575411   0.053018
| 21> 		H    2.070031  -1.243135   0.021864
| 22> 		H    2.701733   0.567930  -0.085405
| 23> *
| 24>
| 25>                          ****END OF INPUT****

CARTESIAN COORDINATES (ANGSTROEM)
---------------------------------
  C     -0.579239   -0.389206   -0.003488
  O     -0.580900   -1.639225    0.003837
  C      0.592397    0.376881    0.013464
  C      1.889344   -0.126859   -0.004882
  H     -1.619072    0.051054   -0.111980
  H      0.350148    1.575411    0.053018
  H      2.070031   -1.243135    0.021864
  H      2.701733    0.567930   -0.085405

 Total Charge           Charge          ....    0
 Multiplicity           Mult            ....    1
 Number of Electrons    NEL             ....   30
 Basis Dimension        Dim             ....   76

ORBITAL ENERGIES
----------------

  NO   OCC          E(Eh)            E(eV)
   0   2.0000     -19.128847      -520.5224
   1   2.0000     -10.269217      -279.4396
   2   2.0000     -10.231387      -278.4102
   3   2.0000     -10.222806      -278.1767
   4   2.0000      -1.020774       -27.7767
   5   2.0000      -0.791228       -21.5304
   6   2.0000      -0.669988       -18.2313
   7   2.0000      -0.533746       -14.5240
   8   2.0000      -0.497965       -13.5503
   9   2.0000      -0.443370       -12.0647
  10   2.0000      -0.423136       -11.5141
  11   2.0000      -0.390368       -10.6225
  12   2.0000      -0.369859       -10.0644
  13   2.0000      -0.280676        -7.6376
  14   2.0000      -0.250094        -6.8054
  15   0.0000      -0.086376        -2.3504
  16   0.0000       0.048323         1.3149
  17   0.0000       0.065060         1.7704
  18   0.0000       0.083801         2.2804
  19   0.0000       0.112303         3.0559

MULLIKEN ATOMIC CHARGES
-----------------------
   0 C :    0.177563
   1 O :   -0.230203
   2 C :   -0.142057
   3 C :    0.077863
   4 H :   -0.011708
   5 H :    0.024259
   6 H :    0.064061
   7 H :    0.040222
Sum of atomic charges:   -0.0000000

LOEWDIN ATOMIC CHARGES
----------------------
   0 C :   -0.043669
   1 O :   -0.047749
   2 C :   -0.087513
   3 C :    0.045080
   4 H :    0.006966
   5 H :    0.048556
   6 H :    0.048612
   7 H :    0.029717

  Mayer bond orders larger than 0.100000
B(  0-C ,  1-O ) :   2.1192 B(  0-C ,  2-C ) :   1.1195 B(  0-C ,  4-H ) :   0.9298
B(  1-O ,  3-C ) :   0.1267 B(  2-C ,  3-C ) :   1.9044 B(  2-C ,  5-H ) :   0.9290
B(  3-C ,  6-H ) :   0.9352 B(  3-C ,  7-H ) :   0.9393

-----------------------------------------------------------------------------
         ABSORPTION SPECTRUM VIA TRANSITION ELECTRIC DIPOLE MOMENTS
-----------------------------------------------------------------------------
State   Energy    Wavelength  fosc         T2        TX        TY        TZ
        (cm-1)      (nm)                 (au**2)    (au)      (au)      (au)
-----------------------------------------------------------------------------
   1   23271.9    429.7   0.000096940   0.00137   0.00248  -0.00220  -0.03688

FINAL SINGLE POINT ENERGY      -191.683328413757

DIPOLE MOMENT
-------------
                                X             Y             Z
Electronic contribution:     -1.61438      -1.75819       0.09568
Nuclear contribution   :      2.12938       2.67849      -0.11481
                        -----------------------------------------
Total Dipole Moment    :      0.51500       0.92030      -0.01914
                        -----------------------------------------
Magnitude (a.u.)       :      1.05477
Magnitude (Debye)      :      2.68102

Rotational constants in cm-1:     0.730147     0.208455     0.162240
Rotational constants in MHz : 21889.247530  6249.314544  4863.846249

                             ****ORCA TERMINATED NORMALLY****
TOTAL RUN TIME: 0 days 0 hours 3 minutes 21 seconds 69 msec
