                         Program Version 5.0.3 -  RELEASE  -
|  1> ! B3LYP cc-pVDZ
|  2> !TightSCF
|  3> %scf
|  4>  ConvForced true
|  5>  convergence tight
|  6>  MaxIter 500
|  7> end
|  8>
|  9> %tddft
| 10>  nroots 1
| 11> end
| 12>
| 13> # 	15874
| 14> * xyz 0 1
| 15> 		C   -1.292021  -0.368729   0.061694
| 16> 		O   -1.890572  -0.823073   0.888402
| 17> 		C   -0.082767   0.480882   0.207219
| 18> 		C    1.203738   0.055295  -0.149153
| 19> 		H   -1.251186  -0.606708  -0.833527
| 20> 		H   -0.107935   1.409278   0.804868
| 21> 		H    1.316860  -0.926003  -0.860810
| 22> 		H    2.037849   0.806573  -0.079147
| 23> *
| 24>
| 25>                          ****END OF INPUT****

CARTESIAN COORDINATES (ANGSTROEM)
---------------------------------
  C     -1.292021   -0.368729    0.061694
  O     -1.890572   -0.823073    0.888402
  C     -0.082767    0.480882    0.207219
  C      1.203738    0.055295   -0.149153
  H     -1.251186   -0.606708   -0.833527
  H     -0.107935    1.409278    0.804868
  H      1.316860   -0.926003   -0.860810
  H      2.037849    0.806573   -0.079147

 Total Charge           Charge          ....    0
 Multiplicity           Mult            ....    1
 Number of Electrons    NEL             ....   30
 Basis Dimension        Dim             ....   76

ORBITAL ENERGIES
----------------

  NO   OCC          E(Eh)            E(eV)
   0   2.0000     -19.145447      -520.9741
   1   2.0000     -10.259424      -279.1731
   2   2.0000     -10.224991      -278.2362
   3   2.0000     -10.202483      -277.6237
   4   2.0000      -1.107604       -30.1394
   5   2.0000      -0.783978       -21.3331
   6   2.0000      -0.661143       -17.9906
   7   2.0000      -0.574849       -15.6424
   8   2.0000      -0.483086       -13.1454
   9   2.0000      -0.472236       -12.8502
  10   2.0000      -0.444473       -12.0947
  11   2.0000      -0.412147       -11.2151
  12   2.0000      -0.374041       -10.1782
  13   2.0000      -0.275872        -7.5069
  14   2.0000      -0.254782        -6.9330
  15   0.0000      -0.049225        -1.3395
  16   0.0000       0.017412         0.4738
  17   0.0000       0.069254         1.8845
  18   0.0000       0.087059         2.3690
  19   0.0000       0.129114         3.5134

MULLIKEN ATOMIC CHARGES
-----------------------
   0 C :    0.290658
   1 O :   -0.108467
   2 C :   -0.140834
   3 C :   -0.067470
   4 H :   -0.090021
   5 H :    0.014546
   6 H :    0.047878
   7 H :    0.053709
Sum of atomic charges:   -0.0000000

LOEWDIN ATOMIC CHARGES
----------------------
   0 C :   -0.078928
   1 O :    0.118919
   2 C :   -0.054584
   3 C :   -0.049810
   4 H :   -0.047045
   5 H :    0.029338
   6 H :    0.043018
   7 H :    0.039092

  Mayer bond orders larger than 0.100000
B(  0-C ,  1-O ) :   2.3314 B(  0-C ,  2-C ) :   0.9821 B(  0-C ,  4-H ) :   0.9170
B(  2-C ,  3-C ) :   1.9937 B(  2-C ,  5-H ) :   0.9358 B(  3-C ,  6-H ) :   0.9412
B(  3-C ,  7-H ) :   0.9398

-----------------------------------------------------------------------------
         ABSORPTION SPECTRUM VIA TRANSITION ELECTRIC DIPOLE MOMENTS
-----------------------------------------------------------------------------
State   Energy    Wavelength  fosc         T2        TX        TY        TZ
        (cm-1)      (nm)                 (au**2)    (au)      (au)      (au)
-----------------------------------------------------------------------------
   1   32644.5    306.3   0.000286486   0.00289  -0.03800  -0.01317   0.03566

FINAL SINGLE POINT ENERGY      -191.579917941124

DIPOLE MOMENT
-------------
                                X             Y             Z
Electronic contribution:     -3.39557      -0.95761       1.33361
Nuclear contribution   :      3.87975       1.33222      -1.88179
                        -----------------------------------------
Total Dipole Moment    :      0.48418       0.37461      -0.54819
                        -----------------------------------------
Magnitude (a.u.)       :      0.82175
Magnitude (Debye)      :      2.08872

Rotational constants in cm-1:     1.208551     0.159565     0.153177
Rotational constants in MHz : 36231.442608  4783.648436  4592.133452

                             ****ORCA TERMINATED NORMALLY****
TOTAL RUN TIME: 0 days 0 hours 3 minutes 20 seconds 65 msec
