                         Program Version 5.0.3 -  RELEASE  -
|  1> ! HF-3c
|  2> !TightSCF
|  3> %scf
|  4>  ConvForced true
|  5>  convergence tight
|  6>  MaxIter 500
|  7> end
|  8>
|  9> %tddft
| 10>  nroots 1
| 11> end
| 12>
| 13> # 	10962
| 14> * xyz 0 1
| 15> 		C   -1.229306  -0.285234  -0.049890
| 16> 		O   -1.194773  -1.449921  -0.139104
| 17> 		C   -0.020960   0.508990  -0.028081
| 18> 		C    1.196142  -0.059251  -0.006151
| 19> 		H   -2.166080   0.273011   0.135141
| 20> 		H   -0.069885   1.700906   0.170131
| 21> 		H    1.254434  -1.111971  -0.005251
| 22> 		H    2.214768   0.502815  -0.091422
| 23> *
| 24>
| 25>                          ****END OF INPUT****

CARTESIAN COORDINATES (ANGSTROEM)
---------------------------------
  C     -1.229306   -0.285234   -0.049890
  O     -1.194773   -1.449921   -0.139104
  C     -0.020960    0.508990   -0.028081
  C      1.196142   -0.059251   -0.006151
  H     -2.166080    0.273011    0.135141
  H     -0.069885    1.700906    0.170131
  H      1.254434   -1.111971   -0.005251
  H      2.214768    0.502815   -0.091422

 Total Charge           Charge          ....    0
 Multiplicity           Mult            ....    1
 Number of Electrons    NEL             ....   30
 Basis Dimension        Dim             ....   24

ORBITAL ENERGIES
----------------

  NO   OCC          E(Eh)            E(eV)
   0   2.0000     -20.373716      -554.3970
   1   2.0000     -11.307078      -307.6812
   2   2.0000     -11.183947      -304.3307
   3   2.0000     -11.177176      -304.1464
   4   2.0000      -1.435670       -39.0666
   5   2.0000      -1.067816       -29.0567
   6   2.0000      -0.888434       -24.1755
   7   2.0000      -0.741254       -20.1705
   8   2.0000      -0.697542       -18.9811
   9   2.0000      -0.618991       -16.8436
  10   2.0000      -0.584296       -15.8995
  11   2.0000      -0.561232       -15.2719
  12   2.0000      -0.510361       -13.8876
  13   2.0000      -0.413804       -11.2602
  14   2.0000      -0.384307       -10.4575
  15   0.0000       0.135420         3.6850
  16   0.0000       0.323752         8.8097
  17   0.0000       0.501710        13.6522
  18   0.0000       0.584023        15.8921
  19   0.0000       0.656093        17.8532

MULLIKEN ATOMIC CHARGES
-----------------------
   0 C :    0.169322
   1 O :   -0.360949
   2 C :   -0.169126
   3 C :   -0.212999
   4 H :    0.135368
   5 H :    0.139711
   6 H :    0.150316
   7 H :    0.148355
Sum of atomic charges:    0.0000000

LOEWDIN ATOMIC CHARGES
----------------------
   0 C :    0.143535
   1 O :   -0.253538
   2 C :   -0.140282
   3 C :   -0.115748
   4 H :    0.070395
   5 H :    0.097844
   6 H :    0.094299
   7 H :    0.103494

  Mayer bond orders larger than 0.100000
B(  0-C ,  1-O ) :   1.9007 B(  0-C ,  2-C ) :   1.0323 B(  0-C ,  4-H ) :   0.9187
B(  2-C ,  3-C ) :   1.9371 B(  2-C ,  5-H ) :   0.9560 B(  3-C ,  6-H ) :   0.9606
B(  3-C ,  7-H ) :   0.9628

-----------------------------------------------------------------------------
         ABSORPTION SPECTRUM VIA TRANSITION ELECTRIC DIPOLE MOMENTS
-----------------------------------------------------------------------------
State   Energy    Wavelength  fosc         T2        TX        TY        TZ
        (cm-1)      (nm)                 (au**2)    (au)      (au)      (au)
-----------------------------------------------------------------------------
   1   34508.4    289.8   0.000038870   0.00037   0.01289   0.00480   0.01347

Dispersion correction           -0.025854799
FINAL SINGLE POINT ENERGY      -189.312505459137

DIPOLE MOMENT
-------------
                                X             Y             Z
Electronic contribution:     -2.04980      -1.66088      -0.27514
Nuclear contribution   :      2.38401       2.59257       0.39697
                        -----------------------------------------
Total Dipole Moment    :      0.33421       0.93169       0.12182
                        -----------------------------------------
Magnitude (a.u.)       :      0.99729
Magnitude (Debye)      :      2.53491

Rotational constants in cm-1:     0.761555     0.219686     0.170747
Rotational constants in MHz : 22830.847496  6586.007754  5118.862533

                             ****ORCA TERMINATED NORMALLY****
TOTAL RUN TIME: 0 days 0 hours 0 minutes 11 seconds 825 msec
