                         Program Version 5.0.3 -  RELEASE  -
|  1> ! HF-3c
|  2> !TightSCF
|  3> %scf
|  4>  ConvForced true
|  5>  convergence tight
|  6>  MaxIter 500
|  7> end
|  8>
|  9> %tddft
| 10>  nroots 1
| 11> end
| 12>
| 13> # 	17421
| 14> * xyz 0 1
| 15> 		C   -1.257632  -0.315583  -0.023535
| 16> 		O   -1.203917  -1.524211   0.103992
| 17> 		C    0.000024   0.496066   0.042377
| 18> 		C    1.232595  -0.053181  -0.012627
| 19> 		H   -2.200327   0.243821  -0.142689
| 20> 		H   -0.237848   1.472763   0.151966
| 21> 		H    1.471630  -0.993037  -0.082278
| 22> 		H    2.182071   0.645365  -0.096679
| 23> *
| 24>
| 25>                          ****END OF INPUT****

CARTESIAN COORDINATES (ANGSTROEM)
---------------------------------
  C     -1.257632   -0.315583   -0.023535
  O     -1.203917   -1.524211    0.103992
  C      0.000024    0.496066    0.042377
  C      1.232595   -0.053181   -0.012627
  H     -2.200327    0.243821   -0.142689
  H     -0.237848    1.472763    0.151966
  H      1.471630   -0.993037   -0.082278
  H      2.182071    0.645365   -0.096679

 Total Charge           Charge          ....    0
 Multiplicity           Mult            ....    1
 Number of Electrons    NEL             ....   30
 Basis Dimension        Dim             ....   24

ORBITAL ENERGIES
----------------

  NO   OCC          E(Eh)            E(eV)
   0   2.0000     -20.362688      -554.0969
   1   2.0000     -11.291862      -307.2672
   2   2.0000     -11.197114      -304.6890
   3   2.0000     -11.190700      -304.5144
   4   2.0000      -1.396538       -38.0017
   5   2.0000      -1.072305       -29.1789
   6   2.0000      -0.901270       -24.5248
   7   2.0000      -0.767720       -20.8907
   8   2.0000      -0.697999       -18.9935
   9   2.0000      -0.635184       -17.2842
  10   2.0000      -0.586478       -15.9589
  11   2.0000      -0.540960       -14.7203
  12   2.0000      -0.533296       -14.5117
  13   2.0000      -0.412444       -11.2232
  14   2.0000      -0.389631       -10.6024
  15   0.0000       0.129073         3.5122
  16   0.0000       0.295827         8.0499
  17   0.0000       0.506746        13.7892
  18   0.0000       0.645001        17.5514
  19   0.0000       0.704486        19.1700

MULLIKEN ATOMIC CHARGES
-----------------------
   0 C :    0.162187
   1 O :   -0.348589
   2 C :   -0.177825
   3 C :   -0.215701
   4 H :    0.139988
   5 H :    0.139158
   6 H :    0.151224
   7 H :    0.149557
Sum of atomic charges:    0.0000000

LOEWDIN ATOMIC CHARGES
----------------------
   0 C :    0.144315
   1 O :   -0.255437
   2 C :   -0.128226
   3 C :   -0.113680
   4 H :    0.076689
   5 H :    0.082296
   6 H :    0.088305
   7 H :    0.105738

  Mayer bond orders larger than 0.100000
B(  0-C ,  1-O ) :   1.9111 B(  0-C ,  2-C ) :   1.0191 B(  0-C ,  4-H ) :   0.9263
B(  2-C ,  3-C ) :   1.9499 B(  2-C ,  5-H ) :   0.9645 B(  3-C ,  6-H ) :   0.9668
B(  3-C ,  7-H ) :   0.9613

-----------------------------------------------------------------------------
         ABSORPTION SPECTRUM VIA TRANSITION ELECTRIC DIPOLE MOMENTS
-----------------------------------------------------------------------------
State   Energy    Wavelength  fosc         T2        TX        TY        TZ
        (cm-1)      (nm)                 (au**2)    (au)      (au)      (au)
-----------------------------------------------------------------------------
   1   31643.0    316.0   0.000012370   0.00013   0.01087   0.00165  -0.00277

Dispersion correction           -0.025552480
FINAL SINGLE POINT ENERGY      -189.322990565227

DIPOLE MOMENT
-------------
                                X             Y             Z
Electronic contribution:     -2.08149      -1.75515       0.14548
Nuclear contribution   :      2.35479       2.70499      -0.26298
                        -----------------------------------------
Total Dipole Moment    :      0.27330       0.94984      -0.11750
                        -----------------------------------------
Magnitude (a.u.)       :      0.99533
Magnitude (Debye)      :      2.52994

Rotational constants in cm-1:     0.752995     0.207758     0.163349
Rotational constants in MHz : 22574.236122  6228.436549  4897.084175

                             ****ORCA TERMINATED NORMALLY****
TOTAL RUN TIME: 0 days 0 hours 0 minutes 16 seconds 119 msec
