                         Program Version 5.0.3 -  RELEASE  -
|  1> ! HF-3c
|  2> !TightSCF
|  3> %scf
|  4>  ConvForced true
|  5>  convergence tight
|  6>  MaxIter 500
|  7> end
|  8>
|  9> %tddft
| 10>  nroots 1
| 11> end
| 12>
| 13> # 	2650
| 14> * xyz 0 1
| 15> 		C   -1.212864  -0.369170   0.030019
| 16> 		O   -1.737681  -1.108797   0.802832
| 17> 		C   -0.024570   0.496704   0.202439
| 18> 		C    1.161801   0.043724  -0.131606
| 19> 		H   -1.484679  -0.189426  -1.008123
| 20> 		H   -0.234268   1.515626   0.658431
| 21> 		H    1.374353  -1.026176  -0.534749
| 22> 		H    2.119680   0.649183  -0.059135
| 23> *
| 24>
| 25>                          ****END OF INPUT****

CARTESIAN COORDINATES (ANGSTROEM)
---------------------------------
  C     -1.212864   -0.369170    0.030019
  O     -1.737681   -1.108797    0.802832
  C     -0.024570    0.496704    0.202439
  C      1.161801    0.043724   -0.131606
  H     -1.484679   -0.189426   -1.008123
  H     -0.234268    1.515626    0.658431
  H      1.374353   -1.026176   -0.534749
  H      2.119680    0.649183   -0.059135

 Total Charge           Charge          ....    0
 Multiplicity           Mult            ....    1
 Number of Electrons    NEL             ....   30
 Basis Dimension        Dim             ....   24

ORBITAL ENERGIES
----------------

  NO   OCC          E(Eh)            E(eV)
   0   2.0000     -20.390404      -554.8511
   1   2.0000     -11.306977      -307.6785
   2   2.0000     -11.186099      -304.3892
   3   2.0000     -11.176156      -304.1187
   4   2.0000      -1.422083       -38.6968
   5   2.0000      -1.081452       -29.4278
   6   2.0000      -0.885743       -24.1023
   7   2.0000      -0.753117       -20.4934
   8   2.0000      -0.673676       -18.3317
   9   2.0000      -0.638076       -17.3629
  10   2.0000      -0.615588       -16.7510
  11   2.0000      -0.530126       -14.4255
  12   2.0000      -0.512829       -13.9548
  13   2.0000      -0.415451       -11.3050
  14   2.0000      -0.393298       -10.7022
  15   0.0000       0.192555         5.2397
  16   0.0000       0.229396         6.2422
  17   0.0000       0.518003        14.0956
  18   0.0000       0.600619        16.3437
  19   0.0000       0.629799        17.1377

MULLIKEN ATOMIC CHARGES
-----------------------
   0 C :    0.181153
   1 O :   -0.342649
   2 C :   -0.175732
   3 C :   -0.231077
   4 H :    0.136082
   5 H :    0.156322
   6 H :    0.138201
   7 H :    0.137700
Sum of atomic charges:   -0.0000000

LOEWDIN ATOMIC CHARGES
----------------------
   0 C :    0.160564
   1 O :   -0.239489
   2 C :   -0.134321
   3 C :   -0.150603
   4 H :    0.070166
   5 H :    0.107730
   6 H :    0.094285
   7 H :    0.091667

  Mayer bond orders larger than 0.100000
B(  0-C ,  1-O ) :   1.9581 B(  0-C ,  2-C ) :   0.9795 B(  0-C ,  4-H ) :   0.9136
B(  2-C ,  3-C ) :   2.0052 B(  2-C ,  5-H ) :   0.9428 B(  3-C ,  6-H ) :   0.9614
B(  3-C ,  7-H ) :   0.9612

-----------------------------------------------------------------------------
         ABSORPTION SPECTRUM VIA TRANSITION ELECTRIC DIPOLE MOMENTS
-----------------------------------------------------------------------------
State   Energy    Wavelength  fosc         T2        TX        TY        TZ
        (cm-1)      (nm)                 (au**2)    (au)      (au)      (au)
-----------------------------------------------------------------------------
   1   35712.6    280.0   0.000027490   0.00025  -0.01244   0.00993   0.00003

Dispersion correction           -0.025174505
FINAL SINGLE POINT ENERGY      -189.308792611138

DIPOLE MOMENT
-------------
                                X             Y             Z
Electronic contribution:     -2.87757      -1.25411       1.13949
Nuclear contribution   :      3.44869       1.86370      -1.75400
                        -----------------------------------------
Total Dipole Moment    :      0.57112       0.60959      -0.61452
                        -----------------------------------------
Magnitude (a.u.)       :      1.03702
Magnitude (Debye)      :      2.63589

Rotational constants in cm-1:     1.023964     0.167376     0.157940
Rotational constants in MHz : 30697.661881  5017.801528  4734.920233

                             ****ORCA TERMINATED NORMALLY****
TOTAL RUN TIME: 0 days 0 hours 0 minutes 16 seconds 73 msec
