                         Program Version 5.0.3 -  RELEASE  -
|  1> ! B3LYP cc-pVDZ
|  2> !TightSCF
|  3> %scf
|  4>  ConvForced true
|  5>  convergence tight
|  6>  MaxIter 500
|  7> end
|  8>
|  9> %tddft
| 10>  nroots 1
| 11> end
| 12>
| 13> # 	11217
| 14> * xyz 0 1
| 15> 		C   -1.227184  -0.422175  -0.030972
| 16> 		O   -2.197031  -0.297542  -0.694633
| 17> 		C    0.031557   0.519008  -0.344456
| 18> 		C    1.223964   0.164116   0.275565
| 19> 		H   -1.224556  -1.051867   0.751633
| 20> 		H   -0.063563   1.249742  -1.046044
| 21> 		H    1.307488  -0.791561   1.127175
| 22> 		H    2.089819   0.659156   0.006964
| 23> *
| 24>
| 25>                          ****END OF INPUT****

CARTESIAN COORDINATES (ANGSTROEM)
---------------------------------
  C     -1.227184   -0.422175   -0.030972
  O     -2.197031   -0.297542   -0.694633
  C      0.031557    0.519008   -0.344456
  C      1.223964    0.164116    0.275565
  H     -1.224556   -1.051867    0.751633
  H     -0.063563    1.249742   -1.046044
  H      1.307488   -0.791561    1.127175
  H      2.089819    0.659156    0.006964

 Total Charge           Charge          ....    0
 Multiplicity           Mult            ....    1
 Number of Electrons    NEL             ....   30
 Basis Dimension        Dim             ....   76

ORBITAL ENERGIES
----------------

  NO   OCC          E(Eh)            E(eV)
   0   2.0000     -19.136848      -520.7401
   1   2.0000     -10.271133      -279.4917
   2   2.0000     -10.226327      -278.2725
   3   2.0000     -10.208922      -277.7989
   4   2.0000      -1.062494       -28.9119
   5   2.0000      -0.775629       -21.1059
   6   2.0000      -0.632109       -17.2006
   7   2.0000      -0.587957       -15.9991
   8   2.0000      -0.477763       -13.0006
   9   2.0000      -0.464329       -12.6350
  10   2.0000      -0.420860       -11.4522
  11   2.0000      -0.401275       -10.9193
  12   2.0000      -0.385903       -10.5009
  13   2.0000      -0.281359        -7.6562
  14   2.0000      -0.251265        -6.8373
  15   0.0000      -0.053804        -1.4641
  16   0.0000       0.031932         0.8689
  17   0.0000       0.048378         1.3164
  18   0.0000       0.094557         2.5730
  19   0.0000       0.112778         3.0688

MULLIKEN ATOMIC CHARGES
-----------------------
   0 C :    0.224258
   1 O :   -0.176266
   2 C :   -0.048610
   3 C :   -0.012675
   4 H :   -0.047039
   5 H :   -0.020036
   6 H :    0.060536
   7 H :    0.019830
Sum of atomic charges:    0.0000000

LOEWDIN ATOMIC CHARGES
----------------------
   0 C :   -0.017157
   1 O :    0.026081
   2 C :   -0.035684
   3 C :   -0.019974
   4 H :   -0.024163
   5 H :    0.007337
   6 H :    0.055585
   7 H :    0.007973

  Mayer bond orders larger than 0.100000
B(  0-C ,  1-O ) :   2.2000 B(  0-C ,  2-C ) :   1.0134 B(  0-C ,  4-H ) :   0.9357
B(  2-C ,  3-C ) :   1.9284 B(  2-C ,  5-H ) :   0.9584 B(  3-C ,  6-H ) :   0.9414
B(  3-C ,  7-H ) :   0.9426

-----------------------------------------------------------------------------
         ABSORPTION SPECTRUM VIA TRANSITION ELECTRIC DIPOLE MOMENTS
-----------------------------------------------------------------------------
State   Energy    Wavelength  fosc         T2        TX        TY        TZ
        (cm-1)      (nm)                 (au**2)    (au)      (au)      (au)
-----------------------------------------------------------------------------
   1   30633.7    326.4   0.000375184   0.00403   0.04954   0.03906   0.00718

FINAL SINGLE POINT ENERGY      -191.626256000101

DIPOLE MOMENT
-------------
                                X             Y             Z
Electronic contribution:     -3.27628      -0.16875      -1.12838
Nuclear contribution   :      4.14265       0.16186       1.54808
                        -----------------------------------------
Total Dipole Moment    :      0.86637      -0.00689       0.41970
                        -----------------------------------------
Magnitude (a.u.)       :      0.96270
Magnitude (Debye)      :      2.44700

Rotational constants in cm-1:     1.348418     0.151606     0.136903
Rotational constants in MHz : 40424.551706  4545.020545  4104.260909

                             ****ORCA TERMINATED NORMALLY****
TOTAL RUN TIME: 0 days 0 hours 3 minutes 10 seconds 252 msec
