                         Program Version 5.0.3 -  RELEASE  -
|  1> ! HF-3c
|  2> !TightSCF
|  3> %scf
|  4>  ConvForced true
|  5>  convergence tight
|  6>  MaxIter 500
|  7> end
|  8>
|  9> %tddft
| 10>  nroots 1
| 11> end
| 12>
| 13> # 	6645
| 14> * xyz 0 1
| 15> 		C   -1.186710  -0.312887  -0.025454
| 16> 		O   -1.296906  -1.350893   0.496973
| 17> 		C    0.059307   0.459147   0.055979
| 18> 		C    1.225346   0.012927  -0.109243
| 19> 		H   -1.993003   0.211294  -0.521475
| 20> 		H   -0.113215   1.456825   0.570606
| 21> 		H    1.274653  -1.091697  -0.329725
| 22> 		H    2.103014   0.608467  -0.083762
| 23> *
| 24>
| 25>                          ****END OF INPUT****

CARTESIAN COORDINATES (ANGSTROEM)
---------------------------------
  C     -1.186710   -0.312887   -0.025454
  O     -1.296906   -1.350893    0.496973
  C      0.059307    0.459147    0.055979
  C      1.225346    0.012927   -0.109243
  H     -1.993003    0.211294   -0.521475
  H     -0.113215    1.456825    0.570606
  H      1.274653   -1.091697   -0.329725
  H      2.103014    0.608467   -0.083762

 Total Charge           Charge          ....    0
 Multiplicity           Mult            ....    1
 Number of Electrons    NEL             ....   30
 Basis Dimension        Dim             ....   24

ORBITAL ENERGIES
----------------

  NO   OCC          E(Eh)            E(eV)
   0   2.0000     -20.389295      -554.8209
   1   2.0000     -11.312622      -307.8321
   2   2.0000     -11.185861      -304.3828
   3   2.0000     -11.184137      -304.3359
   4   2.0000      -1.444066       -39.2950
   5   2.0000      -1.098247       -29.8848
   6   2.0000      -0.899327       -24.4719
   7   2.0000      -0.754739       -20.5375
   8   2.0000      -0.705063       -19.1857
   9   2.0000      -0.637597       -17.3499
  10   2.0000      -0.623070       -16.9546
  11   2.0000      -0.557411       -15.1679
  12   2.0000      -0.513527       -13.9738
  13   2.0000      -0.427367       -11.6292
  14   2.0000      -0.403888       -10.9903
  15   0.0000       0.172612         4.6970
  16   0.0000       0.278091         7.5672
  17   0.0000       0.549620        14.9559
  18   0.0000       0.642014        17.4701
  19   0.0000       0.653566        17.7844

MULLIKEN ATOMIC CHARGES
-----------------------
   0 C :    0.177952
   1 O :   -0.349030
   2 C :   -0.169906
   3 C :   -0.244200
   4 H :    0.138925
   5 H :    0.145039
   6 H :    0.152953
   7 H :    0.148268
Sum of atomic charges:    0.0000000

LOEWDIN ATOMIC CHARGES
----------------------
   0 C :    0.151007
   1 O :   -0.239134
   2 C :   -0.129977
   3 C :   -0.150104
   4 H :    0.071467
   5 H :    0.097334
   6 H :    0.104039
   7 H :    0.095368

  Mayer bond orders larger than 0.100000
B(  0-C ,  1-O ) :   1.9375 B(  0-C ,  2-C ) :   0.9922 B(  0-C ,  4-H ) :   0.9182
B(  2-C ,  3-C ) :   1.9973 B(  2-C ,  5-H ) :   0.9443 B(  3-C ,  6-H ) :   0.9538
B(  3-C ,  7-H ) :   0.9613

-----------------------------------------------------------------------------
         ABSORPTION SPECTRUM VIA TRANSITION ELECTRIC DIPOLE MOMENTS
-----------------------------------------------------------------------------
State   Energy    Wavelength  fosc         T2        TX        TY        TZ
        (cm-1)      (nm)                 (au**2)    (au)      (au)      (au)
-----------------------------------------------------------------------------
   1   36287.3    275.6   0.000047551   0.00043   0.00775  -0.00780  -0.01762

Dispersion correction           -0.026122796
FINAL SINGLE POINT ENERGY      -189.304820309284

DIPOLE MOMENT
-------------
                                X             Y             Z
Electronic contribution:     -2.17231      -1.55029       0.44795
Nuclear contribution   :      2.40283       2.33530      -0.78057
                        -----------------------------------------
Total Dipole Moment    :      0.23052       0.78501      -0.33262
                        -----------------------------------------
Magnitude (a.u.)       :      0.88318
Magnitude (Debye)      :      2.24488

Rotational constants in cm-1:     0.885404     0.201214     0.171087
Rotational constants in MHz : 26543.743918  6032.234982  5129.074177

                             ****ORCA TERMINATED NORMALLY****
TOTAL RUN TIME: 0 days 0 hours 0 minutes 10 seconds 386 msec
