                         Program Version 5.0.3 -  RELEASE  -
|  1> ! B3LYP cc-pVDZ
|  2> !TightSCF
|  3> %scf
|  4>  ConvForced true
|  5>  convergence tight
|  6>  MaxIter 500
|  7> end
|  8>
|  9> %tddft
| 10>  nroots 1
| 11> end
| 12>
| 13> # 	4948
| 14> * xyz 0 1
| 15> 		C   -1.204365  -0.239491   0.015253
| 16> 		O   -1.501306  -1.195543   0.751247
| 17> 		C   -0.021686   0.573791   0.174727
| 18> 		C    1.192617   0.033906  -0.114512
| 19> 		H   -1.724331  -0.060063  -1.043335
| 20> 		H   -0.086940   1.475333   0.766839
| 21> 		H    1.088624  -1.035318  -0.525379
| 22> 		H    2.269453   0.459037  -0.056049
| 23> *
| 24>
| 25>                          ****END OF INPUT****

CARTESIAN COORDINATES (ANGSTROEM)
---------------------------------
  C     -1.204365   -0.239491    0.015253
  O     -1.501306   -1.195543    0.751247
  C     -0.021686    0.573791    0.174727
  C      1.192617    0.033906   -0.114512
  H     -1.724331   -0.060063   -1.043335
  H     -0.086940    1.475333    0.766839
  H      1.088624   -1.035318   -0.525379
  H      2.269453    0.459037   -0.056049

 Total Charge           Charge          ....    0
 Multiplicity           Mult            ....    1
 Number of Electrons    NEL             ....   30
 Basis Dimension        Dim             ....   76

ORBITAL ENERGIES
----------------

  NO   OCC          E(Eh)            E(eV)
   0   2.0000     -19.151812      -521.1473
   1   2.0000     -10.291511      -280.0463
   2   2.0000     -10.221811      -278.1496
   3   2.0000     -10.209705      -277.8202
   4   2.0000      -1.038689       -28.2642
   5   2.0000      -0.798533       -21.7292
   6   2.0000      -0.649176       -17.6650
   7   2.0000      -0.551782       -15.0147
   8   2.0000      -0.487083       -13.2542
   9   2.0000      -0.455697       -12.4001
  10   2.0000      -0.441643       -12.0177
  11   2.0000      -0.378783       -10.3072
  12   2.0000      -0.367965       -10.0128
  13   2.0000      -0.283167        -7.7054
  14   2.0000      -0.260324        -7.0838
  15   0.0000      -0.047081        -1.2811
  16   0.0000      -0.021713        -0.5908
  17   0.0000       0.077011         2.0956
  18   0.0000       0.083818         2.2808
  19   0.0000       0.093897         2.5551

MULLIKEN ATOMIC CHARGES
-----------------------
   0 C :    0.144814
   1 O :   -0.195239
   2 C :   -0.049341
   3 C :   -0.028366
   4 H :    0.009375
   5 H :    0.022053
   6 H :    0.038157
   7 H :    0.058547
Sum of atomic charges:    0.0000000

LOEWDIN ATOMIC CHARGES
----------------------
   0 C :   -0.011615
   1 O :   -0.013517
   2 C :   -0.070603
   3 C :   -0.030128
   4 H :    0.007079
   5 H :    0.035351
   6 H :    0.037742
   7 H :    0.045691

  Mayer bond orders larger than 0.100000
B(  0-C ,  1-O ) :   2.2011 B(  0-C ,  2-C ) :   0.9961 B(  0-C ,  4-H ) :   0.8963
B(  2-C ,  3-C ) :   1.9989 B(  2-C ,  5-H ) :   0.9397 B(  3-C ,  6-H ) :   0.9400
B(  3-C ,  7-H ) :   0.9504

-----------------------------------------------------------------------------
         ABSORPTION SPECTRUM VIA TRANSITION ELECTRIC DIPOLE MOMENTS
-----------------------------------------------------------------------------
State   Energy    Wavelength  fosc         T2        TX        TY        TZ
        (cm-1)      (nm)                 (au**2)    (au)      (au)      (au)
-----------------------------------------------------------------------------
   1   31274.6    319.7   0.000342945   0.00361   0.03753   0.00868   0.04611

FINAL SINGLE POINT ENERGY      -191.636029167104

DIPOLE MOMENT
-------------
                                X             Y             Z
Electronic contribution:     -2.47969      -0.99745       1.19844
Nuclear contribution   :      2.96528       1.70078      -1.60426
                        -----------------------------------------
Total Dipole Moment    :      0.48559       0.70333      -0.40583
                        -----------------------------------------
Magnitude (a.u.)       :      0.94613
Magnitude (Debye)      :      2.40488

Rotational constants in cm-1:     0.830680     0.183018     0.165397
Rotational constants in MHz : 24903.155287  5486.753362  4958.481013

                             ****ORCA TERMINATED NORMALLY****
TOTAL RUN TIME: 0 days 0 hours 3 minutes 22 seconds 61 msec
