                         Program Version 5.0.3 -  RELEASE  -
|  1> ! B3LYP cc-pVDZ
|  2> !TightSCF
|  3> %scf
|  4>  ConvForced true
|  5>  convergence tight
|  6>  MaxIter 500
|  7> end
|  8>
|  9> %tddft
| 10>  nroots 1
| 11> end
| 12>
| 13> # 	15470
| 14> * xyz 0 1
| 15> 		C   -1.176725  -0.311384  -0.013472
| 16> 		O   -1.621771  -1.087258   0.828218
| 17> 		C    0.097746   0.478067   0.267708
| 18> 		C    1.253483   0.010022  -0.158441
| 19> 		H   -1.756592  -0.284162  -0.993479
| 20> 		H   -0.145079   1.381991   0.777552
| 21> 		H    1.341176  -0.871632  -0.660498
| 22> 		H    1.995279   0.646802  -0.082197
| 23> *
| 24>
| 25>                          ****END OF INPUT****

CARTESIAN COORDINATES (ANGSTROEM)
---------------------------------
  C     -1.176725   -0.311384   -0.013472
  O     -1.621771   -1.087258    0.828218
  C      0.097746    0.478067    0.267708
  C      1.253483    0.010022   -0.158441
  H     -1.756592   -0.284162   -0.993479
  H     -0.145079    1.381991    0.777552
  H      1.341176   -0.871632   -0.660498
  H      1.995279    0.646802   -0.082197

 Total Charge           Charge          ....    0
 Multiplicity           Mult            ....    1
 Number of Electrons    NEL             ....   30
 Basis Dimension        Dim             ....   76

ORBITAL ENERGIES
----------------

  NO   OCC          E(Eh)            E(eV)
   0   2.0000     -19.139623      -520.8156
   1   2.0000     -10.280240      -279.7396
   2   2.0000     -10.206775      -277.7405
   3   2.0000     -10.186757      -277.1957
   4   2.0000      -1.038286       -28.2532
   5   2.0000      -0.801837       -21.8191
   6   2.0000      -0.651582       -17.7304
   7   2.0000      -0.562865       -15.3163
   8   2.0000      -0.502827       -13.6826
   9   2.0000      -0.463109       -12.6018
  10   2.0000      -0.438412       -11.9298
  11   2.0000      -0.399340       -10.8666
  12   2.0000      -0.369485       -10.0542
  13   2.0000      -0.291702        -7.9376
  14   2.0000      -0.247382        -6.7316
  15   0.0000      -0.035302        -0.9606
  16   0.0000      -0.006827        -0.1858
  17   0.0000       0.089488         2.4351
  18   0.0000       0.094437         2.5698
  19   0.0000       0.105761         2.8779

MULLIKEN ATOMIC CHARGES
-----------------------
   0 C :    0.128849
   1 O :   -0.199922
   2 C :   -0.088555
   3 C :    0.169624
   4 H :    0.003504
   5 H :    0.007378
   6 H :   -0.007451
   7 H :   -0.013426
Sum of atomic charges:    0.0000000

LOEWDIN ATOMIC CHARGES
----------------------
   0 C :   -0.006732
   1 O :   -0.015940
   2 C :   -0.032382
   3 C :    0.003962
   4 H :    0.000923
   5 H :    0.029638
   6 H :    0.015370
   7 H :    0.005161

  Mayer bond orders larger than 0.100000
B(  0-C ,  1-O ) :   2.1951 B(  0-C ,  2-C ) :   0.9709 B(  0-C ,  4-H ) :   0.9195
B(  2-C ,  3-C ) :   2.0444 B(  2-C ,  5-H ) :   0.9443 B(  3-C ,  6-H ) :   0.9415
B(  3-C ,  7-H ) :   0.9375

-----------------------------------------------------------------------------
         ABSORPTION SPECTRUM VIA TRANSITION ELECTRIC DIPOLE MOMENTS
-----------------------------------------------------------------------------
State   Energy    Wavelength  fosc         T2        TX        TY        TZ
        (cm-1)      (nm)                 (au**2)    (au)      (au)      (au)
-----------------------------------------------------------------------------
   1   31290.8    319.6   0.000414351   0.00436  -0.05307   0.00557   0.03888

FINAL SINGLE POINT ENERGY      -191.631304893405

DIPOLE MOMENT
-------------
                                X             Y             Z
Electronic contribution:     -2.34424      -1.13145       1.21527
Nuclear contribution   :      2.82767       1.77013      -1.78994
                        -----------------------------------------
Total Dipole Moment    :      0.48344       0.63868      -0.57466
                        -----------------------------------------
Magnitude (a.u.)       :      0.98583
Magnitude (Debye)      :      2.50578

Rotational constants in cm-1:     0.976447     0.167991     0.161506
Rotational constants in MHz : 29273.137475  5036.234804  4841.833086

                             ****ORCA TERMINATED NORMALLY****
TOTAL RUN TIME: 0 days 0 hours 3 minutes 21 seconds 655 msec
