                         Program Version 5.0.3 -  RELEASE  -
|  1> ! HF-3c
|  2> !TightSCF
|  3> %scf
|  4>  ConvForced true
|  5>  convergence tight
|  6>  MaxIter 500
|  7> end
|  8>
|  9> %tddft
| 10>  nroots 1
| 11> end
| 12>
| 13> # 	11548
| 14> * xyz 0 1
| 15> 		C   -1.191876  -0.332438  -0.042934
| 16> 		O   -1.599072  -1.175018  -0.818088
| 17> 		C    0.018046   0.534743  -0.199122
| 18> 		C    1.194166   0.044808   0.157129
| 19> 		H   -1.738503  -0.106338   0.938206
| 20> 		H   -0.108268   1.400524  -0.793486
| 21> 		H    1.201225  -0.861667   0.776457
| 22> 		H    2.248541   0.507141  -0.025009
| 23> *
| 24>
| 25>                          ****END OF INPUT****

CARTESIAN COORDINATES (ANGSTROEM)
---------------------------------
  C     -1.191876   -0.332438   -0.042934
  O     -1.599072   -1.175018   -0.818088
  C      0.018046    0.534743   -0.199122
  C      1.194166    0.044808    0.157129
  H     -1.738503   -0.106338    0.938206
  H     -0.108268    1.400524   -0.793486
  H      1.201225   -0.861667    0.776457
  H      2.248541    0.507141   -0.025009

 Total Charge           Charge          ....    0
 Multiplicity           Mult            ....    1
 Number of Electrons    NEL             ....   30
 Basis Dimension        Dim             ....   24

ORBITAL ENERGIES
----------------

  NO   OCC          E(Eh)            E(eV)
   0   2.0000     -20.378349      -554.5231
   1   2.0000     -11.299076      -307.4635
   2   2.0000     -11.189434      -304.4800
   3   2.0000     -11.183838      -304.3277
   4   2.0000      -1.402793       -38.1719
   5   2.0000      -1.081994       -29.4426
   6   2.0000      -0.874311       -23.7912
   7   2.0000      -0.761735       -20.7279
   8   2.0000      -0.676620       -18.4118
   9   2.0000      -0.631200       -17.1758
  10   2.0000      -0.607454       -16.5297
  11   2.0000      -0.537623       -14.6295
  12   2.0000      -0.504179       -13.7194
  13   2.0000      -0.417149       -11.3512
  14   2.0000      -0.395223       -10.7546
  15   0.0000       0.190691         5.1890
  16   0.0000       0.211760         5.7623
  17   0.0000       0.524578        14.2745
  18   0.0000       0.607816        16.5395
  19   0.0000       0.635833        17.3019

MULLIKEN ATOMIC CHARGES
-----------------------
   0 C :    0.182432
   1 O :   -0.343201
   2 C :   -0.185892
   3 C :   -0.221507
   4 H :    0.132786
   5 H :    0.152401
   6 H :    0.135137
   7 H :    0.147844
Sum of atomic charges:   -0.0000000

LOEWDIN ATOMIC CHARGES
----------------------
   0 C :    0.161705
   1 O :   -0.248269
   2 C :   -0.137753
   3 C :   -0.135139
   4 H :    0.072536
   5 H :    0.097605
   6 H :    0.086897
   7 H :    0.102418

  Mayer bond orders larger than 0.100000
B(  0-C ,  1-O ) :   1.9564 B(  0-C ,  2-C ) :   0.9794 B(  0-C ,  4-H ) :   0.9141
B(  2-C ,  3-C ) :   1.9982 B(  2-C ,  5-H ) :   0.9501 B(  3-C ,  6-H ) :   0.9649
B(  3-C ,  7-H ) :   0.9595

-----------------------------------------------------------------------------
         ABSORPTION SPECTRUM VIA TRANSITION ELECTRIC DIPOLE MOMENTS
-----------------------------------------------------------------------------
State   Energy    Wavelength  fosc         T2        TX        TY        TZ
        (cm-1)      (nm)                 (au**2)    (au)      (au)      (au)
-----------------------------------------------------------------------------
   1   34686.1    288.3   0.000012545   0.00012  -0.00928   0.00398   0.00413

Dispersion correction           -0.025145781
FINAL SINGLE POINT ENERGY      -189.319101553320

DIPOLE MOMENT
-------------
                                X             Y             Z
Electronic contribution:     -2.54471      -1.22071      -1.11712
Nuclear contribution   :      3.07446       1.86438       1.71606
                        -----------------------------------------
Total Dipole Moment    :      0.52975       0.64367       0.59894
                        -----------------------------------------
Magnitude (a.u.)       :      1.02649
Magnitude (Debye)      :      2.60912

Rotational constants in cm-1:     0.939286     0.170341     0.160055
Rotational constants in MHz : 28159.090493  5106.696546  4798.332167

                             ****ORCA TERMINATED NORMALLY****
TOTAL RUN TIME: 0 days 0 hours 0 minutes 14 seconds 184 msec
