                         Program Version 5.0.3 -  RELEASE  -
|  1> ! B3LYP cc-pVDZ
|  2> !TightSCF
|  3> %scf
|  4>  ConvForced true
|  5>  convergence tight
|  6>  MaxIter 500
|  7> end
|  8>
|  9> %tddft
| 10>  nroots 1
| 11> end
| 12>
| 13> # 	7781
| 14> * xyz 0 1
| 15> 		C   -1.115718  -0.256109  -0.041350
| 16> 		O   -1.178364  -1.505802  -0.214772
| 17> 		C    0.076696   0.543749  -0.162491
| 18> 		C    1.259031  -0.028761  -0.055324
| 19> 		H   -2.111483   0.187965   0.269516
| 20> 		H   -0.180463   1.602623  -0.050426
| 21> 		H    1.319863  -1.132226   0.104855
| 22> 		H    1.926801   0.614758   0.115416
| 23> *
| 24>
| 25>                          ****END OF INPUT****

CARTESIAN COORDINATES (ANGSTROEM)
---------------------------------
  C     -1.115718   -0.256109   -0.041350
  O     -1.178364   -1.505802   -0.214772
  C      0.076696    0.543749   -0.162491
  C      1.259031   -0.028761   -0.055324
  H     -2.111483    0.187965    0.269516
  H     -0.180463    1.602623   -0.050426
  H      1.319863   -1.132226    0.104855
  H      1.926801    0.614758    0.115416

 Total Charge           Charge          ....    0
 Multiplicity           Mult            ....    1
 Number of Electrons    NEL             ....   30
 Basis Dimension        Dim             ....   76

ORBITAL ENERGIES
----------------

  NO   OCC          E(Eh)            E(eV)
   0   2.0000     -19.129710      -520.5459
   1   2.0000     -10.270584      -279.4768
   2   2.0000     -10.206582      -277.7352
   3   2.0000     -10.204976      -277.6915
   4   2.0000      -1.012752       -27.5584
   5   2.0000      -0.814821       -22.1724
   6   2.0000      -0.673103       -18.3161
   7   2.0000      -0.535901       -14.5826
   8   2.0000      -0.522719       -14.2239
   9   2.0000      -0.446385       -12.1468
  10   2.0000      -0.422470       -11.4960
  11   2.0000      -0.385378       -10.4867
  12   2.0000      -0.381889       -10.3917
  13   2.0000      -0.290835        -7.9140
  14   2.0000      -0.248524        -6.7627
  15   0.0000      -0.075611        -2.0575
  16   0.0000       0.051026         1.3885
  17   0.0000       0.066831         1.8186
  18   0.0000       0.096716         2.6318
  19   0.0000       0.120904         3.2900

MULLIKEN ATOMIC CHARGES
-----------------------
   0 C :    0.153784
   1 O :   -0.243346
   2 C :   -0.110366
   3 C :    0.192494
   4 H :   -0.008941
   5 H :   -0.005858
   6 H :    0.052008
   7 H :   -0.029775
Sum of atomic charges:   -0.0000000

LOEWDIN ATOMIC CHARGES
----------------------
   0 C :   -0.012655
   1 O :   -0.064342
   2 C :   -0.067543
   3 C :    0.063753
   4 H :    0.004867
   5 H :    0.034229
   6 H :    0.052748
   7 H :   -0.011057

  Mayer bond orders larger than 0.100000
B(  0-C ,  1-O ) :   2.1146 B(  0-C ,  2-C ) :   1.0930 B(  0-C ,  4-H ) :   0.9286
B(  2-C ,  3-C ) :   1.9363 B(  2-C ,  5-H ) :   0.9435 B(  3-C ,  6-H ) :   0.9319
B(  3-C ,  7-H ) :   0.9228

-----------------------------------------------------------------------------
         ABSORPTION SPECTRUM VIA TRANSITION ELECTRIC DIPOLE MOMENTS
-----------------------------------------------------------------------------
State   Energy    Wavelength  fosc         T2        TX        TY        TZ
        (cm-1)      (nm)                 (au**2)    (au)      (au)      (au)
-----------------------------------------------------------------------------
   1   24995.1    400.1   0.000148250   0.00195   0.02733   0.01304   0.03218

FINAL SINGLE POINT ENERGY      -191.658584916546

DIPOLE MOMENT
-------------
                                X             Y             Z
Electronic contribution:     -1.42738      -1.51873      -0.58372
Nuclear contribution   :      1.90291       2.49589       0.81935
                        -----------------------------------------
Total Dipole Moment    :      0.47553       0.97716       0.23563
                        -----------------------------------------
Magnitude (a.u.)       :      1.11198
Magnitude (Debye)      :      2.82642

Rotational constants in cm-1:     0.755826     0.213833     0.168122
Rotational constants in MHz : 22659.105792  6410.553444  5040.158089

                             ****ORCA TERMINATED NORMALLY****
TOTAL RUN TIME: 0 days 0 hours 3 minutes 20 seconds 483 msec
