                         Program Version 5.0.3 -  RELEASE  -
|  1> ! B3LYP cc-pVDZ
|  2> !TightSCF
|  3> %scf
|  4>  ConvForced true
|  5>  convergence tight
|  6>  MaxIter 500
|  7> end
|  8>
|  9> %tddft
| 10>  nroots 1
| 11> end
| 12>
| 13> # 	32337
| 14> * xyz 0 1
| 15> 		C   -0.640542  -0.456387  -0.010864
| 16> 		O   -0.572096  -1.632313   0.014967
| 17> 		C    0.629192   0.419950   0.003579
| 18> 		C    1.890786  -0.107664  -0.029654
| 19> 		H   -1.645746   0.073516  -0.077563
| 20> 		H    0.517266   1.522270   0.108395
| 21> 		H    1.975666  -1.195805  -0.015954
| 22> 		H    2.787100   0.471076   0.205007
| 23> *
| 24>
| 25>                          ****END OF INPUT****

CARTESIAN COORDINATES (ANGSTROEM)
---------------------------------
  C     -0.640542   -0.456387   -0.010864
  O     -0.572096   -1.632313    0.014967
  C      0.629192    0.419950    0.003579
  C      1.890786   -0.107664   -0.029654
  H     -1.645746    0.073516   -0.077563
  H      0.517266    1.522270    0.108395
  H      1.975666   -1.195805   -0.015954
  H      2.787100    0.471076    0.205007

 Total Charge           Charge          ....    0
 Multiplicity           Mult            ....    1
 Number of Electrons    NEL             ....   30
 Basis Dimension        Dim             ....   76

ORBITAL ENERGIES
----------------

  NO   OCC          E(Eh)            E(eV)
   0   2.0000     -19.143322      -520.9163
   1   2.0000     -10.282188      -279.7926
   2   2.0000     -10.211549      -277.8704
   3   2.0000     -10.209869      -277.8247
   4   2.0000      -1.069047       -29.0902
   5   2.0000      -0.777721       -21.1629
   6   2.0000      -0.643406       -17.5080
   7   2.0000      -0.542236       -14.7550
   8   2.0000      -0.501463       -13.6455
   9   2.0000      -0.447591       -12.1796
  10   2.0000      -0.429542       -11.6884
  11   2.0000      -0.407921       -11.1001
  12   2.0000      -0.377977       -10.2853
  13   2.0000      -0.281698        -7.6654
  14   2.0000      -0.258726        -7.0403
  15   0.0000      -0.066000        -1.7960
  16   0.0000       0.054120         1.4727
  17   0.0000       0.070559         1.9200
  18   0.0000       0.092790         2.5249
  19   0.0000       0.115173         3.1340

MULLIKEN ATOMIC CHARGES
-----------------------
   0 C :    0.174245
   1 O :   -0.155493
   2 C :   -0.140040
   3 C :    0.058616
   4 H :   -0.011517
   5 H :   -0.001648
   6 H :    0.036672
   7 H :    0.039165
Sum of atomic charges:    0.0000000

LOEWDIN ATOMIC CHARGES
----------------------
   0 C :   -0.047853
   1 O :    0.031277
   2 C :   -0.080490
   3 C :    0.012432
   4 H :   -0.003696
   5 H :    0.025856
   6 H :    0.029869
   7 H :    0.032605

  Mayer bond orders larger than 0.100000
B(  0-C ,  1-O ) :   2.2295 B(  0-C ,  2-C ) :   0.9953 B(  0-C ,  4-H ) :   0.9080
B(  2-C ,  3-C ) :   1.9763 B(  2-C ,  5-H ) :   0.9430 B(  3-C ,  6-H ) :   0.9359
B(  3-C ,  7-H ) :   0.9475

-----------------------------------------------------------------------------
         ABSORPTION SPECTRUM VIA TRANSITION ELECTRIC DIPOLE MOMENTS
-----------------------------------------------------------------------------
State   Energy    Wavelength  fosc         T2        TX        TY        TZ
        (cm-1)      (nm)                 (au**2)    (au)      (au)      (au)
-----------------------------------------------------------------------------
   1   29634.7    337.4   0.000089799   0.00100   0.02009   0.01037   0.02206

FINAL SINGLE POINT ENERGY      -191.668009547109

DIPOLE MOMENT
-------------
                                X             Y             Z
Electronic contribution:     -1.97904      -1.81737      -0.15067
Nuclear contribution   :      2.25308       2.60532       0.20534
                        -----------------------------------------
Total Dipole Moment    :      0.27404       0.78795       0.05467
                        -----------------------------------------
Magnitude (a.u.)       :      0.83603
Magnitude (Debye)      :      2.12503

Rotational constants in cm-1:     0.754624     0.201519     0.159275
Rotational constants in MHz : 22623.071973  6041.382287  4774.955987

                             ****ORCA TERMINATED NORMALLY****
TOTAL RUN TIME: 0 days 0 hours 3 minutes 23 seconds 491 msec
