                         Program Version 5.0.3 -  RELEASE  -
|  1> ! HF-3c
|  2> !TightSCF
|  3> %scf
|  4>  ConvForced true
|  5>  convergence tight
|  6>  MaxIter 500
|  7> end
|  8>
|  9> %tddft
| 10>  nroots 1
| 11> end
| 12>
| 13> # 	29857
| 14> * xyz 0 1
| 15> 		C   -0.568302  -0.410375   0.037635
| 16> 		O   -0.576327  -1.641914  -0.005929
| 17> 		C    0.588037   0.405550  -0.072112
| 18> 		C    1.850811  -0.139305   0.009017
| 19> 		H   -1.548638   0.232430   0.079235
| 20> 		H    0.508009   1.458227   0.130109
| 21> 		H    2.083910  -1.117177  -0.066277
| 22> 		H    2.763999   0.487687   0.274181
| 23> *
| 24>
| 25>                          ****END OF INPUT****

CARTESIAN COORDINATES (ANGSTROEM)
---------------------------------
  C     -0.568302   -0.410375    0.037635
  O     -0.576327   -1.641914   -0.005929
  C      0.588037    0.405550   -0.072112
  C      1.850811   -0.139305    0.009017
  H     -1.548638    0.232430    0.079235
  H      0.508009    1.458227    0.130109
  H      2.083910   -1.117177   -0.066277
  H      2.763999    0.487687    0.274181

 Total Charge           Charge          ....    0
 Multiplicity           Mult            ....    1
 Number of Electrons    NEL             ....   30
 Basis Dimension        Dim             ....   24

ORBITAL ENERGIES
----------------

  NO   OCC          E(Eh)            E(eV)
   0   2.0000     -20.349325      -553.7333
   1   2.0000     -11.288602      -307.1785
   2   2.0000     -11.201692      -304.8135
   3   2.0000     -11.189045      -304.4694
   4   2.0000      -1.379181       -37.5294
   5   2.0000      -1.078394       -29.3446
   6   2.0000      -0.903596       -24.5881
   7   2.0000      -0.749292       -20.3893
   8   2.0000      -0.695588       -18.9279
   9   2.0000      -0.616218       -16.7682
  10   2.0000      -0.575954       -15.6725
  11   2.0000      -0.537703       -14.6317
  12   2.0000      -0.533612       -14.5203
  13   2.0000      -0.408213       -11.1080
  14   2.0000      -0.378988       -10.3128
  15   0.0000       0.111241         3.0270
  16   0.0000       0.304749         8.2926
  17   0.0000       0.531942        14.4749
  18   0.0000       0.621341        16.9076
  19   0.0000       0.664411        18.0796

MULLIKEN ATOMIC CHARGES
-----------------------
   0 C :    0.161588
   1 O :   -0.356379
   2 C :   -0.189414
   3 C :   -0.192258
   4 H :    0.132392
   5 H :    0.143969
   6 H :    0.152490
   7 H :    0.147612
Sum of atomic charges:    0.0000000

LOEWDIN ATOMIC CHARGES
----------------------
   0 C :    0.144642
   1 O :   -0.270778
   2 C :   -0.146610
   3 C :   -0.085572
   4 H :    0.075493
   5 H :    0.091331
   6 H :    0.091446
   7 H :    0.100048

  Mayer bond orders larger than 0.100000
B(  0-C ,  1-O ) :   1.8786 B(  0-C ,  2-C ) :   1.0705 B(  0-C ,  4-H ) :   0.9177
B(  2-C ,  3-C ) :   1.8994 B(  2-C ,  5-H ) :   0.9599 B(  3-C ,  6-H ) :   0.9662
B(  3-C ,  7-H ) :   0.9656

-----------------------------------------------------------------------------
         ABSORPTION SPECTRUM VIA TRANSITION ELECTRIC DIPOLE MOMENTS
-----------------------------------------------------------------------------
State   Energy    Wavelength  fosc         T2        TX        TY        TZ
        (cm-1)      (nm)                 (au**2)    (au)      (au)      (au)
-----------------------------------------------------------------------------
   1   30612.9    326.7   0.000300727   0.00323   0.05645  -0.00331   0.00603

Dispersion correction           -0.025661369
FINAL SINGLE POINT ENERGY      -189.329271277549

DIPOLE MOMENT
-------------
                                X             Y             Z
Electronic contribution:     -1.96068      -1.77518      -0.25564
Nuclear contribution   :      2.41532       2.78100       0.39003
                        -----------------------------------------
Total Dipole Moment    :      0.45464       1.00583       0.13439
                        -----------------------------------------
Magnitude (a.u.)       :      1.11196
Magnitude (Debye)      :      2.82637

Rotational constants in cm-1:     0.738383     0.211511     0.165008
Rotational constants in MHz : 22136.155160  6340.944543  4946.826155

                             ****ORCA TERMINATED NORMALLY****
TOTAL RUN TIME: 0 days 0 hours 0 minutes 16 seconds 94 msec
