                         Program Version 5.0.3 -  RELEASE  -
|  1> ! B3LYP cc-pVDZ
|  2> !TightSCF
|  3> %scf
|  4>  ConvForced true
|  5>  convergence tight
|  6>  MaxIter 500
|  7> end
|  8>
|  9> %tddft
| 10>  nroots 1
| 11> end
| 12>
| 13> # 	15997
| 14> * xyz 0 1
| 15> 		C   -1.179255  -0.292516  -0.031437
| 16> 		O   -2.125762  -0.285889  -0.948563
| 17> 		C    0.019439   0.415346  -0.239561
| 18> 		C    1.179828   0.044174   0.251419
| 19> 		H   -1.207283  -1.011608   0.896346
| 20> 		H    0.193301   1.127910  -1.175134
| 21> 		H    0.976498  -0.742183   1.063317
| 22> 		H    2.123387   0.714448   0.254791
| 23> *
| 24>
| 25>                          ****END OF INPUT****

CARTESIAN COORDINATES (ANGSTROEM)
---------------------------------
  C     -1.179255   -0.292516   -0.031437
  O     -2.125762   -0.285889   -0.948563
  C      0.019439    0.415346   -0.239561
  C      1.179828    0.044174    0.251419
  H     -1.207283   -1.011608    0.896346
  H      0.193301    1.127910   -1.175134
  H      0.976498   -0.742183    1.063317
  H      2.123387    0.714448    0.254791

 Total Charge           Charge          ....    0
 Multiplicity           Mult            ....    1
 Number of Electrons    NEL             ....   30
 Basis Dimension        Dim             ....   76

ORBITAL ENERGIES
----------------

  NO   OCC          E(Eh)            E(eV)
   0   2.0000     -19.142762      -520.9010
   1   2.0000     -10.288677      -279.9691
   2   2.0000     -10.230070      -278.3744
   3   2.0000     -10.215763      -277.9850
   4   2.0000      -0.995083       -27.0776
   5   2.0000      -0.820743       -22.3336
   6   2.0000      -0.656403       -17.8616
   7   2.0000      -0.556753       -15.1500
   8   2.0000      -0.475211       -12.9312
   9   2.0000      -0.464587       -12.6421
  10   2.0000      -0.409973       -11.1559
  11   2.0000      -0.378887       -10.3101
  12   2.0000      -0.362593        -9.8667
  13   2.0000      -0.294200        -8.0056
  14   2.0000      -0.258937        -7.0460
  15   0.0000      -0.088815        -2.4168
  16   0.0000       0.037027         1.0076
  17   0.0000       0.054054         1.4709
  18   0.0000       0.056516         1.5379
  19   0.0000       0.120616         3.2821

MULLIKEN ATOMIC CHARGES
-----------------------
   0 C :    0.161967
   1 O :   -0.261977
   2 C :   -0.048958
   3 C :   -0.005283
   4 H :    0.016218
   5 H :    0.037281
   6 H :    0.031086
   7 H :    0.069666
Sum of atomic charges:    0.0000000

LOEWDIN ATOMIC CHARGES
----------------------
   0 C :    0.009308
   1 O :   -0.086249
   2 C :   -0.079408
   3 C :   -0.010238
   4 H :    0.018521
   5 H :    0.057180
   6 H :    0.035414
   7 H :    0.055472

  Mayer bond orders larger than 0.100000
B(  0-C ,  1-O ) :   2.0254 B(  0-C ,  2-C ) :   1.1264 B(  0-C ,  4-H ) :   0.9111
B(  1-O ,  3-C ) :   0.1259 B(  2-C ,  3-C ) :   1.8907 B(  2-C ,  5-H ) :   0.9308
B(  3-C ,  6-H ) :   0.9316 B(  3-C ,  7-H ) :   0.9343

-----------------------------------------------------------------------------
         ABSORPTION SPECTRUM VIA TRANSITION ELECTRIC DIPOLE MOMENTS
-----------------------------------------------------------------------------
State   Energy    Wavelength  fosc         T2        TX        TY        TZ
        (cm-1)      (nm)                 (au**2)    (au)      (au)      (au)
-----------------------------------------------------------------------------
   1   24085.1    415.2   0.000852036   0.01165   0.10342  -0.02580   0.01688

FINAL SINGLE POINT ENERGY      -191.656444435583

DIPOLE MOMENT
-------------
                                X             Y             Z
Electronic contribution:     -2.95038      -0.10326      -1.26712
Nuclear contribution   :      4.05353       0.24544       1.92627
                        -----------------------------------------
Total Dipole Moment    :      1.10315       0.14218       0.65915
                        -----------------------------------------
Magnitude (a.u.)       :      1.29292
Magnitude (Debye)      :      3.28633

Rotational constants in cm-1:     1.406074     0.157036     0.144159
Rotational constants in MHz : 42153.038019  4707.818061  4321.781260

                             ****ORCA TERMINATED NORMALLY****
TOTAL RUN TIME: 0 days 0 hours 3 minutes 22 seconds 169 msec
