                         Program Version 5.0.3 -  RELEASE  -
|  1> ! HF-3c
|  2> !TightSCF
|  3> %scf
|  4>  ConvForced true
|  5>  convergence tight
|  6>  MaxIter 500
|  7> end
|  8>
|  9> %tddft
| 10>  nroots 1
| 11> end
| 12>
| 13> # 	8678
| 14> * xyz 0 1
| 15> 		C   -1.136127  -0.426928   0.027703
| 16> 		O   -2.183351  -0.365245   0.630964
| 17> 		C    0.101250   0.186243   0.460290
| 18> 		C    1.208975   0.184725  -0.265792
| 19> 		H   -0.940353  -0.923181  -0.893030
| 20> 		H   -0.184602   0.958368   1.188995
| 21> 		H    1.114630  -0.419389  -1.187718
| 22> 		H    2.069445   0.767462   0.032416
| 23> *
| 24>
| 25>                          ****END OF INPUT****

CARTESIAN COORDINATES (ANGSTROEM)
---------------------------------
  C     -1.136127   -0.426928    0.027703
  O     -2.183351   -0.365245    0.630964
  C      0.101250    0.186243    0.460290
  C      1.208975    0.184725   -0.265792
  H     -0.940353   -0.923181   -0.893030
  H     -0.184602    0.958368    1.188995
  H      1.114630   -0.419389   -1.187718
  H      2.069445    0.767462    0.032416

 Total Charge           Charge          ....    0
 Multiplicity           Mult            ....    1
 Number of Electrons    NEL             ....   30
 Basis Dimension        Dim             ....   24

ORBITAL ENERGIES
----------------

  NO   OCC          E(Eh)            E(eV)
   0   2.0000     -20.373798      -554.3992
   1   2.0000     -11.298496      -307.4477
   2   2.0000     -11.199142      -304.7441
   3   2.0000     -11.185753      -304.3798
   4   2.0000      -1.405872       -38.2557
   5   2.0000      -1.099853       -29.9285
   6   2.0000      -0.896051       -24.3828
   7   2.0000      -0.786544       -21.4030
   8   2.0000      -0.661092       -17.9892
   9   2.0000      -0.656873       -17.8744
  10   2.0000      -0.587403       -15.9841
  11   2.0000      -0.558727       -15.2037
  12   2.0000      -0.531163       -14.4537
  13   2.0000      -0.417098       -11.3498
  14   2.0000      -0.397356       -10.8126
  15   0.0000       0.123283         3.3547
  16   0.0000       0.303347         8.2545
  17   0.0000       0.563433        15.3318
  18   0.0000       0.599233        16.3060
  19   0.0000       0.685780        18.6610

MULLIKEN ATOMIC CHARGES
-----------------------
   0 C :    0.164442
   1 O :   -0.346642
   2 C :   -0.172637
   3 C :   -0.229575
   4 H :    0.128053
   5 H :    0.153658
   6 H :    0.145702
   7 H :    0.157000
Sum of atomic charges:    0.0000000

LOEWDIN ATOMIC CHARGES
----------------------
   0 C :    0.148808
   1 O :   -0.251971
   2 C :   -0.130548
   3 C :   -0.129961
   4 H :    0.062492
   5 H :    0.099995
   6 H :    0.097381
   7 H :    0.103805

  Mayer bond orders larger than 0.100000
B(  0-C ,  1-O ) :   1.9042 B(  0-C ,  2-C ) :   1.0355 B(  0-C ,  4-H ) :   0.9239
B(  2-C ,  3-C ) :   1.9403 B(  2-C ,  5-H ) :   0.9535 B(  3-C ,  6-H ) :   0.9594
B(  3-C ,  7-H ) :   0.9618

-----------------------------------------------------------------------------
         ABSORPTION SPECTRUM VIA TRANSITION ELECTRIC DIPOLE MOMENTS
-----------------------------------------------------------------------------
State   Energy    Wavelength  fosc         T2        TX        TY        TZ
        (cm-1)      (nm)                 (au**2)    (au)      (au)      (au)
-----------------------------------------------------------------------------
   1   32481.5    307.9   0.000175478   0.00178  -0.03876  -0.01598   0.00451

Dispersion correction           -0.026398573
FINAL SINGLE POINT ENERGY      -189.328805569347

DIPOLE MOMENT
-------------
                                X             Y             Z
Electronic contribution:     -2.94505      -0.64899       1.04981
Nuclear contribution   :      3.96692       0.76606      -1.59638
                        -----------------------------------------
Total Dipole Moment    :      1.02187       0.11707      -0.54658
                        -----------------------------------------
Magnitude (a.u.)       :      1.16476
Magnitude (Debye)      :      2.96058

Rotational constants in cm-1:     1.702656     0.157209     0.144251
Rotational constants in MHz : 51044.355128  4712.992524  4324.531112

                             ****ORCA TERMINATED NORMALLY****
TOTAL RUN TIME: 0 days 0 hours 0 minutes 9 seconds 660 msec
