                         Program Version 5.0.3 -  RELEASE  -
|  1> ! B3LYP cc-pVDZ
|  2> !TightSCF
|  3> %scf
|  4>  ConvForced true
|  5>  convergence tight
|  6>  MaxIter 500
|  7> end
|  8>
|  9> %tddft
| 10>  nroots 1
| 11> end
| 12>
| 13> # 	31843
| 14> * xyz 0 1
| 15> 		C   -0.640406  -0.431290   0.077715
| 16> 		O   -0.554533  -1.602873  -0.030864
| 17> 		C    0.635295   0.351266  -0.067446
| 18> 		C    1.849219  -0.111096   0.030936
| 19> 		H   -1.709128   0.163953  -0.040499
| 20> 		H    0.748462   1.452088   0.032127
| 21> 		H    2.074681  -1.172278   0.048261
| 22> 		H    2.680111   0.542384  -0.042896
| 23> *
| 24>
| 25>                          ****END OF INPUT****

CARTESIAN COORDINATES (ANGSTROEM)
---------------------------------
  C     -0.640406   -0.431290    0.077715
  O     -0.554533   -1.602873   -0.030864
  C      0.635295    0.351266   -0.067446
  C      1.849219   -0.111096    0.030936
  H     -1.709128    0.163953   -0.040499
  H      0.748462    1.452088    0.032127
  H      2.074681   -1.172278    0.048261
  H      2.680111    0.542384   -0.042896

 Total Charge           Charge          ....    0
 Multiplicity           Mult            ....    1
 Number of Electrons    NEL             ....   30
 Basis Dimension        Dim             ....   76

ORBITAL ENERGIES
----------------

  NO   OCC          E(Eh)            E(eV)
   0   2.0000     -19.146459      -521.0016
   1   2.0000     -10.289421      -279.9894
   2   2.0000     -10.199927      -277.5541
   3   2.0000     -10.198150      -277.5058
   4   2.0000      -1.072753       -29.1911
   5   2.0000      -0.797700       -21.7065
   6   2.0000      -0.643353       -17.5065
   7   2.0000      -0.537775       -14.6336
   8   2.0000      -0.510739       -13.8979
   9   2.0000      -0.450647       -12.2627
  10   2.0000      -0.429625       -11.6907
  11   2.0000      -0.414035       -11.2665
  12   2.0000      -0.363797        -9.8994
  13   2.0000      -0.291941        -7.9441
  14   2.0000      -0.260171        -7.0796
  15   0.0000      -0.065099        -1.7714
  16   0.0000       0.054509         1.4833
  17   0.0000       0.067490         1.8365
  18   0.0000       0.087462         2.3800
  19   0.0000       0.116278         3.1641

MULLIKEN ATOMIC CHARGES
-----------------------
   0 C :    0.138256
   1 O :   -0.147827
   2 C :   -0.100993
   3 C :    0.078949
   4 H :    0.001342
   5 H :   -0.010404
   6 H :    0.021689
   7 H :    0.018988
Sum of atomic charges:    0.0000000

LOEWDIN ATOMIC CHARGES
----------------------
   0 C :   -0.055221
   1 O :    0.036639
   2 C :   -0.092698
   3 C :    0.021087
   4 H :    0.004343
   5 H :    0.033855
   6 H :    0.024776
   7 H :    0.027219

  Mayer bond orders larger than 0.100000
B(  0-C ,  1-O ) :   2.2194 B(  0-C ,  2-C ) :   0.9906 B(  0-C ,  4-H ) :   0.8902
B(  2-C ,  3-C ) :   2.0142 B(  2-C ,  5-H ) :   0.9245 B(  3-C ,  6-H ) :   0.9437
B(  3-C ,  7-H ) :   0.9354

-----------------------------------------------------------------------------
         ABSORPTION SPECTRUM VIA TRANSITION ELECTRIC DIPOLE MOMENTS
-----------------------------------------------------------------------------
State   Energy    Wavelength  fosc         T2        TX        TY        TZ
        (cm-1)      (nm)                 (au**2)    (au)      (au)      (au)
-----------------------------------------------------------------------------
   1   29763.3    336.0   0.001668848   0.01846  -0.12898   0.00794  -0.04194

FINAL SINGLE POINT ENERGY      -191.647864871297

DIPOLE MOMENT
-------------
                                X             Y             Z
Electronic contribution:     -2.07254      -1.95417       0.07381
Nuclear contribution   :      2.40210       2.71223      -0.00315
                        -----------------------------------------
Total Dipole Moment    :      0.32956       0.75807       0.07066
                        -----------------------------------------
Magnitude (a.u.)       :      0.82962
Magnitude (Debye)      :      2.10872

Rotational constants in cm-1:     0.798246     0.208910     0.166101
Rotational constants in MHz : 23930.801184  6262.965674  4979.578154

                             ****ORCA TERMINATED NORMALLY****
TOTAL RUN TIME: 0 days 0 hours 3 minutes 27 seconds 430 msec
