                         Program Version 5.0.3 -  RELEASE  -
|  1> ! B3LYP cc-pVDZ
|  2> !TightSCF
|  3> %scf
|  4>  ConvForced true
|  5>  convergence tight
|  6>  MaxIter 500
|  7> end
|  8>
|  9> %tddft
| 10>  nroots 1
| 11> end
| 12>
| 13> # 	19780
| 14> * xyz 0 1
| 15> 		C   -1.195308  -0.289592   0.002057
| 16> 		O   -1.190262  -1.477356  -0.003592
| 17> 		C   -0.020647   0.546578  -0.020723
| 18> 		C    1.179611  -0.002589   0.039014
| 19> 		H   -2.249405   0.190234   0.100542
| 20> 		H   -0.118755   1.688618   0.029664
| 21> 		H    1.312581  -1.189767  -0.037471
| 22> 		H    2.256425   0.553309  -0.159052
| 23> *
| 24>
| 25>                          ****END OF INPUT****

CARTESIAN COORDINATES (ANGSTROEM)
---------------------------------
  C     -1.195308   -0.289592    0.002057
  O     -1.190262   -1.477356   -0.003592
  C     -0.020647    0.546578   -0.020723
  C      1.179611   -0.002589    0.039014
  H     -2.249405    0.190234    0.100542
  H     -0.118755    1.688618    0.029664
  H      1.312581   -1.189767   -0.037471
  H      2.256425    0.553309   -0.159052

 Total Charge           Charge          ....    0
 Multiplicity           Mult            ....    1
 Number of Electrons    NEL             ....   30
 Basis Dimension        Dim             ....   76

ORBITAL ENERGIES
----------------

  NO   OCC          E(Eh)            E(eV)
   0   2.0000     -19.135411      -520.7010
   1   2.0000     -10.274357      -279.5795
   2   2.0000     -10.232042      -278.4280
   3   2.0000     -10.209883      -277.8251
   4   2.0000      -1.059802       -28.8387
   5   2.0000      -0.798656       -21.7325
   6   2.0000      -0.645564       -17.5667
   7   2.0000      -0.526174       -14.3179
   8   2.0000      -0.505517       -13.7558
   9   2.0000      -0.449388       -12.2285
  10   2.0000      -0.418152       -11.3785
  11   2.0000      -0.406959       -11.0739
  12   2.0000      -0.359190        -9.7741
  13   2.0000      -0.292911        -7.9705
  14   2.0000      -0.254292        -6.9196
  15   0.0000      -0.069703        -1.8967
  16   0.0000       0.049395         1.3441
  17   0.0000       0.066509         1.8098
  18   0.0000       0.077866         2.1188
  19   0.0000       0.113327         3.0838

MULLIKEN ATOMIC CHARGES
-----------------------
   0 C :    0.164615
   1 O :   -0.169943
   2 C :   -0.083764
   3 C :   -0.031702
   4 H :   -0.026049
   5 H :    0.015302
   6 H :    0.068422
   7 H :    0.063120
Sum of atomic charges:    0.0000000

LOEWDIN ATOMIC CHARGES
----------------------
   0 C :   -0.061037
   1 O :    0.016639
   2 C :   -0.102888
   3 C :    0.002619
   4 H :   -0.004522
   5 H :    0.043805
   6 H :    0.051591
   7 H :    0.053793

  Mayer bond orders larger than 0.100000
B(  0-C ,  1-O ) :   2.2131 B(  0-C ,  2-C ) :   1.0448 B(  0-C ,  4-H ) :   0.9157
B(  2-C ,  3-C ) :   1.9360 B(  2-C ,  5-H ) :   0.9391 B(  3-C ,  6-H ) :   0.9246
B(  3-C ,  7-H ) :   0.9401

-----------------------------------------------------------------------------
         ABSORPTION SPECTRUM VIA TRANSITION ELECTRIC DIPOLE MOMENTS
-----------------------------------------------------------------------------
State   Energy    Wavelength  fosc         T2        TX        TY        TZ
        (cm-1)      (nm)                 (au**2)    (au)      (au)      (au)
-----------------------------------------------------------------------------
   1   27862.9    358.9   0.000226658   0.00268   0.01691   0.00334   0.04880

FINAL SINGLE POINT ENERGY      -191.658401335338

DIPOLE MOMENT
-------------
                                X             Y             Z
Electronic contribution:     -1.90266      -1.62249       0.04040
Nuclear contribution   :      2.33668       2.44260      -0.07034
                        -----------------------------------------
Total Dipole Moment    :      0.43402       0.82011      -0.02994
                        -----------------------------------------
Magnitude (a.u.)       :      0.92836
Magnitude (Debye)      :      2.35970

Rotational constants in cm-1:     0.757831     0.216259     0.168454
Rotational constants in MHz : 22719.215273  6483.291528  5050.118570

                             ****ORCA TERMINATED NORMALLY****
TOTAL RUN TIME: 0 days 0 hours 3 minutes 0 seconds 35 msec
