                         Program Version 5.0.3 -  RELEASE  -
|  1> ! HF-3c
|  2> !TightSCF
|  3> %scf
|  4>  ConvForced true
|  5>  convergence tight
|  6>  MaxIter 500
|  7> end
|  8>
|  9> %tddft
| 10>  nroots 1
| 11> end
| 12>
| 13> # 	27101
| 14> * xyz 0 1
| 15> 		C   -0.610569  -0.445606  -0.038145
| 16> 		O   -0.627456  -1.662068   0.028645
| 17> 		C    0.635618   0.404302   0.004907
| 18> 		C    1.922398  -0.062220   0.016141
| 19> 		H   -1.513874  -0.005922  -0.065038
| 20> 		H    0.362846   1.391566   0.109267
| 21> 		H    1.976114  -1.041165  -0.337042
| 22> 		H    2.850284   0.491176   0.055960
| 23> *
| 24>
| 25>                          ****END OF INPUT****

CARTESIAN COORDINATES (ANGSTROEM)
---------------------------------
  C     -0.610569   -0.445606   -0.038145
  O     -0.627456   -1.662068    0.028645
  C      0.635618    0.404302    0.004907
  C      1.922398   -0.062220    0.016141
  H     -1.513874   -0.005922   -0.065038
  H      0.362846    1.391566    0.109267
  H      1.976114   -1.041165   -0.337042
  H      2.850284    0.491176    0.055960

 Total Charge           Charge          ....    0
 Multiplicity           Mult            ....    1
 Number of Electrons    NEL             ....   30
 Basis Dimension        Dim             ....   24

ORBITAL ENERGIES
----------------

  NO   OCC          E(Eh)            E(eV)
   0   2.0000     -20.368693      -554.2603
   1   2.0000     -11.298117      -307.4374
   2   2.0000     -11.196761      -304.6794
   3   2.0000     -11.193785      -304.5984
   4   2.0000      -1.401005       -38.1233
   5   2.0000      -1.071704       -29.1625
   6   2.0000      -0.909216       -24.7410
   7   2.0000      -0.779081       -21.1999
   8   2.0000      -0.705304       -19.1923
   9   2.0000      -0.623934       -16.9781
  10   2.0000      -0.607177       -16.5221
  11   2.0000      -0.541728       -14.7412
  12   2.0000      -0.536380       -14.5956
  13   2.0000      -0.423172       -11.5151
  14   2.0000      -0.388821       -10.5804
  15   0.0000       0.119024         3.2388
  16   0.0000       0.288144         7.8408
  17   0.0000       0.525819        14.3083
  18   0.0000       0.682689        18.5769
  19   0.0000       0.710562        19.3354

MULLIKEN ATOMIC CHARGES
-----------------------
   0 C :    0.140996
   1 O :   -0.339587
   2 C :   -0.165167
   3 C :   -0.226470
   4 H :    0.142509
   5 H :    0.137353
   6 H :    0.155658
   7 H :    0.154708
Sum of atomic charges:   -0.0000000

LOEWDIN ATOMIC CHARGES
----------------------
   0 C :    0.133466
   1 O :   -0.247299
   2 C :   -0.117820
   3 C :   -0.121309
   4 H :    0.070189
   5 H :    0.081677
   6 H :    0.098842
   7 H :    0.102254

  Mayer bond orders larger than 0.100000
B(  0-C ,  1-O ) :   1.9054 B(  0-C ,  2-C ) :   1.0220 B(  0-C ,  4-H ) :   0.9400
B(  2-C ,  3-C ) :   1.9445 B(  2-C ,  5-H ) :   0.9638 B(  3-C ,  6-H ) :   0.9620
B(  3-C ,  7-H ) :   0.9641

-----------------------------------------------------------------------------
         ABSORPTION SPECTRUM VIA TRANSITION ELECTRIC DIPOLE MOMENTS
-----------------------------------------------------------------------------
State   Energy    Wavelength  fosc         T2        TX        TY        TZ
        (cm-1)      (nm)                 (au**2)    (au)      (au)      (au)
-----------------------------------------------------------------------------
   1   31043.5    322.1   0.000002680   0.00003   0.00519  -0.00102  -0.00070

Dispersion correction           -0.025408005
FINAL SINGLE POINT ENERGY      -189.328773077815

DIPOLE MOMENT
-------------
                                X             Y             Z
Electronic contribution:     -1.96787      -1.67939       0.13608
Nuclear contribution   :      2.29264       2.57331      -0.22274
                        -----------------------------------------
Total Dipole Moment    :      0.32478       0.89392      -0.08666
                        -----------------------------------------
Magnitude (a.u.)       :      0.95503
Magnitude (Debye)      :      2.42749

Rotational constants in cm-1:     0.804853     0.192284     0.155686
Rotational constants in MHz : 24128.897960  5764.534894  4667.359154

                             ****ORCA TERMINATED NORMALLY****
TOTAL RUN TIME: 0 days 0 hours 0 minutes 15 seconds 963 msec
