                         Program Version 5.0.3 -  RELEASE  -
|  1> ! B3LYP cc-pVDZ
|  2> !TightSCF
|  3> %scf
|  4>  ConvForced true
|  5>  convergence tight
|  6>  MaxIter 500
|  7> end
|  8>
|  9> %tddft
| 10>  nroots 1
| 11> end
| 12>
| 13> # 	10321
| 14> * xyz 0 1
| 15> 		C   -1.166161  -0.334929  -0.011294
| 16> 		O   -1.185368  -1.494986  -0.175277
| 17> 		C    0.021860   0.474306  -0.084237
| 18> 		C    1.258979  -0.017474   0.030758
| 19> 		H   -2.239040   0.351730   0.304807
| 20> 		H   -0.108749   1.440315  -0.200740
| 21> 		H    1.305985  -1.133913  -0.011888
| 22> 		H    2.047965   0.679845   0.134582
| 23> *
| 24>
| 25>                          ****END OF INPUT****

CARTESIAN COORDINATES (ANGSTROEM)
---------------------------------
  C     -1.166161   -0.334929   -0.011294
  O     -1.185368   -1.494986   -0.175277
  C      0.021860    0.474306   -0.084237
  C      1.258979   -0.017474    0.030758
  H     -2.239040    0.351730    0.304807
  H     -0.108749    1.440315   -0.200740
  H      1.305985   -1.133913   -0.011888
  H      2.047965    0.679845    0.134582

 Total Charge           Charge          ....    0
 Multiplicity           Mult            ....    1
 Number of Electrons    NEL             ....   30
 Basis Dimension        Dim             ....   76

ORBITAL ENERGIES
----------------

  NO   OCC          E(Eh)            E(eV)
   0   2.0000     -19.145744      -520.9822
   1   2.0000     -10.283894      -279.8390
   2   2.0000     -10.213998      -277.9370
   3   2.0000     -10.191534      -277.3257
   4   2.0000      -1.074869       -29.2487
   5   2.0000      -0.806784       -21.9537
   6   2.0000      -0.658391       -17.9157
   7   2.0000      -0.540624       -14.7111
   8   2.0000      -0.509226       -13.8567
   9   2.0000      -0.452036       -12.3005
  10   2.0000      -0.430537       -11.7155
  11   2.0000      -0.415273       -11.3001
  12   2.0000      -0.390743       -10.6327
  13   2.0000      -0.290129        -7.8948
  14   2.0000      -0.256823        -6.9885
  15   0.0000      -0.067294        -1.8312
  16   0.0000       0.050838         1.3834
  17   0.0000       0.072904         1.9838
  18   0.0000       0.082439         2.2433
  19   0.0000       0.120777         3.2865

MULLIKEN ATOMIC CHARGES
-----------------------
   0 C :    0.106330
   1 O :   -0.144513
   2 C :   -0.019397
   3 C :    0.090870
   4 H :   -0.035831
   5 H :   -0.064322
   6 H :    0.041808
   7 H :    0.025055
Sum of atomic charges:   -0.0000000

LOEWDIN ATOMIC CHARGES
----------------------
   0 C :   -0.068265
   1 O :    0.040611
   2 C :   -0.065316
   3 C :    0.039126
   4 H :   -0.015668
   5 H :   -0.001423
   6 H :    0.043028
   7 H :    0.027907

  Mayer bond orders larger than 0.100000
B(  0-C ,  1-O ) :   2.2339 B(  0-C ,  2-C ) :   1.0565 B(  0-C ,  4-H ) :   0.8607
B(  2-C ,  3-C ) :   1.9739 B(  2-C ,  5-H ) :   0.9470 B(  3-C ,  6-H ) :   0.9256
B(  3-C ,  7-H ) :   0.9359

-----------------------------------------------------------------------------
         ABSORPTION SPECTRUM VIA TRANSITION ELECTRIC DIPOLE MOMENTS
-----------------------------------------------------------------------------
State   Energy    Wavelength  fosc         T2        TX        TY        TZ
        (cm-1)      (nm)                 (au**2)    (au)      (au)      (au)
-----------------------------------------------------------------------------
   1   29386.7    340.3   0.000429166   0.00481  -0.05021   0.01202  -0.04629

FINAL SINGLE POINT ENERGY      -191.643120554486

DIPOLE MOMENT
-------------
                                X             Y             Z
Electronic contribution:     -1.50379      -1.87142      -0.36554
Nuclear contribution   :      2.04014       2.65143       0.43552
                        -----------------------------------------
Total Dipole Moment    :      0.53634       0.78001       0.06998
                        -----------------------------------------
Magnitude (a.u.)       :      0.94920
Magnitude (Debye)      :      2.41267

Rotational constants in cm-1:     0.800002     0.211652     0.168590
Rotational constants in MHz : 23983.454694  6345.180042  5054.212654

                             ****ORCA TERMINATED NORMALLY****
TOTAL RUN TIME: 0 days 0 hours 3 minutes 0 seconds 577 msec
