                         Program Version 5.0.3 -  RELEASE  -
|  1> ! B3LYP cc-pVDZ
|  2> !TightSCF
|  3> %scf
|  4>  ConvForced true
|  5>  convergence tight
|  6>  MaxIter 500
|  7> end
|  8>
|  9> %tddft
| 10>  nroots 1
| 11> end
| 12>
| 13> # 	25696
| 14> * xyz 0 1
| 15> 		C   -0.607706  -0.391198  -0.013825
| 16> 		O   -0.495819  -1.605054   0.010195
| 17> 		C    0.636363   0.427870   0.003362
| 18> 		C    1.745470  -0.229463   0.006879
| 19> 		H   -1.413917   0.253843  -0.065940
| 20> 		H    0.543150   1.546868   0.089653
| 21> 		H    1.864362  -1.287262  -0.078119
| 22> 		H    2.715005   0.554485  -0.061887
| 23> *
| 24>
| 25>                          ****END OF INPUT****

CARTESIAN COORDINATES (ANGSTROEM)
---------------------------------
  C     -0.607706   -0.391198   -0.013825
  O     -0.495819   -1.605054    0.010195
  C      0.636363    0.427870    0.003362
  C      1.745470   -0.229463    0.006879
  H     -1.413917    0.253843   -0.065940
  H      0.543150    1.546868    0.089653
  H      1.864362   -1.287262   -0.078119
  H      2.715005    0.554485   -0.061887

 Total Charge           Charge          ....    0
 Multiplicity           Mult            ....    1
 Number of Electrons    NEL             ....   30
 Basis Dimension        Dim             ....   76

ORBITAL ENERGIES
----------------

  NO   OCC          E(Eh)            E(eV)
   0   2.0000     -19.140164      -520.8303
   1   2.0000     -10.270417      -279.4723
   2   2.0000     -10.210176      -277.8330
   3   2.0000     -10.192865      -277.3619
   4   2.0000      -1.044313       -28.4172
   5   2.0000      -0.797438       -21.6994
   6   2.0000      -0.662023       -18.0146
   7   2.0000      -0.539410       -14.6781
   8   2.0000      -0.503385       -13.6978
   9   2.0000      -0.454575       -12.3696
  10   2.0000      -0.415383       -11.3032
  11   2.0000      -0.399303       -10.8656
  12   2.0000      -0.360459        -9.8086
  13   2.0000      -0.289186        -7.8692
  14   2.0000      -0.256133        -6.9697
  15   0.0000      -0.065367        -1.7787
  16   0.0000       0.050851         1.3837
  17   0.0000       0.065949         1.7946
  18   0.0000       0.087370         2.3775
  19   0.0000       0.127545         3.4707

MULLIKEN ATOMIC CHARGES
-----------------------
   0 C :    0.247768
   1 O :   -0.205696
   2 C :   -0.144370
   3 C :    0.059789
   4 H :   -0.029632
   5 H :    0.000042
   6 H :    0.033867
   7 H :    0.038232
Sum of atomic charges:   -0.0000000

LOEWDIN ATOMIC CHARGES
----------------------
   0 C :   -0.008846
   1 O :   -0.007473
   2 C :   -0.099176
   3 C :    0.018391
   4 H :   -0.015155
   5 H :    0.033331
   6 H :    0.026619
   7 H :    0.052309

  Mayer bond orders larger than 0.100000
B(  0-C ,  1-O ) :   2.1810 B(  0-C ,  2-C ) :   1.0589 B(  0-C ,  4-H ) :   0.9296
B(  2-C ,  3-C ) :   1.9840 B(  2-C ,  5-H ) :   0.9355 B(  3-C ,  6-H ) :   0.9279
B(  3-C ,  7-H ) :   0.9328

-----------------------------------------------------------------------------
         ABSORPTION SPECTRUM VIA TRANSITION ELECTRIC DIPOLE MOMENTS
-----------------------------------------------------------------------------
State   Energy    Wavelength  fosc         T2        TX        TY        TZ
        (cm-1)      (nm)                 (au**2)    (au)      (au)      (au)
-----------------------------------------------------------------------------
   1   28367.7    352.5   0.000188100   0.00218  -0.03189  -0.00094  -0.03413

FINAL SINGLE POINT ENERGY      -191.647691169629

DIPOLE MOMENT
-------------
                                X             Y             Z
Electronic contribution:     -2.14073      -1.91725       0.07618
Nuclear contribution   :      2.32188       2.78709      -0.10914
                        -----------------------------------------
Total Dipole Moment    :      0.18115       0.86984      -0.03296
                        -----------------------------------------
Magnitude (a.u.)       :      0.88911
Magnitude (Debye)      :      2.25995

Rotational constants in cm-1:     0.716057     0.234856     0.176952
Rotational constants in MHz : 21466.849372  7040.799355  5304.889415

                             ****ORCA TERMINATED NORMALLY****
TOTAL RUN TIME: 0 days 0 hours 3 minutes 17 seconds 797 msec
