                         Program Version 5.0.3 -  RELEASE  -
|  1> ! B3LYP cc-pVDZ
|  2> !TightSCF
|  3> %scf
|  4>  ConvForced true
|  5>  convergence tight
|  6>  MaxIter 500
|  7> end
|  8>
|  9> %tddft
| 10>  nroots 1
| 11> end
| 12>
| 13> # 	335
| 14> * xyz 0 1
| 15> 		C   -1.170639  -0.316892   0.018460
| 16> 		O   -1.881107  -0.760607   0.974863
| 17> 		C    0.007809   0.403321   0.301724
| 18> 		C    1.148557   0.007768  -0.176681
| 19> 		H   -1.383804  -0.535808  -0.972537
| 20> 		H   -0.163380   1.321478   0.878391
| 21> 		H    1.303967  -0.645453  -0.820399
| 22> 		H    2.139729   0.500888  -0.242230
| 23> *
| 24>
| 25>                          ****END OF INPUT****

CARTESIAN COORDINATES (ANGSTROEM)
---------------------------------
  C     -1.170639   -0.316892    0.018460
  O     -1.881107   -0.760607    0.974863
  C      0.007809    0.403321    0.301724
  C      1.148557    0.007768   -0.176681
  H     -1.383804   -0.535808   -0.972537
  H     -0.163380    1.321478    0.878391
  H      1.303967   -0.645453   -0.820399
  H      2.139729    0.500888   -0.242230

 Total Charge           Charge          ....    0
 Multiplicity           Mult            ....    1
 Number of Electrons    NEL             ....   30
 Basis Dimension        Dim             ....   76

ORBITAL ENERGIES
----------------

  NO   OCC          E(Eh)            E(eV)
   0   2.0000     -19.139260      -520.8057
   1   2.0000     -10.271690      -279.5069
   2   2.0000     -10.205297      -277.7003
   3   2.0000     -10.193333      -277.3747
   4   2.0000      -1.017322       -27.6827
   5   2.0000      -0.818994       -22.2860
   6   2.0000      -0.675387       -18.3782
   7   2.0000      -0.590688       -16.0734
   8   2.0000      -0.500625       -13.6227
   9   2.0000      -0.481512       -13.1026
  10   2.0000      -0.432053       -11.7568
  11   2.0000      -0.376708       -10.2508
  12   2.0000      -0.360110        -9.7991
  13   2.0000      -0.294248        -8.0069
  14   2.0000      -0.255541        -6.9536
  15   0.0000      -0.063927        -1.7395
  16   0.0000       0.013100         0.3565
  17   0.0000       0.082976         2.2579
  18   0.0000       0.093395         2.5414
  19   0.0000       0.120635         3.2827

MULLIKEN ATOMIC CHARGES
-----------------------
   0 C :    0.205954
   1 O :   -0.240840
   2 C :   -0.044434
   3 C :    0.118838
   4 H :   -0.017288
   5 H :    0.018520
   6 H :   -0.060483
   7 H :    0.019732
Sum of atomic charges:    0.0000000

LOEWDIN ATOMIC CHARGES
----------------------
   0 C :    0.018971
   1 O :   -0.045753
   2 C :   -0.040457
   3 C :    0.004113
   4 H :   -0.007275
   5 H :    0.046676
   6 H :   -0.019725
   7 H :    0.043449

  Mayer bond orders larger than 0.100000
B(  0-C ,  1-O ) :   2.1239 B(  0-C ,  2-C ) :   1.0662 B(  0-C ,  4-H ) :   0.9439
B(  2-C ,  3-C ) :   1.9839 B(  2-C ,  5-H ) :   0.9407 B(  3-C ,  6-H ) :   0.9426
B(  3-C ,  7-H ) :   0.9526

-----------------------------------------------------------------------------
         ABSORPTION SPECTRUM VIA TRANSITION ELECTRIC DIPOLE MOMENTS
-----------------------------------------------------------------------------
State   Energy    Wavelength  fosc         T2        TX        TY        TZ
        (cm-1)      (nm)                 (au**2)    (au)      (au)      (au)
-----------------------------------------------------------------------------
   1   27861.8    358.9   0.001052625   0.01244  -0.10729  -0.00879   0.02915

FINAL SINGLE POINT ENERGY      -191.621997261005

DIPOLE MOMENT
-------------
                                X             Y             Z
Electronic contribution:     -2.91122      -0.84740       1.37163
Nuclear contribution   :      3.65693       1.28852      -2.15642
                        -----------------------------------------
Total Dipole Moment    :      0.74572       0.44112      -0.78479
                        -----------------------------------------
Magnitude (a.u.)       :      1.16900
Magnitude (Debye)      :      2.97137

Rotational constants in cm-1:     1.259572     0.165112     0.159556
Rotational constants in MHz : 37761.020847  4949.937867  4783.370220

                             ****ORCA TERMINATED NORMALLY****
TOTAL RUN TIME: 0 days 0 hours 3 minutes 7 seconds 84 msec
