                         Program Version 5.0.3 -  RELEASE  -
|  1> ! B3LYP cc-pVDZ
|  2> !TightSCF
|  3> %scf
|  4>  ConvForced true
|  5>  convergence tight
|  6>  MaxIter 500
|  7> end
|  8>
|  9> %tddft
| 10>  nroots 1
| 11> end
| 12>
| 13> # 	13043
| 14> * xyz 0 1
| 15> 		C   -1.195464  -0.438190   0.060456
| 16> 		O   -1.294690  -1.584517   0.181102
| 17> 		C    0.044856   0.458783   0.065228
| 18> 		C    1.210257   0.032664  -0.041554
| 19> 		H   -2.069864   0.354138  -0.182295
| 20> 		H   -0.307123   1.630542   0.024037
| 21> 		H    1.535916  -1.135272  -0.143902
| 22> 		H    2.151096   0.666163   0.070486
| 23> *
| 24>
| 25>                          ****END OF INPUT****

CARTESIAN COORDINATES (ANGSTROEM)
---------------------------------
  C     -1.195464   -0.438190    0.060456
  O     -1.294690   -1.584517    0.181102
  C      0.044856    0.458783    0.065228
  C      1.210257    0.032664   -0.041554
  H     -2.069864    0.354138   -0.182295
  H     -0.307123    1.630542    0.024037
  H      1.535916   -1.135272   -0.143902
  H      2.151096    0.666163    0.070486

 Total Charge           Charge          ....    0
 Multiplicity           Mult            ....    1
 Number of Electrons    NEL             ....   30
 Basis Dimension        Dim             ....   76

ORBITAL ENERGIES
----------------

  NO   OCC          E(Eh)            E(eV)
   0   2.0000     -19.154288      -521.2147
   1   2.0000     -10.285144      -279.8730
   2   2.0000     -10.215543      -277.9791
   3   2.0000     -10.207034      -277.7475
   4   2.0000      -1.086003       -29.5516
   5   2.0000      -0.805324       -21.9140
   6   2.0000      -0.645020       -17.5519
   7   2.0000      -0.521593       -14.1933
   8   2.0000      -0.493099       -13.4179
   9   2.0000      -0.462720       -12.5913
  10   2.0000      -0.433929       -11.8078
  11   2.0000      -0.416530       -11.3344
  12   2.0000      -0.358564        -9.7570
  13   2.0000      -0.307153        -8.3581
  14   2.0000      -0.255636        -6.9562
  15   0.0000      -0.055007        -1.4968
  16   0.0000       0.037530         1.0213
  17   0.0000       0.071675         1.9504
  18   0.0000       0.073218         1.9924
  19   0.0000       0.115275         3.1368

MULLIKEN ATOMIC CHARGES
-----------------------
   0 C :    0.156171
   1 O :   -0.121322
   2 C :   -0.149157
   3 C :    0.024383
   4 H :   -0.039475
   5 H :    0.026375
   6 H :    0.059792
   7 H :    0.043233
Sum of atomic charges:   -0.0000000

LOEWDIN ATOMIC CHARGES
----------------------
   0 C :   -0.064960
   1 O :    0.065587
   2 C :   -0.112746
   3 C :   -0.020756
   4 H :   -0.018778
   5 H :    0.051841
   6 H :    0.056927
   7 H :    0.042885

  Mayer bond orders larger than 0.100000
B(  0-C ,  1-O ) :   2.2995 B(  0-C ,  2-C ) :   0.9976 B(  0-C ,  4-H ) :   0.8735
B(  2-C ,  3-C ) :   2.0070 B(  2-C ,  5-H ) :   0.9239 B(  3-C ,  6-H ) :   0.9231
B(  3-C ,  7-H ) :   0.9286

-----------------------------------------------------------------------------
         ABSORPTION SPECTRUM VIA TRANSITION ELECTRIC DIPOLE MOMENTS
-----------------------------------------------------------------------------
State   Energy    Wavelength  fosc         T2        TX        TY        TZ
        (cm-1)      (nm)                 (au**2)    (au)      (au)      (au)
-----------------------------------------------------------------------------
   1   31357.4    318.9   0.000558352   0.00586  -0.03873  -0.03550   0.05569

FINAL SINGLE POINT ENERGY      -191.623875193844

DIPOLE MOMENT
-------------
                                X             Y             Z
Electronic contribution:     -1.97893      -2.24870       0.37998
Nuclear contribution   :      2.46497       2.95636      -0.46159
                        -----------------------------------------
Total Dipole Moment    :      0.48603       0.70766      -0.08161
                        -----------------------------------------
Magnitude (a.u.)       :      0.86236
Magnitude (Debye)      :      2.19195

Rotational constants in cm-1:     0.832670     0.193245     0.157443
Rotational constants in MHz : 24962.813371  5793.334900  4720.024115

                             ****ORCA TERMINATED NORMALLY****
TOTAL RUN TIME: 0 days 0 hours 3 minutes 19 seconds 359 msec
