                         Program Version 5.0.3 -  RELEASE  -
|  1> ! HF-3c
|  2> !TightSCF
|  3> %scf
|  4>  ConvForced true
|  5>  convergence tight
|  6>  MaxIter 500
|  7> end
|  8>
|  9> %tddft
| 10>  nroots 1
| 11> end
| 12>
| 13> # 	22997
| 14> * xyz 0 1
| 15> 		C   -0.588093  -0.411314  -0.024637
| 16> 		O   -0.589629  -1.634942   0.013615
| 17> 		C    0.639576   0.344994  -0.031258
| 18> 		C    1.851366  -0.107915  -0.005058
| 19> 		H   -1.561203   0.351258   0.139971
| 20> 		H    0.489457   1.459116   0.223885
| 21> 		H    2.167994  -1.085287   0.041389
| 22> 		H    2.547088   0.610633   0.118532
| 23> *
| 24>
| 25>                          ****END OF INPUT****

CARTESIAN COORDINATES (ANGSTROEM)
---------------------------------
  C     -0.588093   -0.411314   -0.024637
  O     -0.589629   -1.634942    0.013615
  C      0.639576    0.344994   -0.031258
  C      1.851366   -0.107915   -0.005058
  H     -1.561203    0.351258    0.139971
  H      0.489457    1.459116    0.223885
  H      2.167994   -1.085287    0.041389
  H      2.547088    0.610633    0.118532

 Total Charge           Charge          ....    0
 Multiplicity           Mult            ....    1
 Number of Electrons    NEL             ....   30
 Basis Dimension        Dim             ....   24

ORBITAL ENERGIES
----------------

  NO   OCC          E(Eh)            E(eV)
   0   2.0000     -20.364185      -554.1376
   1   2.0000     -11.291873      -307.2675
   2   2.0000     -11.196494      -304.6721
   3   2.0000     -11.193757      -304.5976
   4   2.0000      -1.391799       -37.8728
   5   2.0000      -1.098473       -29.8910
   6   2.0000      -0.906910       -24.6783
   7   2.0000      -0.735896       -20.0247
   8   2.0000      -0.701438       -19.0871
   9   2.0000      -0.623271       -16.9601
  10   2.0000      -0.597149       -16.2492
  11   2.0000      -0.542994       -14.7756
  12   2.0000      -0.523306       -14.2399
  13   2.0000      -0.409634       -11.1467
  14   2.0000      -0.401028       -10.9125
  15   0.0000       0.125569         3.4169
  16   0.0000       0.318341         8.6625
  17   0.0000       0.476198        12.9580
  18   0.0000       0.587136        15.9768
  19   0.0000       0.676633        18.4121

MULLIKEN ATOMIC CHARGES
-----------------------
   0 C :    0.174645
   1 O :   -0.348740
   2 C :   -0.159541
   3 C :   -0.249040
   4 H :    0.134220
   5 H :    0.140037
   6 H :    0.161091
   7 H :    0.147329
Sum of atomic charges:   -0.0000000

LOEWDIN ATOMIC CHARGES
----------------------
   0 C :    0.146328
   1 O :   -0.257189
   2 C :   -0.119829
   3 C :   -0.137857
   4 H :    0.082969
   5 H :    0.093099
   6 H :    0.101722
   7 H :    0.090756

  Mayer bond orders larger than 0.100000
B(  0-C ,  1-O ) :   1.9063 B(  0-C ,  2-C ) :   1.0367 B(  0-C ,  4-H ) :   0.9078
B(  2-C ,  3-C ) :   1.9469 B(  2-C ,  5-H ) :   0.9544 B(  3-C ,  6-H ) :   0.9600
B(  3-C ,  7-H ) :   0.9634

-----------------------------------------------------------------------------
         ABSORPTION SPECTRUM VIA TRANSITION ELECTRIC DIPOLE MOMENTS
-----------------------------------------------------------------------------
State   Energy    Wavelength  fosc         T2        TX        TY        TZ
        (cm-1)      (nm)                 (au**2)    (au)      (au)      (au)
-----------------------------------------------------------------------------
   1   30946.6    323.1   0.000035888   0.00038   0.01243   0.01221   0.00883

Dispersion correction           -0.025847260
FINAL SINGLE POINT ENERGY      -189.316447708011

DIPOLE MOMENT
-------------
                                X             Y             Z
Electronic contribution:     -2.04724      -2.00624      -0.38467
Nuclear contribution   :      2.26065       3.03689       0.49068
                        -----------------------------------------
Total Dipole Moment    :      0.21341       1.03065       0.10601
                        -----------------------------------------
Magnitude (a.u.)       :      1.05783
Magnitude (Debye)      :      2.68880

Rotational constants in cm-1:     0.782365     0.209356     0.165511
Rotational constants in MHz : 23454.715312  6276.320644  4961.896404

                             ****ORCA TERMINATED NORMALLY****
TOTAL RUN TIME: 0 days 0 hours 0 minutes 15 seconds 305 msec
