                         Program Version 5.0.3 -  RELEASE  -
|  1> ! HF-3c
|  2> !TightSCF
|  3> %scf
|  4>  ConvForced true
|  5>  convergence tight
|  6>  MaxIter 500
|  7> end
|  8>
|  9> %tddft
| 10>  nroots 1
| 11> end
| 12>
| 13> # 	19904
| 14> * xyz 0 1
| 15> 		C   -1.212542  -0.357305   0.025817
| 16> 		O   -1.317132  -1.498878  -0.407069
| 17> 		C   -0.016130   0.429539  -0.138125
| 18> 		C    1.245188  -0.020095   0.077716
| 19> 		H   -1.990369   0.175073   0.464851
| 20> 		H   -0.222737   1.625741  -0.451228
| 21> 		H    1.389567  -0.977219   0.350724
| 22> 		H    2.085747   0.612496   0.099699
| 23> *
| 24>
| 25>                          ****END OF INPUT****

CARTESIAN COORDINATES (ANGSTROEM)
---------------------------------
  C     -1.212542   -0.357305    0.025817
  O     -1.317132   -1.498878   -0.407069
  C     -0.016130    0.429539   -0.138125
  C      1.245188   -0.020095    0.077716
  H     -1.990369    0.175073    0.464851
  H     -0.222737    1.625741   -0.451228
  H      1.389567   -0.977219    0.350724
  H      2.085747    0.612496    0.099699

 Total Charge           Charge          ....    0
 Multiplicity           Mult            ....    1
 Number of Electrons    NEL             ....   30
 Basis Dimension        Dim             ....   24

ORBITAL ENERGIES
----------------

  NO   OCC          E(Eh)            E(eV)
   0   2.0000     -20.371390      -554.3337
   1   2.0000     -11.300472      -307.5015
   2   2.0000     -11.191719      -304.5422
   3   2.0000     -11.186088      -304.3889
   4   2.0000      -1.397148       -38.0183
   5   2.0000      -1.074281       -29.2327
   6   2.0000      -0.916675       -24.9440
   7   2.0000      -0.761848       -20.7309
   8   2.0000      -0.690835       -18.7986
   9   2.0000      -0.617764       -16.8102
  10   2.0000      -0.613997       -16.7077
  11   2.0000      -0.546335       -14.8665
  12   2.0000      -0.502863       -13.6836
  13   2.0000      -0.423040       -11.5115
  14   2.0000      -0.388328       -10.5669
  15   0.0000       0.133542         3.6339
  16   0.0000       0.268589         7.3087
  17   0.0000       0.495318        13.4783
  18   0.0000       0.623654        16.9705
  19   0.0000       0.733375        19.9561

MULLIKEN ATOMIC CHARGES
-----------------------
   0 C :    0.140376
   1 O :   -0.334419
   2 C :   -0.133679
   3 C :   -0.252769
   4 H :    0.141932
   5 H :    0.145406
   6 H :    0.147093
   7 H :    0.146061
Sum of atomic charges:    0.0000000

LOEWDIN ATOMIC CHARGES
----------------------
   0 C :    0.135640
   1 O :   -0.245573
   2 C :   -0.102797
   3 C :   -0.148961
   4 H :    0.072980
   5 H :    0.105940
   6 H :    0.089393
   7 H :    0.093379

  Mayer bond orders larger than 0.100000
B(  0-C ,  1-O ) :   1.9067 B(  0-C ,  2-C ) :   1.0393 B(  0-C ,  4-H ) :   0.9284
B(  2-C ,  3-C ) :   1.9520 B(  2-C ,  5-H ) :   0.9461 B(  3-C ,  6-H ) :   0.9655
B(  3-C ,  7-H ) :   0.9665

-----------------------------------------------------------------------------
         ABSORPTION SPECTRUM VIA TRANSITION ELECTRIC DIPOLE MOMENTS
-----------------------------------------------------------------------------
State   Energy    Wavelength  fosc         T2        TX        TY        TZ
        (cm-1)      (nm)                 (au**2)    (au)      (au)      (au)
-----------------------------------------------------------------------------
   1   31740.8    315.1   0.000058286   0.00060  -0.00573   0.01852  -0.01513

Dispersion correction           -0.025440632
FINAL SINGLE POINT ENERGY      -189.313533329406

DIPOLE MOMENT
-------------
                                X             Y             Z
Electronic contribution:     -2.22879      -1.80764      -0.52675
Nuclear contribution   :      2.48195       2.79727       0.86348
                        -----------------------------------------
Total Dipole Moment    :      0.25317       0.98963       0.33673
                        -----------------------------------------
Magnitude (a.u.)       :      1.07557
Magnitude (Debye)      :      2.73388

Rotational constants in cm-1:     0.806746     0.195209     0.162457
Rotational constants in MHz : 24185.647867  5852.210594  4870.352885

                             ****ORCA TERMINATED NORMALLY****
TOTAL RUN TIME: 0 days 0 hours 0 minutes 12 seconds 149 msec
