                         Program Version 5.0.3 -  RELEASE  -
|  1> ! HF-3c
|  2> !TightSCF
|  3> %scf
|  4>  ConvForced true
|  5>  convergence tight
|  6>  MaxIter 500
|  7> end
|  8>
|  9> %tddft
| 10>  nroots 1
| 11> end
| 12>
| 13> # 	2714
| 14> * xyz 0 1
| 15> 		C   -1.190370  -0.406911   0.058151
| 16> 		O   -2.048084  -0.572216   0.863091
| 17> 		C   -0.015925   0.497261   0.318749
| 18> 		C    1.152496   0.064591  -0.222294
| 19> 		H   -1.205526  -0.779507  -0.907045
| 20> 		H    0.029658   1.305478   1.044394
| 21> 		H    1.156375  -0.701824  -1.063413
| 22> 		H    2.086829   0.579503   0.006939
| 23> *
| 24>
| 25>                          ****END OF INPUT****

CARTESIAN COORDINATES (ANGSTROEM)
---------------------------------
  C     -1.190370   -0.406911    0.058151
  O     -2.048084   -0.572216    0.863091
  C     -0.015925    0.497261    0.318749
  C      1.152496    0.064591   -0.222294
  H     -1.205526   -0.779507   -0.907045
  H      0.029658    1.305478    1.044394
  H      1.156375   -0.701824   -1.063413
  H      2.086829    0.579503    0.006939

 Total Charge           Charge          ....    0
 Multiplicity           Mult            ....    1
 Number of Electrons    NEL             ....   30
 Basis Dimension        Dim             ....   24

ORBITAL ENERGIES
----------------

  NO   OCC          E(Eh)            E(eV)
   0   2.0000     -20.378531      -554.5280
   1   2.0000     -11.309279      -307.7411
   2   2.0000     -11.183254      -304.3118
   3   2.0000     -11.181802      -304.2723
   4   2.0000      -1.422995       -38.7217
   5   2.0000      -1.076298       -29.2876
   6   2.0000      -0.874865       -23.8063
   7   2.0000      -0.787783       -21.4367
   8   2.0000      -0.674463       -18.3531
   9   2.0000      -0.644480       -17.5372
  10   2.0000      -0.587775       -15.9942
  11   2.0000      -0.549502       -14.9527
  12   2.0000      -0.533899       -14.5281
  13   2.0000      -0.416153       -11.3241
  14   2.0000      -0.389842       -10.6081
  15   0.0000       0.146322         3.9816
  16   0.0000       0.273675         7.4471
  17   0.0000       0.566993        15.4287
  18   0.0000       0.596356        16.2277
  19   0.0000       0.632654        17.2154

MULLIKEN ATOMIC CHARGES
-----------------------
   0 C :    0.168969
   1 O :   -0.349055
   2 C :   -0.169203
   3 C :   -0.223897
   4 H :    0.139892
   5 H :    0.155555
   6 H :    0.137682
   7 H :    0.140057
Sum of atomic charges:   -0.0000000

LOEWDIN ATOMIC CHARGES
----------------------
   0 C :    0.151554
   1 O :   -0.246767
   2 C :   -0.127040
   3 C :   -0.131341
   4 H :    0.069376
   5 H :    0.101542
   6 H :    0.092405
   7 H :    0.090271

  Mayer bond orders larger than 0.100000
B(  0-C ,  1-O ) :   1.9215 B(  0-C ,  2-C ) :   1.0057 B(  0-C ,  4-H ) :   0.9264
B(  2-C ,  3-C ) :   1.9535 B(  2-C ,  5-H ) :   0.9566 B(  3-C ,  6-H ) :   0.9648
B(  3-C ,  7-H ) :   0.9662

-----------------------------------------------------------------------------
         ABSORPTION SPECTRUM VIA TRANSITION ELECTRIC DIPOLE MOMENTS
-----------------------------------------------------------------------------
State   Energy    Wavelength  fosc         T2        TX        TY        TZ
        (cm-1)      (nm)                 (au**2)    (au)      (au)      (au)
-----------------------------------------------------------------------------
   1   35082.4    285.0   0.000168517   0.00158   0.03470   0.01842   0.00616

Dispersion correction           -0.025656782
FINAL SINGLE POINT ENERGY      -189.320950613982

DIPOLE MOMENT
-------------
                                X             Y             Z
Electronic contribution:     -3.11725      -0.66554       1.19581
Nuclear contribution   :      4.01458       0.83304      -1.84000
                        -----------------------------------------
Total Dipole Moment    :      0.89733       0.16750      -0.64420
                        -----------------------------------------
Magnitude (a.u.)       :      1.11725
Magnitude (Debye)      :      2.83983

Rotational constants in cm-1:     1.302816     0.161540     0.148742
Rotational constants in MHz : 39057.427811  4842.852932  4459.158184

                             ****ORCA TERMINATED NORMALLY****
TOTAL RUN TIME: 0 days 0 hours 0 minutes 12 seconds 502 msec
