                         Program Version 5.0.3 -  RELEASE  -
|  1> ! HF-3c
|  2> !TightSCF
|  3> %scf
|  4>  ConvForced true
|  5>  convergence tight
|  6>  MaxIter 500
|  7> end
|  8>
|  9> %tddft
| 10>  nroots 1
| 11> end
| 12>
| 13> # 	1477
| 14> * xyz 0 1
| 15> 		C   -1.140794  -0.500779  -0.029158
| 16> 		O   -2.109926  -0.555799  -0.810625
| 17> 		C    0.013693   0.346170  -0.302099
| 18> 		C    1.163111   0.129458   0.366138
| 19> 		H   -1.234437  -0.576440   0.976843
| 20> 		H   -0.053282   1.090284  -1.130936
| 21> 		H    1.381089  -0.559599   0.990696
| 22> 		H    1.971565   0.631602   0.038153
| 23> *
| 24>
| 25>                          ****END OF INPUT****

CARTESIAN COORDINATES (ANGSTROEM)
---------------------------------
  C     -1.140794   -0.500779   -0.029158
  O     -2.109926   -0.555799   -0.810625
  C      0.013693    0.346170   -0.302099
  C      1.163111    0.129458    0.366138
  H     -1.234437   -0.576440    0.976843
  H     -0.053282    1.090284   -1.130936
  H      1.381089   -0.559599    0.990696
  H      1.971565    0.631602    0.038153

 Total Charge           Charge          ....    0
 Multiplicity           Mult            ....    1
 Number of Electrons    NEL             ....   30
 Basis Dimension        Dim             ....   24

ORBITAL ENERGIES
----------------

  NO   OCC          E(Eh)            E(eV)
   0   2.0000     -20.372580      -554.3661
   1   2.0000     -11.295328      -307.3615
   2   2.0000     -11.204053      -304.8778
   3   2.0000     -11.195555      -304.6465
   4   2.0000      -1.386388       -37.7255
   5   2.0000      -1.100942       -29.9582
   6   2.0000      -0.919301       -25.0155
   7   2.0000      -0.802919       -21.8485
   8   2.0000      -0.688358       -18.7312
   9   2.0000      -0.660528       -17.9739
  10   2.0000      -0.592840       -16.1320
  11   2.0000      -0.569645       -15.5008
  12   2.0000      -0.520392       -14.1606
  13   2.0000      -0.426958       -11.6181
  14   2.0000      -0.396621       -10.7926
  15   0.0000       0.112154         3.0519
  16   0.0000       0.264101         7.1866
  17   0.0000       0.587167        15.9776
  18   0.0000       0.649919        17.6852
  19   0.0000       0.735786        20.0217

MULLIKEN ATOMIC CHARGES
-----------------------
   0 C :    0.132247
   1 O :   -0.324227
   2 C :   -0.136161
   3 C :   -0.274380
   4 H :    0.147466
   5 H :    0.163918
   6 H :    0.143676
   7 H :    0.147460
Sum of atomic charges:    0.0000000

LOEWDIN ATOMIC CHARGES
----------------------
   0 C :    0.130784
   1 O :   -0.239573
   2 C :   -0.089464
   3 C :   -0.161750
   4 H :    0.076204
   5 H :    0.109487
   6 H :    0.083447
   7 H :    0.090865

  Mayer bond orders larger than 0.100000
B(  0-C ,  1-O ) :   1.8992 B(  0-C ,  2-C ) :   1.0371 B(  0-C ,  4-H ) :   0.9345
B(  2-C ,  3-C ) :   1.9452 B(  2-C ,  5-H ) :   0.9513 B(  3-C ,  6-H ) :   0.9697
B(  3-C ,  7-H ) :   0.9667

-----------------------------------------------------------------------------
         ABSORPTION SPECTRUM VIA TRANSITION ELECTRIC DIPOLE MOMENTS
-----------------------------------------------------------------------------
State   Energy    Wavelength  fosc         T2        TX        TY        TZ
        (cm-1)      (nm)                 (au**2)    (au)      (au)      (au)
-----------------------------------------------------------------------------
   1   28165.7    355.0   0.000186505   0.00218   0.01818   0.02366  -0.03591

Dispersion correction           -0.025959733
FINAL SINGLE POINT ENERGY      -189.312092986237

DIPOLE MOMENT
-------------
                                X             Y             Z
Electronic contribution:     -3.15765      -0.91019      -1.09928
Nuclear contribution   :      4.00558       1.11958       1.59281
                        -----------------------------------------
Total Dipole Moment    :      0.84792       0.20939       0.49353
                        -----------------------------------------
Magnitude (a.u.)       :      1.00319
Magnitude (Debye)      :      2.54991

Rotational constants in cm-1:     1.578711     0.156254     0.144423
Rotational constants in MHz : 47328.566835  4684.366004  4329.699828

                             ****ORCA TERMINATED NORMALLY****
TOTAL RUN TIME: 0 days 0 hours 0 minutes 12 seconds 117 msec
