                         Program Version 5.0.3 -  RELEASE  -
|  1> ! B3LYP cc-pVDZ
|  2> !TightSCF
|  3> %scf
|  4>  ConvForced true
|  5>  convergence tight
|  6>  MaxIter 500
|  7> end
|  8>
|  9> %tddft
| 10>  nroots 1
| 11> end
| 12>
| 13> # 	30147
| 14> * xyz 0 1
| 15> 		C   -0.607814  -0.438048   0.035614
| 16> 		O   -0.560103  -1.594372  -0.016274
| 17> 		C    0.653517   0.391645  -0.028154
| 18> 		C    1.808345  -0.180040   0.017965
| 19> 		H   -1.390400   0.215107  -0.025863
| 20> 		H    0.456798   1.505777   0.017860
| 21> 		H    2.089608  -0.976710   0.053033
| 22> 		H    2.592102   0.555096  -0.094826
| 23> *
| 24>
| 25>                          ****END OF INPUT****

CARTESIAN COORDINATES (ANGSTROEM)
---------------------------------
  C     -0.607814   -0.438048    0.035614
  O     -0.560103   -1.594372   -0.016274
  C      0.653517    0.391645   -0.028154
  C      1.808345   -0.180040    0.017965
  H     -1.390400    0.215107   -0.025863
  H      0.456798    1.505777    0.017860
  H      2.089608   -0.976710    0.053033
  H      2.592102    0.555096   -0.094826

 Total Charge           Charge          ....    0
 Multiplicity           Mult            ....    1
 Number of Electrons    NEL             ....   30
 Basis Dimension        Dim             ....   76

ORBITAL ENERGIES
----------------

  NO   OCC          E(Eh)            E(eV)
   0   2.0000     -19.139650      -520.8164
   1   2.0000     -10.261692      -279.2348
   2   2.0000     -10.192851      -277.3616
   3   2.0000     -10.177763      -276.9510
   4   2.0000      -1.076795       -29.3011
   5   2.0000      -0.802704       -21.8427
   6   2.0000      -0.674845       -18.3635
   7   2.0000      -0.575178       -15.6514
   8   2.0000      -0.511240       -13.9116
   9   2.0000      -0.466093       -12.6830
  10   2.0000      -0.428614       -11.6632
  11   2.0000      -0.414947       -11.2913
  12   2.0000      -0.382565       -10.4101
  13   2.0000      -0.291689        -7.9373
  14   2.0000      -0.249531        -6.7901
  15   0.0000      -0.056868        -1.5475
  16   0.0000       0.064689         1.7603
  17   0.0000       0.071971         1.9584
  18   0.0000       0.108356         2.9485
  19   0.0000       0.136949         3.7266

MULLIKEN ATOMIC CHARGES
-----------------------
   0 C :    0.236950
   1 O :   -0.147841
   2 C :   -0.214901
   3 C :    0.317674
   4 H :   -0.054875
   5 H :   -0.003393
   6 H :   -0.142830
   7 H :    0.009216
Sum of atomic charges:   -0.0000000

LOEWDIN ATOMIC CHARGES
----------------------
   0 C :   -0.053252
   1 O :    0.056554
   2 C :   -0.064788
   3 C :    0.075274
   4 H :   -0.026226
   5 H :    0.032911
   6 H :   -0.066174
   7 H :    0.045700

  Mayer bond orders larger than 0.100000
B(  0-C ,  1-O ) :   2.2758 B(  0-C ,  2-C ) :   1.0407 B(  0-C ,  4-H ) :   0.9186
B(  2-C ,  3-C ) :   2.0000 B(  2-C ,  5-H ) :   0.9295 B(  3-C ,  6-H ) :   0.9232
B(  3-C ,  7-H ) :   0.9352

-----------------------------------------------------------------------------
         ABSORPTION SPECTRUM VIA TRANSITION ELECTRIC DIPOLE MOMENTS
-----------------------------------------------------------------------------
State   Energy    Wavelength  fosc         T2        TX        TY        TZ
        (cm-1)      (nm)                 (au**2)    (au)      (au)      (au)
-----------------------------------------------------------------------------
   1   29297.3    341.3   0.000192668   0.00217  -0.04049  -0.01342  -0.01859

FINAL SINGLE POINT ENERGY      -191.581258011106

DIPOLE MOMENT
-------------
                                X             Y             Z
Electronic contribution:     -2.10502      -2.21040       0.07645
Nuclear contribution   :      2.35993       3.00429      -0.04661
                        -----------------------------------------
Total Dipole Moment    :      0.25490       0.79388       0.02984
                        -----------------------------------------
Magnitude (a.u.)       :      0.83434
Magnitude (Debye)      :      2.12071

Rotational constants in cm-1:     0.798854     0.219316     0.172236
Rotational constants in MHz : 23949.027065  6574.927500  5163.494406

                             ****ORCA TERMINATED NORMALLY****
TOTAL RUN TIME: 0 days 0 hours 3 minutes 20 seconds 389 msec
