                         Program Version 5.0.3 -  RELEASE  -
|  1> ! HF-3c
|  2> !TightSCF
|  3> %scf
|  4>  ConvForced true
|  5>  convergence tight
|  6>  MaxIter 500
|  7> end
|  8>
|  9> %tddft
| 10>  nroots 1
| 11> end
| 12>
| 13> # 	32591
| 14> * xyz 0 1
| 15> 		C   -0.647597  -0.420957   0.031925
| 16> 		O   -0.542818  -1.622422  -0.005960
| 17> 		C    0.655172   0.413613  -0.004440
| 18> 		C    1.860186  -0.142396  -0.017063
| 19> 		H   -1.615136  -0.003518  -0.172437
| 20> 		H    0.679580   1.542239   0.029727
| 21> 		H    1.864043  -1.319076   0.050761
| 22> 		H    2.423682   0.550403   0.068898
| 23> *
| 24>
| 25>                          ****END OF INPUT****

CARTESIAN COORDINATES (ANGSTROEM)
---------------------------------
  C     -0.647597   -0.420957    0.031925
  O     -0.542818   -1.622422   -0.005960
  C      0.655172    0.413613   -0.004440
  C      1.860186   -0.142396   -0.017063
  H     -1.615136   -0.003518   -0.172437
  H      0.679580    1.542239    0.029727
  H      1.864043   -1.319076    0.050761
  H      2.423682    0.550403    0.068898

 Total Charge           Charge          ....    0
 Multiplicity           Mult            ....    1
 Number of Electrons    NEL             ....   30
 Basis Dimension        Dim             ....   24

ORBITAL ENERGIES
----------------

  NO   OCC          E(Eh)            E(eV)
   0   2.0000     -20.372206      -554.3559
   1   2.0000     -11.300161      -307.4930
   2   2.0000     -11.182582      -304.2935
   3   2.0000     -11.180257      -304.2303
   4   2.0000      -1.412624       -38.4394
   5   2.0000      -1.087931       -29.6041
   6   2.0000      -0.885482       -24.0952
   7   2.0000      -0.759094       -20.6560
   8   2.0000      -0.705699       -19.2030
   9   2.0000      -0.618037       -16.8176
  10   2.0000      -0.595149       -16.1948
  11   2.0000      -0.542654       -14.7664
  12   2.0000      -0.522332       -14.2134
  13   2.0000      -0.419639       -11.4190
  14   2.0000      -0.397477       -10.8159
  15   0.0000       0.136998         3.7279
  16   0.0000       0.295118         8.0306
  17   0.0000       0.509294        13.8586
  18   0.0000       0.570172        15.5152
  19   0.0000       0.623128        16.9562

MULLIKEN ATOMIC CHARGES
-----------------------
   0 C :    0.155827
   1 O :   -0.350262
   2 C :   -0.140514
   3 C :   -0.280730
   4 H :    0.145988
   5 H :    0.136195
   6 H :    0.186845
   7 H :    0.146650
Sum of atomic charges:    0.0000000

LOEWDIN ATOMIC CHARGES
----------------------
   0 C :    0.140046
   1 O :   -0.252577
   2 C :   -0.101966
   3 C :   -0.173030
   4 H :    0.079018
   5 H :    0.088148
   6 H :    0.137483
   7 H :    0.082877

  Mayer bond orders larger than 0.100000
B(  0-C ,  1-O ) :   1.9213 B(  0-C ,  2-C ) :   0.9940 B(  0-C ,  4-H ) :   0.9307
B(  2-C ,  3-C ) :   1.9676 B(  2-C ,  5-H ) :   0.9611 B(  3-C ,  6-H ) :   0.9470
B(  3-C ,  7-H ) :   0.9687

-----------------------------------------------------------------------------
         ABSORPTION SPECTRUM VIA TRANSITION ELECTRIC DIPOLE MOMENTS
-----------------------------------------------------------------------------
State   Energy    Wavelength  fosc         T2        TX        TY        TZ
        (cm-1)      (nm)                 (au**2)    (au)      (au)      (au)
-----------------------------------------------------------------------------
   1   32567.0    307.1   0.000234721   0.00237   0.04500   0.00937   0.01612

Dispersion correction           -0.025954879
FINAL SINGLE POINT ENERGY      -189.273588670052

DIPOLE MOMENT
-------------
                                X             Y             Z
Electronic contribution:     -1.93958      -1.68867       0.05427
Nuclear contribution   :      1.98589       2.51146      -0.02216
                        -----------------------------------------
Total Dipole Moment    :      0.04631       0.82279       0.03211
                        -----------------------------------------
Magnitude (a.u.)       :      0.82472
Magnitude (Debye)      :      2.09626

Rotational constants in cm-1:     0.756692     0.211780     0.165647
Rotational constants in MHz : 22685.050407  6349.014665  4965.977412

                             ****ORCA TERMINATED NORMALLY****
TOTAL RUN TIME: 0 days 0 hours 0 minutes 10 seconds 669 msec
