                         Program Version 5.0.3 -  RELEASE  -
|  1> ! HF-3c
|  2> !TightSCF
|  3> %scf
|  4>  ConvForced true
|  5>  convergence tight
|  6>  MaxIter 500
|  7> end
|  8>
|  9> %tddft
| 10>  nroots 1
| 11> end
| 12>
| 13> # 	26480
| 14> * xyz 0 1
| 15> 		C   -0.542948  -0.476462   0.021446
| 16> 		O   -0.643739  -1.696453  -0.018175
| 17> 		C    0.643015   0.488916  -0.005862
| 18> 		C    1.867368  -0.078515   0.026401
| 19> 		H   -1.429281   0.220061  -0.032085
| 20> 		H    0.441157   1.406882  -0.000199
| 21> 		H    2.002147  -1.124684   0.130744
| 22> 		H    2.732777   0.453940  -0.329772
| 23> *
| 24>
| 25>                          ****END OF INPUT****

CARTESIAN COORDINATES (ANGSTROEM)
---------------------------------
  C     -0.542948   -0.476462    0.021446
  O     -0.643739   -1.696453   -0.018175
  C      0.643015    0.488916   -0.005862
  C      1.867368   -0.078515    0.026401
  H     -1.429281    0.220061   -0.032085
  H      0.441157    1.406882   -0.000199
  H      2.002147   -1.124684    0.130744
  H      2.732777    0.453940   -0.329772

 Total Charge           Charge          ....    0
 Multiplicity           Mult            ....    1
 Number of Electrons    NEL             ....   30
 Basis Dimension        Dim             ....   24

ORBITAL ENERGIES
----------------

  NO   OCC          E(Eh)            E(eV)
   0   2.0000     -20.367353      -554.2239
   1   2.0000     -11.292029      -307.2717
   2   2.0000     -11.203905      -304.8737
   3   2.0000     -11.196368      -304.6687
   4   2.0000      -1.388474       -37.7823
   5   2.0000      -1.088637       -29.6233
   6   2.0000      -0.899606       -24.4795
   7   2.0000      -0.772450       -21.0194
   8   2.0000      -0.702174       -19.1071
   9   2.0000      -0.624443       -16.9920
  10   2.0000      -0.594364       -16.1735
  11   2.0000      -0.564177       -15.3520
  12   2.0000      -0.530979       -14.4487
  13   2.0000      -0.407170       -11.0797
  14   2.0000      -0.392694       -10.6857
  15   0.0000       0.121957         3.3186
  16   0.0000       0.282954         7.6996
  17   0.0000       0.529477        14.4078
  18   0.0000       0.630042        17.1443
  19   0.0000       0.689664        18.7667

MULLIKEN ATOMIC CHARGES
-----------------------
   0 C :    0.184123
   1 O :   -0.356351
   2 C :   -0.197887
   3 C :   -0.203127
   4 H :    0.123048
   5 H :    0.142612
   6 H :    0.159193
   7 H :    0.148389
Sum of atomic charges:   -0.0000000

LOEWDIN ATOMIC CHARGES
----------------------
   0 C :    0.165277
   1 O :   -0.264624
   2 C :   -0.144608
   3 C :   -0.095632
   4 H :    0.062862
   5 H :    0.079218
   6 H :    0.101824
   7 H :    0.095682

  Mayer bond orders larger than 0.100000
B(  0-C ,  1-O ) :   1.9219 B(  0-C ,  2-C ) :   1.0072 B(  0-C ,  4-H ) :   0.9218
B(  2-C ,  3-C ) :   1.9408 B(  2-C ,  5-H ) :   0.9673 B(  3-C ,  6-H ) :   0.9614
B(  3-C ,  7-H ) :   0.9647

-----------------------------------------------------------------------------
         ABSORPTION SPECTRUM VIA TRANSITION ELECTRIC DIPOLE MOMENTS
-----------------------------------------------------------------------------
State   Energy    Wavelength  fosc         T2        TX        TY        TZ
        (cm-1)      (nm)                 (au**2)    (au)      (au)      (au)
-----------------------------------------------------------------------------
   1   32134.6    311.2   0.000064545   0.00066  -0.02507   0.00091  -0.00567

Dispersion correction           -0.025664419
FINAL SINGLE POINT ENERGY      -189.311556943952

DIPOLE MOMENT
-------------
                                X             Y             Z
Electronic contribution:     -1.90055      -1.77607       0.18424
Nuclear contribution   :      2.35595       2.68445      -0.21596
                        -----------------------------------------
Total Dipole Moment    :      0.45541       0.90838      -0.03172
                        -----------------------------------------
Magnitude (a.u.)       :      1.01664
Magnitude (Debye)      :      2.58410

Rotational constants in cm-1:     0.773503     0.195130     0.156247
Rotational constants in MHz : 23189.022003  5849.857302  4684.179087

                             ****ORCA TERMINATED NORMALLY****
TOTAL RUN TIME: 0 days 0 hours 0 minutes 10 seconds 422 msec
