                         Program Version 5.0.3 -  RELEASE  -
|  1> ! B3LYP cc-pVDZ
|  2> !TightSCF
|  3> %scf
|  4>  ConvForced true
|  5>  convergence tight
|  6>  MaxIter 500
|  7> end
|  8>
|  9> %tddft
| 10>  nroots 1
| 11> end
| 12>
| 13> # 	27891
| 14> * xyz 0 1
| 15> 		C   -0.552620  -0.429383   0.016123
| 16> 		O   -0.507979  -1.605053  -0.008040
| 17> 		C    0.601659   0.512389  -0.064129
| 18> 		C    1.759402  -0.254560   0.033100
| 19> 		H   -1.563602  -0.000235   0.195298
| 20> 		H    0.712801   1.673742   0.109605
| 21> 		H    1.745098  -1.347842  -0.029691
| 22> 		H    2.639986   0.432311   0.033829
| 23> *
| 24>
| 25>                          ****END OF INPUT****

CARTESIAN COORDINATES (ANGSTROEM)
---------------------------------
  C     -0.552620   -0.429383    0.016123
  O     -0.507979   -1.605053   -0.008040
  C      0.601659    0.512389   -0.064129
  C      1.759402   -0.254560    0.033100
  H     -1.563602   -0.000235    0.195298
  H      0.712801    1.673742    0.109605
  H      1.745098   -1.347842   -0.029691
  H      2.639986    0.432311    0.033829

 Total Charge           Charge          ....    0
 Multiplicity           Mult            ....    1
 Number of Electrons    NEL             ....   30
 Basis Dimension        Dim             ....   76

ORBITAL ENERGIES
----------------

  NO   OCC          E(Eh)            E(eV)
   0   2.0000     -19.135071      -520.6917
   1   2.0000     -10.272586      -279.5313
   2   2.0000     -10.217732      -278.0386
   3   2.0000     -10.215060      -277.9659
   4   2.0000      -1.066422       -29.0188
   5   2.0000      -0.786123       -21.3915
   6   2.0000      -0.638927       -17.3861
   7   2.0000      -0.531986       -14.4761
   8   2.0000      -0.515647       -14.0315
   9   2.0000      -0.448028       -12.1915
  10   2.0000      -0.409675       -11.1478
  11   2.0000      -0.397876       -10.8268
  12   2.0000      -0.384809       -10.4712
  13   2.0000      -0.281123        -7.6497
  14   2.0000      -0.252760        -6.8780
  15   0.0000      -0.066197        -1.8013
  16   0.0000       0.049155         1.3376
  17   0.0000       0.059746         1.6258
  18   0.0000       0.093870         2.5543
  19   0.0000       0.116087         3.1589

MULLIKEN ATOMIC CHARGES
-----------------------
   0 C :    0.202063
   1 O :   -0.172754
   2 C :   -0.179590
   3 C :    0.062768
   4 H :   -0.036087
   5 H :    0.039006
   6 H :    0.056332
   7 H :    0.028264
Sum of atomic charges:   -0.0000000

LOEWDIN ATOMIC CHARGES
----------------------
   0 C :   -0.059174
   1 O :    0.021223
   2 C :   -0.098663
   3 C :    0.035142
   4 H :   -0.014426
   5 H :    0.051874
   6 H :    0.031829
   7 H :    0.032195

  Mayer bond orders larger than 0.100000
B(  0-C ,  1-O ) :   2.2006 B(  0-C ,  2-C ) :   1.0074 B(  0-C ,  4-H ) :   0.9288
B(  2-C ,  3-C ) :   1.9229 B(  2-C ,  5-H ) :   0.9435 B(  3-C ,  6-H ) :   0.9329
B(  3-C ,  7-H ) :   0.9458

-----------------------------------------------------------------------------
         ABSORPTION SPECTRUM VIA TRANSITION ELECTRIC DIPOLE MOMENTS
-----------------------------------------------------------------------------
State   Energy    Wavelength  fosc         T2        TX        TY        TZ
        (cm-1)      (nm)                 (au**2)    (au)      (au)      (au)
-----------------------------------------------------------------------------
   1   28777.4    347.5   0.000714808   0.00818   0.07977   0.01703   0.03904

FINAL SINGLE POINT ENERGY      -191.650368147352

DIPOLE MOMENT
-------------
                                X             Y             Z
Electronic contribution:     -1.76658      -1.68138      -0.22309
Nuclear contribution   :      2.15535       2.50014       0.28956
                        -----------------------------------------
Total Dipole Moment    :      0.38876       0.81877       0.06647
                        -----------------------------------------
Magnitude (a.u.)       :      0.90881
Magnitude (Debye)      :      2.31001

Rotational constants in cm-1:     0.698662     0.232578     0.174921
Rotational constants in MHz : 20945.362489  6972.502157  5244.006031

                             ****ORCA TERMINATED NORMALLY****
TOTAL RUN TIME: 0 days 0 hours 3 minutes 5 seconds 463 msec
