                         Program Version 5.0.3 -  RELEASE  -
|  1> ! HF-3c
|  2> !TightSCF
|  3> %scf
|  4>  ConvForced true
|  5>  convergence tight
|  6>  MaxIter 500
|  7> end
|  8>
|  9> %tddft
| 10>  nroots 1
| 11> end
| 12>
| 13> # 	30388
| 14> * xyz 0 1
| 15> 		C   -0.615108  -0.445471   0.073144
| 16> 		O   -0.561083  -1.615329  -0.054384
| 17> 		C    0.599850   0.381107  -0.042900
| 18> 		C    1.854509  -0.101338   0.006097
| 19> 		H   -1.487514   0.257703   0.214957
| 20> 		H    0.473205   1.545236  -0.147218
| 21> 		H    2.023900  -1.170241   0.501664
| 22> 		H    2.900375   0.262218  -0.166018
| 23> *
| 24>
| 25>                          ****END OF INPUT****

CARTESIAN COORDINATES (ANGSTROEM)
---------------------------------
  C     -0.615108   -0.445471    0.073144
  O     -0.561083   -1.615329   -0.054384
  C      0.599850    0.381107   -0.042900
  C      1.854509   -0.101338    0.006097
  H     -1.487514    0.257703    0.214957
  H      0.473205    1.545236   -0.147218
  H      2.023900   -1.170241    0.501664
  H      2.900375    0.262218   -0.166018

 Total Charge           Charge          ....    0
 Multiplicity           Mult            ....    1
 Number of Electrons    NEL             ....   30
 Basis Dimension        Dim             ....   24

ORBITAL ENERGIES
----------------

  NO   OCC          E(Eh)            E(eV)
   0   2.0000     -20.377165      -554.4909
   1   2.0000     -11.306265      -307.6591
   2   2.0000     -11.178740      -304.1890
   3   2.0000     -11.170650      -303.9688
   4   2.0000      -1.427181       -38.8356
   5   2.0000      -1.053959       -28.6797
   6   2.0000      -0.883254       -24.0346
   7   2.0000      -0.735664       -20.0184
   8   2.0000      -0.682132       -18.5617
   9   2.0000      -0.617913       -16.8143
  10   2.0000      -0.589529       -16.0419
  11   2.0000      -0.550764       -14.9870
  12   2.0000      -0.489563       -13.3217
  13   2.0000      -0.408080       -11.1044
  14   2.0000      -0.374912       -10.2019
  15   0.0000       0.137748         3.7483
  16   0.0000       0.312369         8.5000
  17   0.0000       0.495382        13.4800
  18   0.0000       0.588034        16.0012
  19   0.0000       0.613794        16.7022

MULLIKEN ATOMIC CHARGES
-----------------------
   0 C :    0.178533
   1 O :   -0.357735
   2 C :   -0.178884
   3 C :   -0.199427
   4 H :    0.138861
   5 H :    0.133373
   6 H :    0.139315
   7 H :    0.145965
Sum of atomic charges:   -0.0000000

LOEWDIN ATOMIC CHARGES
----------------------
   0 C :    0.151861
   1 O :   -0.252031
   2 C :   -0.150648
   3 C :   -0.108852
   4 H :    0.075869
   5 H :    0.090599
   6 H :    0.095991
   7 H :    0.097212

  Mayer bond orders larger than 0.100000
B(  0-C ,  1-O ) :   1.9125 B(  0-C ,  2-C ) :   1.0211 B(  0-C ,  4-H ) :   0.9128
B(  2-C ,  3-C ) :   1.9428 B(  2-C ,  5-H ) :   0.9553 B(  3-C ,  6-H ) :   0.9592
B(  3-C ,  7-H ) :   0.9645

-----------------------------------------------------------------------------
         ABSORPTION SPECTRUM VIA TRANSITION ELECTRIC DIPOLE MOMENTS
-----------------------------------------------------------------------------
State   Energy    Wavelength  fosc         T2        TX        TY        TZ
        (cm-1)      (nm)                 (au**2)    (au)      (au)      (au)
-----------------------------------------------------------------------------
   1   34516.3    289.7   0.000027158   0.00026   0.01058   0.01108  -0.00494

Dispersion correction           -0.025255290
FINAL SINGLE POINT ENERGY      -189.300669430129

DIPOLE MOMENT
-------------
                                X             Y             Z
Electronic contribution:     -2.19167      -1.71732      -0.22012
Nuclear contribution   :      2.51380       2.62552       0.37946
                        -----------------------------------------
Total Dipole Moment    :      0.32212       0.90820       0.15934
                        -----------------------------------------
Magnitude (a.u.)       :      0.97671
Magnitude (Debye)      :      2.48261

Rotational constants in cm-1:     0.743824     0.209737     0.165157
Rotational constants in MHz : 22299.278027  6287.769400  4951.270453

                             ****ORCA TERMINATED NORMALLY****
TOTAL RUN TIME: 0 days 0 hours 0 minutes 9 seconds 476 msec
