                         Program Version 5.0.3 -  RELEASE  -
|  1> ! HF-3c
|  2> !TightSCF
|  3> %scf
|  4>  ConvForced true
|  5>  convergence tight
|  6>  MaxIter 500
|  7> end
|  8>
|  9> %tddft
| 10>  nroots 1
| 11> end
| 12>
| 13> # 	32623
| 14> * xyz 0 1
| 15> 		C   -0.532954  -0.420510   0.032587
| 16> 		O   -0.633757  -1.654782  -0.030279
| 17> 		C    0.605344   0.367689  -0.029733
| 18> 		C    1.897254  -0.086801   0.025002
| 19> 		H   -1.420479   0.173545   0.164069
| 20> 		H    0.346397   1.462857  -0.053615
| 21> 		H    1.908304  -1.112375   0.247763
| 22> 		H    2.706050   0.650277  -0.230849
| 23> *
| 24>
| 25>                          ****END OF INPUT****

CARTESIAN COORDINATES (ANGSTROEM)
---------------------------------
  C     -0.532954   -0.420510    0.032587
  O     -0.633757   -1.654782   -0.030279
  C      0.605344    0.367689   -0.029733
  C      1.897254   -0.086801    0.025002
  H     -1.420479    0.173545    0.164069
  H      0.346397    1.462857   -0.053615
  H      1.908304   -1.112375    0.247763
  H      2.706050    0.650277   -0.230849

 Total Charge           Charge          ....    0
 Multiplicity           Mult            ....    1
 Number of Electrons    NEL             ....   30
 Basis Dimension        Dim             ....   24

ORBITAL ENERGIES
----------------

  NO   OCC          E(Eh)            E(eV)
   0   2.0000     -20.349178      -553.7293
   1   2.0000     -11.285210      -307.0862
   2   2.0000     -11.200433      -304.7793
   3   2.0000     -11.185658      -304.3772
   4   2.0000      -1.375639       -37.4330
   5   2.0000      -1.087395       -29.5895
   6   2.0000      -0.919125       -25.0107
   7   2.0000      -0.734482       -19.9863
   8   2.0000      -0.707312       -19.2469
   9   2.0000      -0.609486       -16.5850
  10   2.0000      -0.596845       -16.2410
  11   2.0000      -0.533440       -14.5156
  12   2.0000      -0.527104       -14.3432
  13   2.0000      -0.416260       -11.3270
  14   2.0000      -0.377359       -10.2685
  15   0.0000       0.105533         2.8717
  16   0.0000       0.319003         8.6805
  17   0.0000       0.549730        14.9589
  18   0.0000       0.608648        16.5621
  19   0.0000       0.672916        18.3110

MULLIKEN ATOMIC CHARGES
-----------------------
   0 C :    0.134826
   1 O :   -0.348901
   2 C :   -0.176778
   3 C :   -0.210036
   4 H :    0.131961
   5 H :    0.138927
   6 H :    0.167080
   7 H :    0.162922
Sum of atomic charges:   -0.0000000

LOEWDIN ATOMIC CHARGES
----------------------
   0 C :    0.129545
   1 O :   -0.265989
   2 C :   -0.138377
   3 C :   -0.104303
   4 H :    0.067597
   5 H :    0.090540
   6 H :    0.108239
   7 H :    0.112748

  Mayer bond orders larger than 0.100000
B(  0-C ,  1-O ) :   1.8590 B(  0-C ,  2-C ) :   1.0927 B(  0-C ,  4-H ) :   0.9305
B(  1-O ,  3-C ) :   0.1027 B(  2-C ,  3-C ) :   1.8912 B(  2-C ,  5-H ) :   0.9573
B(  3-C ,  6-H ) :   0.9587 B(  3-C ,  7-H ) :   0.9616

-----------------------------------------------------------------------------
         ABSORPTION SPECTRUM VIA TRANSITION ELECTRIC DIPOLE MOMENTS
-----------------------------------------------------------------------------
State   Energy    Wavelength  fosc         T2        TX        TY        TZ
        (cm-1)      (nm)                 (au**2)    (au)      (au)      (au)
-----------------------------------------------------------------------------
   1   29216.7    342.3   0.000048860   0.00055  -0.01795  -0.00490  -0.01430

Dispersion correction           -0.026056259
FINAL SINGLE POINT ENERGY      -189.332487488070

DIPOLE MOMENT
-------------
                                X             Y             Z
Electronic contribution:     -1.66797      -1.86334      -0.06761
Nuclear contribution   :      2.16382       2.88949       0.12049
                        -----------------------------------------
Total Dipole Moment    :      0.49584       1.02615       0.05288
                        -----------------------------------------
Magnitude (a.u.)       :      1.14089
Magnitude (Debye)      :      2.89992

Rotational constants in cm-1:     0.807677     0.201839     0.162077
Rotational constants in MHz : 24213.548960  6050.980094  4858.957402

                             ****ORCA TERMINATED NORMALLY****
TOTAL RUN TIME: 0 days 0 hours 0 minutes 11 seconds 613 msec
