                         Program Version 5.0.3 -  RELEASE  -
|  1> ! B3LYP cc-pVDZ
|  2> !TightSCF
|  3> %scf
|  4>  ConvForced true
|  5>  convergence tight
|  6>  MaxIter 500
|  7> end
|  8>
|  9> %tddft
| 10>  nroots 1
| 11> end
| 12>
| 13> # 	28799
| 14> * xyz 0 1
| 15> 		C   -0.544715  -0.400442  -0.106462
| 16> 		O   -0.614353  -1.649157   0.052752
| 17> 		C    0.677333   0.338586   0.053292
| 18> 		C    1.815307  -0.076220  -0.022761
| 19> 		H   -1.590093   0.287551   0.025037
| 20> 		H    0.348121   1.396663   0.173878
| 21> 		H    2.069870  -1.226484  -0.201895
| 22> 		H    2.680227   0.656042   0.086408
| 23> *
| 24>
| 25>                          ****END OF INPUT****

CARTESIAN COORDINATES (ANGSTROEM)
---------------------------------
  C     -0.544715   -0.400442   -0.106462
  O     -0.614353   -1.649157    0.052752
  C      0.677333    0.338586    0.053292
  C      1.815307   -0.076220   -0.022761
  H     -1.590093    0.287551    0.025037
  H      0.348121    1.396663    0.173878
  H      2.069870   -1.226484   -0.201895
  H      2.680227    0.656042    0.086408

 Total Charge           Charge          ....    0
 Multiplicity           Mult            ....    1
 Number of Electrons    NEL             ....   30
 Basis Dimension        Dim             ....   76

ORBITAL ENERGIES
----------------

  NO   OCC          E(Eh)            E(eV)
   0   2.0000     -19.143581      -520.9233
   1   2.0000     -10.285738      -279.8892
   2   2.0000     -10.213773      -277.9309
   3   2.0000     -10.195654      -277.4379
   4   2.0000      -1.022900       -27.8345
   5   2.0000      -0.825676       -22.4678
   6   2.0000      -0.664636       -18.0857
   7   2.0000      -0.518907       -14.1202
   8   2.0000      -0.505536       -13.7563
   9   2.0000      -0.454642       -12.3714
  10   2.0000      -0.415568       -11.3082
  11   2.0000      -0.395635       -10.7658
  12   2.0000      -0.358716        -9.7612
  13   2.0000      -0.307114        -8.3570
  14   2.0000      -0.255984        -6.9657
  15   0.0000      -0.074211        -2.0194
  16   0.0000       0.040027         1.0892
  17   0.0000       0.066069         1.7978
  18   0.0000       0.078703         2.1416
  19   0.0000       0.106774         2.9055

MULLIKEN ATOMIC CHARGES
-----------------------
   0 C :    0.109555
   1 O :   -0.216919
   2 C :   -0.035941
   3 C :    0.054926
   4 H :   -0.000266
   5 H :   -0.012646
   6 H :    0.058890
   7 H :    0.042402
Sum of atomic charges:    0.0000000

LOEWDIN ATOMIC CHARGES
----------------------
   0 C :   -0.015171
   1 O :   -0.041975
   2 C :   -0.109988
   3 C :    0.005540
   4 H :    0.009192
   5 H :    0.041234
   6 H :    0.060665
   7 H :    0.050504

  Mayer bond orders larger than 0.100000
B(  0-C ,  1-O ) :   2.1387 B(  0-C ,  2-C ) :   1.0816 B(  0-C ,  4-H ) :   0.8865
B(  2-C ,  3-C ) :   2.0092 B(  2-C ,  5-H ) :   0.9279 B(  3-C ,  6-H ) :   0.9083
B(  3-C ,  7-H ) :   0.9109

-----------------------------------------------------------------------------
         ABSORPTION SPECTRUM VIA TRANSITION ELECTRIC DIPOLE MOMENTS
-----------------------------------------------------------------------------
State   Energy    Wavelength  fosc         T2        TX        TY        TZ
        (cm-1)      (nm)                 (au**2)    (au)      (au)      (au)
-----------------------------------------------------------------------------
   1   26286.7    380.4   0.000666204   0.00834  -0.06156   0.03152   0.05967

FINAL SINGLE POINT ENERGY      -191.639593229261

DIPOLE MOMENT
-------------
                                X             Y             Z
Electronic contribution:     -1.62493      -1.92068      -0.14150
Nuclear contribution   :      2.13279       2.82959       0.07797
                        -----------------------------------------
Total Dipole Moment    :      0.50786       0.90891      -0.06353
                        -----------------------------------------
Magnitude (a.u.)       :      1.04311
Magnitude (Debye)      :      2.65137

Rotational constants in cm-1:     0.807380     0.207132     0.165817
Rotational constants in MHz : 24204.641905  6209.652578  4971.054198

                             ****ORCA TERMINATED NORMALLY****
TOTAL RUN TIME: 0 days 0 hours 3 minutes 22 seconds 322 msec
