                         Program Version 5.0.3 -  RELEASE  -
|  1> ! HF-3c
|  2> !TightSCF
|  3> %scf
|  4>  ConvForced true
|  5>  convergence tight
|  6>  MaxIter 500
|  7> end
|  8>
|  9> %tddft
| 10>  nroots 1
| 11> end
| 12>
| 13> # 	14427
| 14> * xyz 0 1
| 15> 		C   -1.193717  -0.351735  -0.057001
| 16> 		O   -1.371860  -1.437799  -0.537574
| 17> 		C   -0.011537   0.429578  -0.128600
| 18> 		C    1.193903  -0.037563   0.063795
| 19> 		H   -2.035034   0.120623   0.641006
| 20> 		H   -0.127939   1.718198  -0.169917
| 21> 		H    1.410719  -0.988547   0.175748
| 22> 		H    2.166426   0.604440  -0.033088
| 23> *
| 24>
| 25>                          ****END OF INPUT****

CARTESIAN COORDINATES (ANGSTROEM)
---------------------------------
  C     -1.193717   -0.351735   -0.057001
  O     -1.371860   -1.437799   -0.537574
  C     -0.011537    0.429578   -0.128600
  C      1.193903   -0.037563    0.063795
  H     -2.035034    0.120623    0.641006
  H     -0.127939    1.718198   -0.169917
  H      1.410719   -0.988547    0.175748
  H      2.166426    0.604440   -0.033088

 Total Charge           Charge          ....    0
 Multiplicity           Mult            ....    1
 Number of Electrons    NEL             ....   30
 Basis Dimension        Dim             ....   24

ORBITAL ENERGIES
----------------

  NO   OCC          E(Eh)            E(eV)
   0   2.0000     -20.369814      -554.2908
   1   2.0000     -11.300221      -307.4946
   2   2.0000     -11.194965      -304.6305
   3   2.0000     -11.187935      -304.4392
   4   2.0000      -1.408892       -38.3379
   5   2.0000      -1.088254       -29.6129
   6   2.0000      -0.897067       -24.4104
   7   2.0000      -0.737473       -20.0677
   8   2.0000      -0.689709       -18.7679
   9   2.0000      -0.618988       -16.8435
  10   2.0000      -0.603061       -16.4101
  11   2.0000      -0.533557       -14.5188
  12   2.0000      -0.494069       -13.4443
  13   2.0000      -0.413702       -11.2574
  14   2.0000      -0.396045       -10.7769
  15   0.0000       0.144927         3.9437
  16   0.0000       0.289430         7.8758
  17   0.0000       0.445682        12.1276
  18   0.0000       0.558501        15.1976
  19   0.0000       0.616963        16.7884

MULLIKEN ATOMIC CHARGES
-----------------------
   0 C :    0.171406
   1 O :   -0.349976
   2 C :   -0.154871
   3 C :   -0.239678
   4 H :    0.130422
   5 H :    0.152515
   6 H :    0.142405
   7 H :    0.147777
Sum of atomic charges:    0.0000000

LOEWDIN ATOMIC CHARGES
----------------------
   0 C :    0.145294
   1 O :   -0.252937
   2 C :   -0.124281
   3 C :   -0.142872
   4 H :    0.074100
   5 H :    0.115123
   6 H :    0.082575
   7 H :    0.102998

  Mayer bond orders larger than 0.100000
B(  0-C ,  1-O ) :   1.9118 B(  0-C ,  2-C ) :   1.0383 B(  0-C ,  4-H ) :   0.9077
B(  2-C ,  3-C ) :   1.9604 B(  2-C ,  5-H ) :   0.9372 B(  3-C ,  6-H ) :   0.9647
B(  3-C ,  7-H ) :   0.9589

-----------------------------------------------------------------------------
         ABSORPTION SPECTRUM VIA TRANSITION ELECTRIC DIPOLE MOMENTS
-----------------------------------------------------------------------------
State   Energy    Wavelength  fosc         T2        TX        TY        TZ
        (cm-1)      (nm)                 (au**2)    (au)      (au)      (au)
-----------------------------------------------------------------------------
   1   33416.0    299.3   0.000228662   0.00225   0.04077   0.01917   0.01493

Dispersion correction           -0.025348830
FINAL SINGLE POINT ENERGY      -189.284375430991

DIPOLE MOMENT
-------------
                                X             Y             Z
Electronic contribution:     -2.29754      -1.75227      -0.78243
Nuclear contribution   :      2.69475       2.75829       1.20256
                        -----------------------------------------
Total Dipole Moment    :      0.39721       1.00602       0.42012
                        -----------------------------------------
Magnitude (a.u.)       :      1.16033
Magnitude (Debye)      :      2.94932

Rotational constants in cm-1:     0.845167     0.195028     0.163676
Rotational constants in MHz : 25337.464262  5846.806898  4906.874425

                             ****ORCA TERMINATED NORMALLY****
TOTAL RUN TIME: 0 days 0 hours 0 minutes 15 seconds 966 msec
