                         Program Version 5.0.3 -  RELEASE  -
|  1> ! HF-3c
|  2> !TightSCF
|  3> %scf
|  4>  ConvForced true
|  5>  convergence tight
|  6>  MaxIter 500
|  7> end
|  8>
|  9> %tddft
| 10>  nroots 1
| 11> end
| 12>
| 13> # 	7740
| 14> * xyz 0 1
| 15> 		C   -1.312615  -0.301396  -0.032533
| 16> 		O   -1.229495  -1.457252   0.026846
| 17> 		C    0.014895   0.552146  -0.018518
| 18> 		C    1.258073   0.086562   0.032244
| 19> 		H   -2.113401   0.103246   0.083854
| 20> 		H   -0.059593   1.665969   0.104378
| 21> 		H    1.266178  -1.100245  -0.233163
| 22> 		H    2.150695   0.506355   0.087514
| 23> *
| 24>
| 25>                          ****END OF INPUT****

CARTESIAN COORDINATES (ANGSTROEM)
---------------------------------
  C     -1.312615   -0.301396   -0.032533
  O     -1.229495   -1.457252    0.026846
  C      0.014895    0.552146   -0.018518
  C      1.258073    0.086562    0.032244
  H     -2.113401    0.103246    0.083854
  H     -0.059593    1.665969    0.104378
  H      1.266178   -1.100245   -0.233163
  H      2.150695    0.506355    0.087514

 Total Charge           Charge          ....    0
 Multiplicity           Mult            ....    1
 Number of Electrons    NEL             ....   30
 Basis Dimension        Dim             ....   24

ORBITAL ENERGIES
----------------

  NO   OCC          E(Eh)            E(eV)
   0   2.0000     -20.405442      -555.2603
   1   2.0000     -11.333253      -308.3935
   2   2.0000     -11.181090      -304.2529
   3   2.0000     -11.177777      -304.1628
   4   2.0000      -1.461461       -39.7684
   5   2.0000      -1.059454       -28.8292
   6   2.0000      -0.913695       -24.8629
   7   2.0000      -0.794090       -21.6083
   8   2.0000      -0.699855       -19.0440
   9   2.0000      -0.633432       -17.2366
  10   2.0000      -0.624817       -17.0021
  11   2.0000      -0.573329       -15.6011
  12   2.0000      -0.493876       -13.4391
  13   2.0000      -0.426967       -11.6184
  14   2.0000      -0.395581       -10.7643
  15   0.0000       0.143711         3.9106
  16   0.0000       0.291917         7.9435
  17   0.0000       0.476485        12.9658
  18   0.0000       0.576612        15.6904
  19   0.0000       0.648697        17.6520

MULLIKEN ATOMIC CHARGES
-----------------------
   0 C :    0.152636
   1 O :   -0.334964
   2 C :   -0.150722
   3 C :   -0.239806
   4 H :    0.145812
   5 H :    0.132087
   6 H :    0.151612
   7 H :    0.143345
Sum of atomic charges:   -0.0000000

LOEWDIN ATOMIC CHARGES
----------------------
   0 C :    0.139668
   1 O :   -0.221406
   2 C :   -0.115661
   3 C :   -0.144826
   4 H :    0.062395
   5 H :    0.084541
   6 H :    0.109459
   7 H :    0.085831

  Mayer bond orders larger than 0.100000
B(  0-C ,  1-O ) :   1.9362 B(  0-C ,  2-C ) :   0.9730 B(  0-C ,  4-H ) :   0.9404
B(  2-C ,  3-C ) :   1.9827 B(  2-C ,  5-H ) :   0.9591 B(  3-C ,  6-H ) :   0.9521
B(  3-C ,  7-H ) :   0.9685

-----------------------------------------------------------------------------
         ABSORPTION SPECTRUM VIA TRANSITION ELECTRIC DIPOLE MOMENTS
-----------------------------------------------------------------------------
State   Energy    Wavelength  fosc         T2        TX        TY        TZ
        (cm-1)      (nm)                 (au**2)    (au)      (au)      (au)
-----------------------------------------------------------------------------
   1   34948.7    286.1   0.000049630   0.00047  -0.01494  -0.01067  -0.01142

Dispersion correction           -0.025441855
FINAL SINGLE POINT ENERGY      -189.251778448171

DIPOLE MOMENT
-------------
                                X             Y             Z
Electronic contribution:     -2.26031      -1.57059      -0.05691
Nuclear contribution   :      2.41841       2.29598       0.02378
                        -----------------------------------------
Total Dipole Moment    :      0.15810       0.72539      -0.03313
                        -----------------------------------------
Magnitude (a.u.)       :      0.74315
Magnitude (Debye)      :      1.88895

Rotational constants in cm-1:     0.810130     0.198288     0.159656
Rotational constants in MHz : 24287.087304  5944.523658  4786.367134

                             ****ORCA TERMINATED NORMALLY****
TOTAL RUN TIME: 0 days 0 hours 0 minutes 12 seconds 76 msec
