                         Program Version 5.0.3 -  RELEASE  -
|  1> ! B3LYP cc-pVDZ
|  2> !TightSCF
|  3> %scf
|  4>  ConvForced true
|  5>  convergence tight
|  6>  MaxIter 500
|  7> end
|  8>
|  9> %tddft
| 10>  nroots 1
| 11> end
| 12>
| 13> # 	18793
| 14> * xyz 0 1
| 15> 		C   -1.114375  -0.325476   0.021557
| 16> 		O   -1.689299  -1.039665   0.864847
| 17> 		C    0.009768   0.454320   0.274864
| 18> 		C    1.243459   0.088715  -0.209688
| 19> 		H   -1.624478  -0.333366  -1.040336
| 20> 		H   -0.204844   1.415812   0.852148
| 21> 		H    1.282489  -0.950389  -0.718703
| 22> 		H    2.104481   0.659806  -0.077383
| 23> *
| 24>
| 25>                          ****END OF INPUT****

CARTESIAN COORDINATES (ANGSTROEM)
---------------------------------
  C     -1.114375   -0.325476    0.021557
  O     -1.689299   -1.039665    0.864847
  C      0.009768    0.454320    0.274864
  C      1.243459    0.088715   -0.209688
  H     -1.624478   -0.333366   -1.040336
  H     -0.204844    1.415812    0.852148
  H      1.282489   -0.950389   -0.718703
  H      2.104481    0.659806   -0.077383

 Total Charge           Charge          ....    0
 Multiplicity           Mult            ....    1
 Number of Electrons    NEL             ....   30
 Basis Dimension        Dim             ....   76

ORBITAL ENERGIES
----------------

  NO   OCC          E(Eh)            E(eV)
   0   2.0000     -19.139801      -520.8205
   1   2.0000     -10.280668      -279.7512
   2   2.0000     -10.218876      -278.0698
   3   2.0000     -10.217206      -278.0243
   4   2.0000      -1.030641       -28.0452
   5   2.0000      -0.804371       -21.8881
   6   2.0000      -0.661976       -18.0133
   7   2.0000      -0.548303       -14.9201
   8   2.0000      -0.492173       -13.3927
   9   2.0000      -0.465946       -12.6790
  10   2.0000      -0.432076       -11.7574
  11   2.0000      -0.396711       -10.7950
  12   2.0000      -0.359099        -9.7716
  13   2.0000      -0.283207        -7.7065
  14   2.0000      -0.253733        -6.9044
  15   0.0000      -0.053081        -1.4444
  16   0.0000      -0.014582        -0.3968
  17   0.0000       0.075617         2.0576
  18   0.0000       0.086919         2.3652
  19   0.0000       0.098362         2.6766

MULLIKEN ATOMIC CHARGES
-----------------------
   0 C :    0.138879
   1 O :   -0.212773
   2 C :   -0.068089
   3 C :    0.028452
   4 H :    0.002006
   5 H :    0.043868
   6 H :    0.044396
   7 H :    0.023262
Sum of atomic charges:    0.0000000

LOEWDIN ATOMIC CHARGES
----------------------
   0 C :   -0.026305
   1 O :   -0.027379
   2 C :   -0.060270
   3 C :   -0.011056
   4 H :    0.006914
   5 H :    0.056072
   6 H :    0.045732
   7 H :    0.016292

  Mayer bond orders larger than 0.100000
B(  0-C ,  1-O ) :   2.1742 B(  0-C ,  2-C ) :   1.0359 B(  0-C ,  4-H ) :   0.9172
B(  2-C ,  3-C ) :   1.9903 B(  2-C ,  5-H ) :   0.9292 B(  3-C ,  6-H ) :   0.9432
B(  3-C ,  7-H ) :   0.9484

-----------------------------------------------------------------------------
         ABSORPTION SPECTRUM VIA TRANSITION ELECTRIC DIPOLE MOMENTS
-----------------------------------------------------------------------------
State   Energy    Wavelength  fosc         T2        TX        TY        TZ
        (cm-1)      (nm)                 (au**2)    (au)      (au)      (au)
-----------------------------------------------------------------------------
   1   29888.2    334.6   0.000625321   0.00689  -0.07346  -0.00958   0.03740

FINAL SINGLE POINT ENERGY      -191.643670144648

DIPOLE MOMENT
-------------
                                X             Y             Z
Electronic contribution:     -2.37203      -0.97188       1.32698
Nuclear contribution   :      3.03500       1.61607      -1.84379
                        -----------------------------------------
Total Dipole Moment    :      0.66297       0.64419      -0.51681
                        -----------------------------------------
Magnitude (a.u.)       :      1.05905
Magnitude (Debye)      :      2.69190

Rotational constants in cm-1:     1.047352     0.165252     0.160115
Rotational constants in MHz : 31398.836374  4954.131599  4800.118563

                             ****ORCA TERMINATED NORMALLY****
TOTAL RUN TIME: 0 days 0 hours 3 minutes 20 seconds 346 msec
