                         Program Version 5.0.3 -  RELEASE  -
|  1> ! B3LYP cc-pVDZ
|  2> !TightSCF
|  3> %scf
|  4>  ConvForced true
|  5>  convergence tight
|  6>  MaxIter 500
|  7> end
|  8>
|  9> %tddft
| 10>  nroots 1
| 11> end
| 12>
| 13> # 	11585
| 14> * xyz 0 1
| 15> 		C   -1.233907  -0.342583  -0.017802
| 16> 		O   -1.331072  -1.339469  -0.586847
| 17> 		C    0.073231   0.538636  -0.098952
| 18> 		C    1.247519   0.030139   0.096513
| 19> 		H   -2.020326   0.031902   0.604739
| 20> 		H   -0.120924   1.455470  -0.465166
| 21> 		H    1.269262  -1.079502   0.442022
| 22> 		H    2.173680   0.641132   0.029948
| 23> *
| 24>
| 25>                          ****END OF INPUT****

CARTESIAN COORDINATES (ANGSTROEM)
---------------------------------
  C     -1.233907   -0.342583   -0.017802
  O     -1.331072   -1.339469   -0.586847
  C      0.073231    0.538636   -0.098952
  C      1.247519    0.030139    0.096513
  H     -2.020326    0.031902    0.604739
  H     -0.120924    1.455470   -0.465166
  H      1.269262   -1.079502    0.442022
  H      2.173680    0.641132    0.029948

 Total Charge           Charge          ....    0
 Multiplicity           Mult            ....    1
 Number of Electrons    NEL             ....   30
 Basis Dimension        Dim             ....   76

ORBITAL ENERGIES
----------------

  NO   OCC          E(Eh)            E(eV)
   0   2.0000     -19.144568      -520.9502
   1   2.0000     -10.274046      -279.5710
   2   2.0000     -10.203141      -277.6416
   3   2.0000     -10.187693      -277.2212
   4   2.0000      -1.085106       -29.5272
   5   2.0000      -0.789551       -21.4848
   6   2.0000      -0.638870       -17.3845
   7   2.0000      -0.555831       -15.1249
   8   2.0000      -0.504717       -13.7341
   9   2.0000      -0.454688       -12.3727
  10   2.0000      -0.443469       -12.0674
  11   2.0000      -0.404004       -10.9935
  12   2.0000      -0.379264       -10.3203
  13   2.0000      -0.291034        -7.9194
  14   2.0000      -0.249792        -6.7972
  15   0.0000      -0.030736        -0.8364
  16   0.0000       0.025622         0.6972
  17   0.0000       0.082538         2.2460
  18   0.0000       0.087335         2.3765
  19   0.0000       0.116098         3.1592

MULLIKEN ATOMIC CHARGES
-----------------------
   0 C :    0.162166
   1 O :   -0.130402
   2 C :   -0.068749
   3 C :    0.028195
   4 H :   -0.027655
   5 H :   -0.033400
   6 H :    0.036595
   7 H :    0.033251
Sum of atomic charges:    0.0000000

LOEWDIN ATOMIC CHARGES
----------------------
   0 C :   -0.038686
   1 O :    0.065194
   2 C :   -0.062503
   3 C :   -0.027996
   4 H :   -0.017814
   5 H :    0.002481
   6 H :    0.043921
   7 H :    0.035404

  Mayer bond orders larger than 0.100000
B(  0-C ,  1-O ) :   2.2895 B(  0-C ,  2-C ) :   0.9540 B(  0-C ,  4-H ) :   0.9125
B(  2-C ,  3-C ) :   2.0435 B(  2-C ,  5-H ) :   0.9476 B(  3-C ,  6-H ) :   0.9272
B(  3-C ,  7-H ) :   0.9401

-----------------------------------------------------------------------------
         ABSORPTION SPECTRUM VIA TRANSITION ELECTRIC DIPOLE MOMENTS
-----------------------------------------------------------------------------
State   Energy    Wavelength  fosc         T2        TX        TY        TZ
        (cm-1)      (nm)                 (au**2)    (au)      (au)      (au)
-----------------------------------------------------------------------------
   1   34246.3    292.0   0.000459811   0.00442   0.06446   0.01619  -0.00161

FINAL SINGLE POINT ENERGY      -191.623780797300

DIPOLE MOMENT
-------------
                                X             Y             Z
Electronic contribution:     -2.27879      -1.46102      -0.83539
Nuclear contribution   :      2.47434       2.15082       1.17091
                        -----------------------------------------
Total Dipole Moment    :      0.19555       0.68980       0.33552
                        -----------------------------------------
Magnitude (a.u.)       :      0.79160
Magnitude (Debye)      :      2.01209

Rotational constants in cm-1:     0.861431     0.188467     0.162553
Rotational constants in MHz : 25825.039211  5650.098767  4873.202290

                             ****ORCA TERMINATED NORMALLY****
TOTAL RUN TIME: 0 days 0 hours 3 minutes 27 seconds 845 msec
