                         Program Version 5.0.3 -  RELEASE  -
|  1> ! HF-3c
|  2> !TightSCF
|  3> %scf
|  4>  ConvForced true
|  5>  convergence tight
|  6>  MaxIter 500
|  7> end
|  8>
|  9> %tddft
| 10>  nroots 1
| 11> end
| 12>
| 13> # 	32025
| 14> * xyz 0 1
| 15> 		C   -0.621745  -0.422992   0.041753
| 16> 		O   -0.546470  -1.608425  -0.025674
| 17> 		C    0.659673   0.410562  -0.074508
| 18> 		C    1.824012  -0.138649   0.046154
| 19> 		H   -1.547155  -0.018446   0.260651
| 20> 		H    0.482514   1.444302  -0.020854
| 21> 		H    1.784271  -1.293352   0.009042
| 22> 		H    2.715156   0.424455  -0.006859
| 23> *
| 24>
| 25>                          ****END OF INPUT****

CARTESIAN COORDINATES (ANGSTROEM)
---------------------------------
  C     -0.621745   -0.422992    0.041753
  O     -0.546470   -1.608425   -0.025674
  C      0.659673    0.410562   -0.074508
  C      1.824012   -0.138649    0.046154
  H     -1.547155   -0.018446    0.260651
  H      0.482514    1.444302   -0.020854
  H      1.784271   -1.293352    0.009042
  H      2.715156    0.424455   -0.006859

 Total Charge           Charge          ....    0
 Multiplicity           Mult            ....    1
 Number of Electrons    NEL             ....   30
 Basis Dimension        Dim             ....   24

ORBITAL ENERGIES
----------------

  NO   OCC          E(Eh)            E(eV)
   0   2.0000     -20.372205      -554.3559
   1   2.0000     -11.301852      -307.5390
   2   2.0000     -11.187105      -304.4166
   3   2.0000     -11.185943      -304.3850
   4   2.0000      -1.423809       -38.7438
   5   2.0000      -1.084548       -29.5121
   6   2.0000      -0.887299       -24.1446
   7   2.0000      -0.764365       -20.7994
   8   2.0000      -0.713205       -19.4073
   9   2.0000      -0.618760       -16.8373
  10   2.0000      -0.609655       -16.5895
  11   2.0000      -0.549990       -14.9660
  12   2.0000      -0.523485       -14.2448
  13   2.0000      -0.418290       -11.3823
  14   2.0000      -0.407089       -11.0775
  15   0.0000       0.148149         4.0313
  16   0.0000       0.303534         8.2596
  17   0.0000       0.516130        14.0446
  18   0.0000       0.610513        16.6129
  19   0.0000       0.685399        18.6507

MULLIKEN ATOMIC CHARGES
-----------------------
   0 C :    0.160404
   1 O :   -0.354502
   2 C :   -0.175032
   3 C :   -0.232478
   4 H :    0.144381
   5 H :    0.137333
   6 H :    0.170423
   7 H :    0.149472
Sum of atomic charges:    0.0000000

LOEWDIN ATOMIC CHARGES
----------------------
   0 C :    0.142817
   1 O :   -0.252553
   2 C :   -0.128568
   3 C :   -0.135045
   4 H :    0.073722
   5 H :    0.083141
   6 H :    0.120338
   7 H :    0.096146

  Mayer bond orders larger than 0.100000
B(  0-C ,  1-O ) :   1.9218 B(  0-C ,  2-C ) :   0.9905 B(  0-C ,  4-H ) :   0.9339
B(  2-C ,  3-C ) :   1.9759 B(  2-C ,  5-H ) :   0.9607 B(  3-C ,  6-H ) :   0.9461
B(  3-C ,  7-H ) :   0.9626

-----------------------------------------------------------------------------
         ABSORPTION SPECTRUM VIA TRANSITION ELECTRIC DIPOLE MOMENTS
-----------------------------------------------------------------------------
State   Energy    Wavelength  fosc         T2        TX        TY        TZ
        (cm-1)      (nm)                 (au**2)    (au)      (au)      (au)
-----------------------------------------------------------------------------
   1   34179.7    292.6   0.000009844   0.00009  -0.00409   0.00168  -0.00867

Dispersion correction           -0.026262947
FINAL SINGLE POINT ENERGY      -189.324207597088

DIPOLE MOMENT
-------------
                                X             Y             Z
Electronic contribution:     -1.88140      -1.51322      -0.14333
Nuclear contribution   :      2.06637       2.31222       0.22704
                        -----------------------------------------
Total Dipole Moment    :      0.18497       0.79901       0.08371
                        -----------------------------------------
Magnitude (a.u.)       :      0.82440
Magnitude (Debye)      :      2.09545

Rotational constants in cm-1:     0.781676     0.215335     0.169481
Rotational constants in MHz : 23434.054260  6455.587646  5080.913624

                             ****ORCA TERMINATED NORMALLY****
TOTAL RUN TIME: 0 days 0 hours 0 minutes 12 seconds 968 msec
