                         Program Version 5.0.3 -  RELEASE  -
|  1> ! HF-3c
|  2> !TightSCF
|  3> %scf
|  4>  ConvForced true
|  5>  convergence tight
|  6>  MaxIter 500
|  7> end
|  8>
|  9> %tddft
| 10>  nroots 1
| 11> end
| 12>
| 13> # 	8465
| 14> * xyz 0 1
| 15> 		C   -1.198079  -0.297077  -0.010667
| 16> 		O   -1.253844  -1.433269   0.319638
| 17> 		C    0.004715   0.507119   0.105771
| 18> 		C    1.153730  -0.038933  -0.082614
| 19> 		H   -2.122250   0.169236  -0.332029
| 20> 		H   -0.060646   1.669719   0.164483
| 21> 		H    1.269036  -1.238183  -0.046485
| 22> 		H    2.178065   0.618082  -0.156927
| 23> *
| 24>
| 25>                          ****END OF INPUT****

CARTESIAN COORDINATES (ANGSTROEM)
---------------------------------
  C     -1.198079   -0.297077   -0.010667
  O     -1.253844   -1.433269    0.319638
  C      0.004715    0.507119    0.105771
  C      1.153730   -0.038933   -0.082614
  H     -2.122250    0.169236   -0.332029
  H     -0.060646    1.669719    0.164483
  H      1.269036   -1.238183   -0.046485
  H      2.178065    0.618082   -0.156927

 Total Charge           Charge          ....    0
 Multiplicity           Mult            ....    1
 Number of Electrons    NEL             ....   30
 Basis Dimension        Dim             ....   24

ORBITAL ENERGIES
----------------

  NO   OCC          E(Eh)            E(eV)
   0   2.0000     -20.363404      -554.1164
   1   2.0000     -11.299475      -307.4743
   2   2.0000     -11.182928      -304.3029
   3   2.0000     -11.180288      -304.2311
   4   2.0000      -1.420084       -38.6425
   5   2.0000      -1.082898       -29.4671
   6   2.0000      -0.876062       -23.8389
   7   2.0000      -0.732020       -19.9193
   8   2.0000      -0.694968       -18.9110
   9   2.0000      -0.605565       -16.4783
  10   2.0000      -0.588444       -16.0124
  11   2.0000      -0.541881       -14.7453
  12   2.0000      -0.496638       -13.5142
  13   2.0000      -0.412001       -11.2111
  14   2.0000      -0.396515       -10.7897
  15   0.0000       0.156482         4.2581
  16   0.0000       0.312185         8.4950
  17   0.0000       0.491384        13.3712
  18   0.0000       0.530765        14.4428
  19   0.0000       0.607695        16.5362

MULLIKEN ATOMIC CHARGES
-----------------------
   0 C :    0.166086
   1 O :   -0.360732
   2 C :   -0.195589
   3 C :   -0.192044
   4 H :    0.136971
   5 H :    0.145556
   6 H :    0.156780
   7 H :    0.142971
Sum of atomic charges:   -0.0000000

LOEWDIN ATOMIC CHARGES
----------------------
   0 C :    0.146048
   1 O :   -0.259868
   2 C :   -0.157603
   3 C :   -0.113180
   4 H :    0.070811
   5 H :    0.099882
   6 H :    0.111840
   7 H :    0.102070

  Mayer bond orders larger than 0.100000
B(  0-C ,  1-O ) :   1.9069 B(  0-C ,  2-C ) :   1.0211 B(  0-C ,  4-H ) :   0.9248
B(  2-C ,  3-C ) :   1.9580 B(  2-C ,  5-H ) :   0.9490 B(  3-C ,  6-H ) :   0.9499
B(  3-C ,  7-H ) :   0.9569

-----------------------------------------------------------------------------
         ABSORPTION SPECTRUM VIA TRANSITION ELECTRIC DIPOLE MOMENTS
-----------------------------------------------------------------------------
State   Energy    Wavelength  fosc         T2        TX        TY        TZ
        (cm-1)      (nm)                 (au**2)    (au)      (au)      (au)
-----------------------------------------------------------------------------
   1   34893.3    286.6   0.000056013   0.00053   0.02262   0.00008  -0.00410

Dispersion correction           -0.025805165
FINAL SINGLE POINT ENERGY      -189.299894420216

DIPOLE MOMENT
-------------
                                X             Y             Z
Electronic contribution:     -2.03494      -1.57405       0.38908
Nuclear contribution   :      2.46191       2.44258      -0.67190
                        -----------------------------------------
Total Dipole Moment    :      0.42697       0.86853      -0.28282
                        -----------------------------------------
Magnitude (a.u.)       :      1.00829
Magnitude (Debye)      :      2.56286

Rotational constants in cm-1:     0.799488     0.213425     0.171370
Rotational constants in MHz : 23968.056451  6398.309939  5137.545114

                             ****ORCA TERMINATED NORMALLY****
TOTAL RUN TIME: 0 days 0 hours 0 minutes 15 seconds 994 msec
