                         Program Version 5.0.3 -  RELEASE  -
|  1> ! HF-3c
|  2> !TightSCF
|  3> %scf
|  4>  ConvForced true
|  5>  convergence tight
|  6>  MaxIter 500
|  7> end
|  8>
|  9> %tddft
| 10>  nroots 1
| 11> end
| 12>
| 13> # 	17365
| 14> * xyz 0 1
| 15> 		C   -1.200119  -0.364034   0.028504
| 16> 		O   -1.424204  -1.308338  -0.581888
| 17> 		C    0.002438   0.492133  -0.090064
| 18> 		C    1.234398   0.045040   0.120433
| 19> 		H   -1.981897   0.065182   0.698447
| 20> 		H   -0.122578   1.451428  -0.503415
| 21> 		H    1.446411  -1.075461   0.507039
| 22> 		H    2.113891   0.655097  -0.229298
| 23> *
| 24>
| 25>                          ****END OF INPUT****

CARTESIAN COORDINATES (ANGSTROEM)
---------------------------------
  C     -1.200119   -0.364034    0.028504
  O     -1.424204   -1.308338   -0.581888
  C      0.002438    0.492133   -0.090064
  C      1.234398    0.045040    0.120433
  H     -1.981897    0.065182    0.698447
  H     -0.122578    1.451428   -0.503415
  H      1.446411   -1.075461    0.507039
  H      2.113891    0.655097   -0.229298

 Total Charge           Charge          ....    0
 Multiplicity           Mult            ....    1
 Number of Electrons    NEL             ....   30
 Basis Dimension        Dim             ....   24

ORBITAL ENERGIES
----------------

  NO   OCC          E(Eh)            E(eV)
   0   2.0000     -20.396049      -555.0047
   1   2.0000     -11.316431      -307.9357
   2   2.0000     -11.180892      -304.2475
   3   2.0000     -11.179700      -304.2151
   4   2.0000      -1.457910       -39.6717
   5   2.0000      -1.074228       -29.2312
   6   2.0000      -0.878359       -23.9014
   7   2.0000      -0.750772       -20.4295
   8   2.0000      -0.705047       -19.1853
   9   2.0000      -0.629426       -17.1276
  10   2.0000      -0.615327       -16.7439
  11   2.0000      -0.546671       -14.8757
  12   2.0000      -0.522898       -14.2288
  13   2.0000      -0.411079       -11.1860
  14   2.0000      -0.394563       -10.7366
  15   0.0000       0.177770         4.8374
  16   0.0000       0.260085         7.0773
  17   0.0000       0.523713        14.2509
  18   0.0000       0.584140        15.8953
  19   0.0000       0.658761        17.9258

MULLIKEN ATOMIC CHARGES
-----------------------
   0 C :    0.193612
   1 O :   -0.354102
   2 C :   -0.194221
   3 C :   -0.207416
   4 H :    0.127676
   5 H :    0.147592
   6 H :    0.146013
   7 H :    0.140847
Sum of atomic charges:    0.0000000

LOEWDIN ATOMIC CHARGES
----------------------
   0 C :    0.157292
   1 O :   -0.235034
   2 C :   -0.151030
   3 C :   -0.125460
   4 H :    0.062838
   5 H :    0.093953
   6 H :    0.103584
   7 H :    0.093859

  Mayer bond orders larger than 0.100000
B(  0-C ,  1-O ) :   1.9475 B(  0-C ,  2-C ) :   0.9840 B(  0-C ,  4-H ) :   0.9106
B(  2-C ,  3-C ) :   1.9872 B(  2-C ,  5-H ) :   0.9516 B(  3-C ,  6-H ) :   0.9594
B(  3-C ,  7-H ) :   0.9622

-----------------------------------------------------------------------------
         ABSORPTION SPECTRUM VIA TRANSITION ELECTRIC DIPOLE MOMENTS
-----------------------------------------------------------------------------
State   Energy    Wavelength  fosc         T2        TX        TY        TZ
        (cm-1)      (nm)                 (au**2)    (au)      (au)      (au)
-----------------------------------------------------------------------------
   1   37727.5    265.1   0.000290661   0.00254   0.04959  -0.00548  -0.00685

Dispersion correction           -0.025254212
FINAL SINGLE POINT ENERGY      -189.295068951217

DIPOLE MOMENT
-------------
                                X             Y             Z
Electronic contribution:     -2.31925      -1.51729      -0.57965
Nuclear contribution   :      2.74772       2.20175       0.98100
                        -----------------------------------------
Total Dipole Moment    :      0.42847       0.68447       0.40135
                        -----------------------------------------
Magnitude (a.u.)       :      0.90175
Magnitude (Debye)      :      2.29208

Rotational constants in cm-1:     0.895455     0.185459     0.163336
Rotational constants in MHz : 26845.051113  5559.923481  4896.699562

                             ****ORCA TERMINATED NORMALLY****
TOTAL RUN TIME: 0 days 0 hours 0 minutes 13 seconds 105 msec
