                         Program Version 5.0.3 -  RELEASE  -
|  1> ! HF-3c
|  2> !TightSCF
|  3> %scf
|  4>  ConvForced true
|  5>  convergence tight
|  6>  MaxIter 500
|  7> end
|  8>
|  9> %tddft
| 10>  nroots 1
| 11> end
| 12>
| 13> # 	28710
| 14> * xyz 0 1
| 15> 		C   -0.580093  -0.429697  -0.002394
| 16> 		O   -0.587872  -1.634284  -0.006370
| 17> 		C    0.614609   0.414736   0.039108
| 18> 		C    1.868896  -0.136232  -0.006419
| 19> 		H   -1.602322   0.023617  -0.042406
| 20> 		H    0.656510   1.537104  -0.167978
| 21> 		H    2.046336  -1.186408   0.055547
| 22> 		H    2.548249   0.613362  -0.118836
| 23> *
| 24>
| 25>                          ****END OF INPUT****

CARTESIAN COORDINATES (ANGSTROEM)
---------------------------------
  C     -0.580093   -0.429697   -0.002394
  O     -0.587872   -1.634284   -0.006370
  C      0.614609    0.414736    0.039108
  C      1.868896   -0.136232   -0.006419
  H     -1.602322    0.023617   -0.042406
  H      0.656510    1.537104   -0.167978
  H      2.046336   -1.186408    0.055547
  H      2.548249    0.613362   -0.118836

 Total Charge           Charge          ....    0
 Multiplicity           Mult            ....    1
 Number of Electrons    NEL             ....   30
 Basis Dimension        Dim             ....   24

ORBITAL ENERGIES
----------------

  NO   OCC          E(Eh)            E(eV)
   0   2.0000     -20.360212      -554.0295
   1   2.0000     -11.295489      -307.3659
   2   2.0000     -11.190737      -304.5154
   3   2.0000     -11.186310      -304.3950
   4   2.0000      -1.404360       -38.2146
   5   2.0000      -1.077019       -29.3072
   6   2.0000      -0.891821       -24.2677
   7   2.0000      -0.744507       -20.2591
   8   2.0000      -0.713938       -19.4272
   9   2.0000      -0.609935       -16.5972
  10   2.0000      -0.590957       -16.0808
  11   2.0000      -0.544403       -14.8140
  12   2.0000      -0.533957       -14.5297
  13   2.0000      -0.411512       -11.1978
  14   2.0000      -0.386493       -10.5170
  15   0.0000       0.123813         3.3691
  16   0.0000       0.305822         8.3218
  17   0.0000       0.553210        15.0536
  18   0.0000       0.588893        16.0246
  19   0.0000       0.661828        18.0093

MULLIKEN ATOMIC CHARGES
-----------------------
   0 C :    0.156957
   1 O :   -0.356045
   2 C :   -0.164169
   3 C :   -0.229511
   4 H :    0.135762
   5 H :    0.146922
   6 H :    0.164417
   7 H :    0.145668
Sum of atomic charges:   -0.0000000

LOEWDIN ATOMIC CHARGES
----------------------
   0 C :    0.138860
   1 O :   -0.261142
   2 C :   -0.127088
   3 C :   -0.120771
   4 H :    0.072990
   5 H :    0.099166
   6 H :    0.107552
   7 H :    0.090433

  Mayer bond orders larger than 0.100000
B(  0-C ,  1-O ) :   1.8962 B(  0-C ,  2-C ) :   1.0385 B(  0-C ,  4-H ) :   0.9269
B(  2-C ,  3-C ) :   1.9280 B(  2-C ,  5-H ) :   0.9589 B(  3-C ,  6-H ) :   0.9613
B(  3-C ,  7-H ) :   0.9688

-----------------------------------------------------------------------------
         ABSORPTION SPECTRUM VIA TRANSITION ELECTRIC DIPOLE MOMENTS
-----------------------------------------------------------------------------
State   Energy    Wavelength  fosc         T2        TX        TY        TZ
        (cm-1)      (nm)                 (au**2)    (au)      (au)      (au)
-----------------------------------------------------------------------------
   1   32023.3    312.3   0.000146385   0.00150   0.03529   0.00195  -0.01599

Dispersion correction           -0.025660879
FINAL SINGLE POINT ENERGY      -189.326705626634

DIPOLE MOMENT
-------------
                                X             Y             Z
Electronic contribution:     -1.92671      -1.75363       0.18500
Nuclear contribution   :      2.26306       2.71464      -0.25591
                        -----------------------------------------
Total Dipole Moment    :      0.33636       0.96101      -0.07092
                        -----------------------------------------
Magnitude (a.u.)       :      1.02064
Magnitude (Debye)      :      2.59427

Rotational constants in cm-1:     0.771597     0.207236     0.163573
Rotational constants in MHz : 23131.904046  6212.767668  4903.802062

                             ****ORCA TERMINATED NORMALLY****
TOTAL RUN TIME: 0 days 0 hours 0 minutes 11 seconds 490 msec
