                         Program Version 5.0.3 -  RELEASE  -
|  1> ! HF-3c
|  2> !TightSCF
|  3> %scf
|  4>  ConvForced true
|  5>  convergence tight
|  6>  MaxIter 500
|  7> end
|  8>
|  9> %tddft
| 10>  nroots 1
| 11> end
| 12>
| 13> # 	17540
| 14> * xyz 0 1
| 15> 		C   -1.249100  -0.370354   0.063459
| 16> 		O   -1.269521  -1.528246   0.012893
| 17> 		C   -0.002395   0.489573   0.067828
| 18> 		C    1.223252   0.027612   0.047954
| 19> 		H   -2.143950   0.266355  -0.020180
| 20> 		H   -0.153126   1.535342  -0.187672
| 21> 		H    1.334650  -1.054036   0.165758
| 22> 		H    2.231213   0.619545  -0.155813
| 23> *
| 24>
| 25>                          ****END OF INPUT****

CARTESIAN COORDINATES (ANGSTROEM)
---------------------------------
  C     -1.249100   -0.370354    0.063459
  O     -1.269521   -1.528246    0.012893
  C     -0.002395    0.489573    0.067828
  C      1.223252    0.027612    0.047954
  H     -2.143950    0.266355   -0.020180
  H     -0.153126    1.535342   -0.187672
  H      1.334650   -1.054036    0.165758
  H      2.231213    0.619545   -0.155813

 Total Charge           Charge          ....    0
 Multiplicity           Mult            ....    1
 Number of Electrons    NEL             ....   30
 Basis Dimension        Dim             ....   24

ORBITAL ENERGIES
----------------

  NO   OCC          E(Eh)            E(eV)
   0   2.0000     -20.389525      -554.8272
   1   2.0000     -11.314133      -307.8732
   2   2.0000     -11.185598      -304.3756
   3   2.0000     -11.177112      -304.1447
   4   2.0000      -1.445728       -39.3403
   5   2.0000      -1.074220       -29.2310
   6   2.0000      -0.883206       -24.0333
   7   2.0000      -0.743008       -20.2183
   8   2.0000      -0.705511       -19.1979
   9   2.0000      -0.623520       -16.9668
  10   2.0000      -0.597485       -16.2584
  11   2.0000      -0.565836       -15.3972
  12   2.0000      -0.517210       -14.0740
  13   2.0000      -0.409037       -11.1305
  14   2.0000      -0.401365       -10.9217
  15   0.0000       0.148297         4.0354
  16   0.0000       0.315254         8.5785
  17   0.0000       0.497850        13.5472
  18   0.0000       0.614740        16.7279
  19   0.0000       0.648128        17.6365

MULLIKEN ATOMIC CHARGES
-----------------------
   0 C :    0.190991
   1 O :   -0.359899
   2 C :   -0.188769
   3 C :   -0.210599
   4 H :    0.133182
   5 H :    0.135673
   6 H :    0.147942
   7 H :    0.151479
Sum of atomic charges:    0.0000000

LOEWDIN ATOMIC CHARGES
----------------------
   0 C :    0.158039
   1 O :   -0.245144
   2 C :   -0.151164
   3 C :   -0.117759
   4 H :    0.067298
   5 H :    0.085532
   6 H :    0.095777
   7 H :    0.107420

  Mayer bond orders larger than 0.100000
B(  0-C ,  1-O ) :   1.9310 B(  0-C ,  2-C ) :   0.9897 B(  0-C ,  4-H ) :   0.9163
B(  2-C ,  3-C ) :   1.9659 B(  2-C ,  5-H ) :   0.9595 B(  3-C ,  6-H ) :   0.9586
B(  3-C ,  7-H ) :   0.9587

-----------------------------------------------------------------------------
         ABSORPTION SPECTRUM VIA TRANSITION ELECTRIC DIPOLE MOMENTS
-----------------------------------------------------------------------------
State   Energy    Wavelength  fosc         T2        TX        TY        TZ
        (cm-1)      (nm)                 (au**2)    (au)      (au)      (au)
-----------------------------------------------------------------------------
   1   36130.9    276.8   0.000020989   0.00019   0.01337   0.00347  -0.00070

Dispersion correction           -0.025504660
FINAL SINGLE POINT ENERGY      -189.316480758788

DIPOLE MOMENT
-------------
                                X             Y             Z
Electronic contribution:     -2.12409      -1.80689       0.26214
Nuclear contribution   :      2.47332       2.69202      -0.33061
                        -----------------------------------------
Total Dipole Moment    :      0.34923       0.88513      -0.06847
                        -----------------------------------------
Magnitude (a.u.)       :      0.95400
Magnitude (Debye)      :      2.42487

Rotational constants in cm-1:     0.830288     0.198310     0.160498
Rotational constants in MHz : 24891.404066  5945.191664  4811.617544

                             ****ORCA TERMINATED NORMALLY****
TOTAL RUN TIME: 0 days 0 hours 0 minutes 12 seconds 119 msec
