                         Program Version 5.0.3 -  RELEASE  -
|  1> ! B3LYP cc-pVDZ
|  2> !TightSCF
|  3> %scf
|  4>  ConvForced true
|  5>  convergence tight
|  6>  MaxIter 500
|  7> end
|  8>
|  9> %tddft
| 10>  nroots 1
| 11> end
| 12>
| 13> # 	11323
| 14> * xyz 0 1
| 15> 		C   -1.227453  -0.367091  -0.049640
| 16> 		O   -1.389387  -1.543238   0.427633
| 17> 		C   -0.022291   0.428377   0.164408
| 18> 		C    1.221433   0.050102  -0.069344
| 19> 		H   -1.992948   0.267777  -0.580367
| 20> 		H   -0.103815   1.517184   0.382661
| 21> 		H    1.399511  -1.002733  -0.357324
| 22> 		H    2.123764   0.652305   0.091992
| 23> *
| 24>
| 25>                          ****END OF INPUT****

CARTESIAN COORDINATES (ANGSTROEM)
---------------------------------
  C     -1.227453   -0.367091   -0.049640
  O     -1.389387   -1.543238    0.427633
  C     -0.022291    0.428377    0.164408
  C      1.221433    0.050102   -0.069344
  H     -1.992948    0.267777   -0.580367
  H     -0.103815    1.517184    0.382661
  H      1.399511   -1.002733   -0.357324
  H      2.123764    0.652305    0.091992

 Total Charge           Charge          ....    0
 Multiplicity           Mult            ....    1
 Number of Electrons    NEL             ....   30
 Basis Dimension        Dim             ....   76

ORBITAL ENERGIES
----------------

  NO   OCC          E(Eh)            E(eV)
   0   2.0000     -19.147331      -521.0254
   1   2.0000     -10.288328      -279.9596
   2   2.0000     -10.211953      -277.8814
   3   2.0000     -10.207551      -277.7616
   4   2.0000      -1.014419       -27.6038
   5   2.0000      -0.802563       -21.8388
   6   2.0000      -0.667374       -18.1602
   7   2.0000      -0.546005       -14.8575
   8   2.0000      -0.502264       -13.6673
   9   2.0000      -0.443587       -12.0706
  10   2.0000      -0.436210       -11.8699
  11   2.0000      -0.379586       -10.3291
  12   2.0000      -0.364880        -9.9289
  13   2.0000      -0.291033        -7.9194
  14   2.0000      -0.260408        -7.0861
  15   0.0000      -0.069139        -1.8814
  16   0.0000       0.021294         0.5794
  17   0.0000       0.065837         1.7915
  18   0.0000       0.089666         2.4399
  19   0.0000       0.111638         3.0378

MULLIKEN ATOMIC CHARGES
-----------------------
   0 C :    0.189397
   1 O :   -0.233055
   2 C :   -0.081365
   3 C :    0.037231
   4 H :    0.009941
   5 H :    0.009267
   6 H :    0.032911
   7 H :    0.035674
Sum of atomic charges:    0.0000000

LOEWDIN ATOMIC CHARGES
----------------------
   0 C :    0.010076
   1 O :   -0.054385
   2 C :   -0.077403
   3 C :    0.003638
   4 H :    0.008392
   5 H :    0.041979
   6 H :    0.033369
   7 H :    0.034334

  Mayer bond orders larger than 0.100000
B(  0-C ,  1-O ) :   2.1313 B(  0-C ,  2-C ) :   1.0456 B(  0-C ,  4-H ) :   0.9090
B(  2-C ,  3-C ) :   2.0008 B(  2-C ,  5-H ) :   0.9244 B(  3-C ,  6-H ) :   0.9418
B(  3-C ,  7-H ) :   0.9426

-----------------------------------------------------------------------------
         ABSORPTION SPECTRUM VIA TRANSITION ELECTRIC DIPOLE MOMENTS
-----------------------------------------------------------------------------
State   Energy    Wavelength  fosc         T2        TX        TY        TZ
        (cm-1)      (nm)                 (au**2)    (au)      (au)      (au)
-----------------------------------------------------------------------------
   1   27894.9    358.5   0.000046335   0.00055   0.02203  -0.00016  -0.00783

FINAL SINGLE POINT ENERGY      -191.665698240783

DIPOLE MOMENT
-------------
                                X             Y             Z
Electronic contribution:     -2.25935      -1.83338       0.55952
Nuclear contribution   :      2.73777       2.79513      -0.89315
                        -----------------------------------------
Total Dipole Moment    :      0.47842       0.96175      -0.33363
                        -----------------------------------------
Magnitude (a.u.)       :      1.12479
Magnitude (Debye)      :      2.85900

Rotational constants in cm-1:     0.828738     0.184165     0.156445
Rotational constants in MHz : 24844.933325  5521.121872  4690.117766

                             ****ORCA TERMINATED NORMALLY****
TOTAL RUN TIME: 0 days 0 hours 3 minutes 20 seconds 714 msec
