                         Program Version 5.0.3 -  RELEASE  -
|  1> ! HF-3c
|  2> !TightSCF
|  3> %scf
|  4>  ConvForced true
|  5>  convergence tight
|  6>  MaxIter 500
|  7> end
|  8>
|  9> %tddft
| 10>  nroots 1
| 11> end
| 12>
| 13> # 	10976
| 14> * xyz 0 1
| 15> 		C   -1.222214  -0.289203  -0.062031
| 16> 		O   -1.997718  -0.547268  -0.867781
| 17> 		C   -0.018693   0.478085  -0.266368
| 18> 		C    1.244145   0.009726   0.177097
| 19> 		H   -1.419212  -0.796821   0.895002
| 20> 		H   -0.011811   1.414648  -0.779621
| 21> 		H    1.141007  -0.867433   0.779003
| 22> 		H    2.290122   0.599130   0.093912
| 23> *
| 24>
| 25>                          ****END OF INPUT****

CARTESIAN COORDINATES (ANGSTROEM)
---------------------------------
  C     -1.222214   -0.289203   -0.062031
  O     -1.997718   -0.547268   -0.867781
  C     -0.018693    0.478085   -0.266368
  C      1.244145    0.009726    0.177097
  H     -1.419212   -0.796821    0.895002
  H     -0.011811    1.414648   -0.779621
  H      1.141007   -0.867433    0.779003
  H      2.290122    0.599130    0.093912

 Total Charge           Charge          ....    0
 Multiplicity           Mult            ....    1
 Number of Electrons    NEL             ....   30
 Basis Dimension        Dim             ....   24

ORBITAL ENERGIES
----------------

  NO   OCC          E(Eh)            E(eV)
   0   2.0000     -20.382305      -554.6307
   1   2.0000     -11.314120      -307.8729
   2   2.0000     -11.184607      -304.3486
   3   2.0000     -11.181621      -304.2674
   4   2.0000      -1.454027       -39.5661
   5   2.0000      -1.062688       -28.9172
   6   2.0000      -0.869804       -23.6686
   7   2.0000      -0.783290       -21.3144
   8   2.0000      -0.687267       -18.7015
   9   2.0000      -0.637109       -17.3366
  10   2.0000      -0.592744       -16.1294
  11   2.0000      -0.556565       -15.1449
  12   2.0000      -0.525497       -14.2995
  13   2.0000      -0.411400       -11.1948
  14   2.0000      -0.376185       -10.2365
  15   0.0000       0.142486         3.8772
  16   0.0000       0.271508         7.3881
  17   0.0000       0.521396        14.1879
  18   0.0000       0.594464        16.1762
  19   0.0000       0.667406        18.1610

MULLIKEN ATOMIC CHARGES
-----------------------
   0 C :    0.167812
   1 O :   -0.354754
   2 C :   -0.177113
   3 C :   -0.208508
   4 H :    0.134148
   5 H :    0.150360
   6 H :    0.132303
   7 H :    0.155752
Sum of atomic charges:   -0.0000000

LOEWDIN ATOMIC CHARGES
----------------------
   0 C :    0.137838
   1 O :   -0.240196
   2 C :   -0.137134
   3 C :   -0.120181
   4 H :    0.067831
   5 H :    0.096067
   6 H :    0.082770
   7 H :    0.113005

  Mayer bond orders larger than 0.100000
B(  0-C ,  1-O ) :   1.9154 B(  0-C ,  2-C ) :   1.0210 B(  0-C ,  4-H ) :   0.9170
B(  2-C ,  3-C ) :   1.9462 B(  2-C ,  5-H ) :   0.9574 B(  3-C ,  6-H ) :   0.9694
B(  3-C ,  7-H ) :   0.9610

-----------------------------------------------------------------------------
         ABSORPTION SPECTRUM VIA TRANSITION ELECTRIC DIPOLE MOMENTS
-----------------------------------------------------------------------------
State   Energy    Wavelength  fosc         T2        TX        TY        TZ
        (cm-1)      (nm)                 (au**2)    (au)      (au)      (au)
-----------------------------------------------------------------------------
   1   36057.8    277.3   0.000070973   0.00065  -0.00720  -0.02040   0.01342

Dispersion correction           -0.025187706
FINAL SINGLE POINT ENERGY      -189.285373653716

DIPOLE MOMENT
-------------
                                X             Y             Z
Electronic contribution:     -2.93338      -0.47869      -1.25341
Nuclear contribution   :      3.85662       0.72423       1.90252
                        -----------------------------------------
Total Dipole Moment    :      0.92324       0.24553       0.64911
                        -----------------------------------------
Magnitude (a.u.)       :      1.15499
Magnitude (Debye)      :      2.93575

Rotational constants in cm-1:     1.335536     0.157752     0.149174
Rotational constants in MHz : 40038.361321  4729.276534  4472.111591

                             ****ORCA TERMINATED NORMALLY****
TOTAL RUN TIME: 0 days 0 hours 0 minutes 8 seconds 604 msec
