                         Program Version 5.0.3 -  RELEASE  -
|  1> ! B3LYP cc-pVDZ
|  2> !TightSCF
|  3> %scf
|  4>  ConvForced true
|  5>  convergence tight
|  6>  MaxIter 500
|  7> end
|  8>
|  9> %tddft
| 10>  nroots 1
| 11> end
| 12>
| 13> # 	19331
| 14> * xyz 0 1
| 15> 		C   -1.187726  -0.229754   0.086700
| 16> 		O   -1.550137  -1.035271   0.905260
| 17> 		C    0.024645   0.529073   0.211192
| 18> 		C    1.193953   0.059976  -0.262246
| 19> 		H   -1.578929  -0.279691  -1.034259
| 20> 		H   -0.046195   1.421838   0.869395
| 21> 		H    1.071498  -1.149012  -0.736625
| 22> 		H    2.128424   0.643185  -0.033641
| 23> *
| 24>
| 25>                          ****END OF INPUT****

CARTESIAN COORDINATES (ANGSTROEM)
---------------------------------
  C     -1.187726   -0.229754    0.086700
  O     -1.550137   -1.035271    0.905260
  C      0.024645    0.529073    0.211192
  C      1.193953    0.059976   -0.262246
  H     -1.578929   -0.279691   -1.034259
  H     -0.046195    1.421838    0.869395
  H      1.071498   -1.149012   -0.736625
  H      2.128424    0.643185   -0.033641

 Total Charge           Charge          ....    0
 Multiplicity           Mult            ....    1
 Number of Electrons    NEL             ....   30
 Basis Dimension        Dim             ....   76

ORBITAL ENERGIES
----------------

  NO   OCC          E(Eh)            E(eV)
   0   2.0000     -19.149629      -521.0879
   1   2.0000     -10.284577      -279.8576
   2   2.0000     -10.227848      -278.3139
   3   2.0000     -10.207662      -277.7646
   4   2.0000      -1.059555       -28.8320
   5   2.0000      -0.798894       -21.7390
   6   2.0000      -0.646087       -17.5809
   7   2.0000      -0.544895       -14.8274
   8   2.0000      -0.484447       -13.1825
   9   2.0000      -0.460122       -12.5206
  10   2.0000      -0.435744       -11.8572
  11   2.0000      -0.386694       -10.5225
  12   2.0000      -0.370471       -10.0810
  13   2.0000      -0.283734        -7.7208
  14   2.0000      -0.257971        -7.0197
  15   0.0000      -0.045197        -1.2299
  16   0.0000      -0.011114        -0.3024
  17   0.0000       0.048551         1.3211
  18   0.0000       0.076048         2.0694
  19   0.0000       0.094940         2.5834

MULLIKEN ATOMIC CHARGES
-----------------------
   0 C :    0.131474
   1 O :   -0.167928
   2 C :   -0.041340
   3 C :   -0.055629
   4 H :   -0.007367
   5 H :    0.025764
   6 H :    0.062411
   7 H :    0.052616
Sum of atomic charges:    0.0000000

LOEWDIN ATOMIC CHARGES
----------------------
   0 C :   -0.043939
   1 O :    0.021896
   2 C :   -0.073174
   3 C :   -0.051310
   4 H :   -0.000928
   5 H :    0.040508
   6 H :    0.064100
   7 H :    0.042847

  Mayer bond orders larger than 0.100000
B(  0-C ,  1-O ) :   2.2278 B(  0-C ,  2-C ) :   1.0039 B(  0-C ,  4-H ) :   0.8968
B(  2-C ,  3-C ) :   2.0049 B(  2-C ,  5-H ) :   0.9301 B(  3-C ,  6-H ) :   0.9255
B(  3-C ,  7-H ) :   0.9352

-----------------------------------------------------------------------------
         ABSORPTION SPECTRUM VIA TRANSITION ELECTRIC DIPOLE MOMENTS
-----------------------------------------------------------------------------
State   Energy    Wavelength  fosc         T2        TX        TY        TZ
        (cm-1)      (nm)                 (au**2)    (au)      (au)      (au)
-----------------------------------------------------------------------------
   1   32183.4    310.7   0.000830807   0.00850   0.00037  -0.00133  -0.09218

FINAL SINGLE POINT ENERGY      -191.616430591284

DIPOLE MOMENT
-------------
                                X             Y             Z
Electronic contribution:     -2.51884      -0.75719       1.42462
Nuclear contribution   :      2.98952       1.36162      -1.80263
                        -----------------------------------------
Total Dipole Moment    :      0.47068       0.60443      -0.37801
                        -----------------------------------------
Magnitude (a.u.)       :      0.85427
Magnitude (Debye)      :      2.17137

Rotational constants in cm-1:     0.924938     0.175610     0.167044
Rotational constants in MHz : 27728.957019  5264.649888  5007.855136

                             ****ORCA TERMINATED NORMALLY****
TOTAL RUN TIME: 0 days 0 hours 3 minutes 27 seconds 102 msec
