                         Program Version 5.0.3 -  RELEASE  -
|  1> ! B3LYP cc-pVDZ
|  2> !TightSCF
|  3> %scf
|  4>  ConvForced true
|  5>  convergence tight
|  6>  MaxIter 500
|  7> end
|  8>
|  9> %tddft
| 10>  nroots 1
| 11> end
| 12>
| 13> # 	31503
| 14> * xyz 0 1
| 15> 		C   -0.579653  -0.431616   0.007966
| 16> 		O   -0.599961  -1.661261  -0.020537
| 17> 		C    0.663531   0.433965  -0.004943
| 18> 		C    1.826773  -0.119066   0.040287
| 19> 		H   -1.515540  -0.117943   0.294649
| 20> 		H    0.768598   1.666894  -0.349270
| 21> 		H    1.960539  -1.116583  -0.115123
| 22> 		H    2.582565   0.546268  -0.040521
| 23> *
| 24>
| 25>                          ****END OF INPUT****

CARTESIAN COORDINATES (ANGSTROEM)
---------------------------------
  C     -0.579653   -0.431616    0.007966
  O     -0.599961   -1.661261   -0.020537
  C      0.663531    0.433965   -0.004943
  C      1.826773   -0.119066    0.040287
  H     -1.515540   -0.117943    0.294649
  H      0.768598    1.666894   -0.349270
  H      1.960539   -1.116583   -0.115123
  H      2.582565    0.546268   -0.040521

 Total Charge           Charge          ....    0
 Multiplicity           Mult            ....    1
 Number of Electrons    NEL             ....   30
 Basis Dimension        Dim             ....   76

ORBITAL ENERGIES
----------------

  NO   OCC          E(Eh)            E(eV)
   0   2.0000     -19.138187      -520.7765
   1   2.0000     -10.272806      -279.5373
   2   2.0000     -10.217694      -278.0376
   3   2.0000     -10.189774      -277.2779
   4   2.0000      -1.038772       -28.2664
   5   2.0000      -0.807566       -21.9750
   6   2.0000      -0.653927       -17.7942
   7   2.0000      -0.551520       -15.0076
   8   2.0000      -0.518745       -14.1158
   9   2.0000      -0.439229       -11.9520
  10   2.0000      -0.430019       -11.7014
  11   2.0000      -0.396527       -10.7901
  12   2.0000      -0.366959        -9.9855
  13   2.0000      -0.293454        -7.9853
  14   2.0000      -0.253310        -6.8929
  15   0.0000      -0.067579        -1.8389
  16   0.0000       0.025679         0.6988
  17   0.0000       0.062830         1.7097
  18   0.0000       0.111884         3.0445
  19   0.0000       0.117385         3.1942

MULLIKEN ATOMIC CHARGES
-----------------------
   0 C :    0.228172
   1 O :   -0.210722
   2 C :   -0.228149
   3 C :    0.199891
   4 H :   -0.023685
   5 H :    0.035920
   6 H :    0.003337
   7 H :   -0.004764
Sum of atomic charges:   -0.0000000

LOEWDIN ATOMIC CHARGES
----------------------
   0 C :   -0.005164
   1 O :   -0.019465
   2 C :   -0.087851
   3 C :    0.034361
   4 H :   -0.013526
   5 H :    0.060099
   6 H :    0.015090
   7 H :    0.016455

  Mayer bond orders larger than 0.100000
B(  0-C ,  1-O ) :   2.1593 B(  0-C ,  2-C ) :   0.9903 B(  0-C ,  4-H ) :   0.9562
B(  2-C ,  3-C ) :   1.9921 B(  2-C ,  5-H ) :   0.9261 B(  3-C ,  6-H ) :   0.9428
B(  3-C ,  7-H ) :   0.9283

-----------------------------------------------------------------------------
         ABSORPTION SPECTRUM VIA TRANSITION ELECTRIC DIPOLE MOMENTS
-----------------------------------------------------------------------------
State   Energy    Wavelength  fosc         T2        TX        TY        TZ
        (cm-1)      (nm)                 (au**2)    (au)      (au)      (au)
-----------------------------------------------------------------------------
   1   27250.3    367.0   0.000392951   0.00475  -0.04831  -0.03291   0.03648

FINAL SINGLE POINT ENERGY      -191.627376221473

DIPOLE MOMENT
-------------
                                X             Y             Z
Electronic contribution:     -2.01858      -1.83759       0.12505
Nuclear contribution   :      2.39833       2.70755      -0.19620
                        -----------------------------------------
Total Dipole Moment    :      0.37975       0.86997      -0.07115
                        -----------------------------------------
Magnitude (a.u.)       :      0.95190
Magnitude (Debye)      :      2.41954

Rotational constants in cm-1:     0.800879     0.202944     0.162704
Rotational constants in MHz : 24009.738706  6084.110987  4877.738995

                             ****ORCA TERMINATED NORMALLY****
TOTAL RUN TIME: 0 days 0 hours 3 minutes 19 seconds 208 msec
