                         Program Version 5.0.3 -  RELEASE  -
|  1> ! HF-3c
|  2> !TightSCF
|  3> %scf
|  4>  ConvForced true
|  5>  convergence tight
|  6>  MaxIter 500
|  7> end
|  8>
|  9> %tddft
| 10>  nroots 1
| 11> end
| 12>
| 13> # 	6677
| 14> * xyz 0 1
| 15> 		C   -1.196523  -0.279129   0.076594
| 16> 		O   -2.020484  -0.323191   0.892743
| 17> 		C    0.056958   0.391207   0.313672
| 18> 		C    1.202924   0.116104  -0.276375
| 19> 		H   -1.311249  -0.899079  -0.958177
| 20> 		H   -0.005015   1.134520   1.085246
| 21> 		H    1.221909  -0.608572  -1.044885
| 22> 		H    2.038719   0.551053  -0.083942
| 23> *
| 24>
| 25>                          ****END OF INPUT****

CARTESIAN COORDINATES (ANGSTROEM)
---------------------------------
  C     -1.196523   -0.279129    0.076594
  O     -2.020484   -0.323191    0.892743
  C      0.056958    0.391207    0.313672
  C      1.202924    0.116104   -0.276375
  H     -1.311249   -0.899079   -0.958177
  H     -0.005015    1.134520    1.085246
  H      1.221909   -0.608572   -1.044885
  H      2.038719    0.551053   -0.083942

 Total Charge           Charge          ....    0
 Multiplicity           Mult            ....    1
 Number of Electrons    NEL             ....   30
 Basis Dimension        Dim             ....   24

ORBITAL ENERGIES
----------------

  NO   OCC          E(Eh)            E(eV)
   0   2.0000     -20.385292      -554.7120
   1   2.0000     -11.312650      -307.8329
   2   2.0000     -11.201538      -304.8093
   3   2.0000     -11.200274      -304.7750
   4   2.0000      -1.447463       -39.3875
   5   2.0000      -1.102236       -29.9934
   6   2.0000      -0.902264       -24.5518
   7   2.0000      -0.775866       -21.1124
   8   2.0000      -0.688016       -18.7219
   9   2.0000      -0.677342       -18.4314
  10   2.0000      -0.599638       -16.3170
  11   2.0000      -0.574190       -15.6245
  12   2.0000      -0.549400       -14.9499
  13   2.0000      -0.411694       -11.2028
  14   2.0000      -0.409281       -11.1371
  15   0.0000       0.135881         3.6975
  16   0.0000       0.311162         8.4672
  17   0.0000       0.528851        14.3908
  18   0.0000       0.605663        16.4809
  19   0.0000       0.718694        19.5567

MULLIKEN ATOMIC CHARGES
-----------------------
   0 C :    0.191689
   1 O :   -0.357874
   2 C :   -0.159630
   3 C :   -0.256037
   4 H :    0.130229
   5 H :    0.158411
   6 H :    0.146110
   7 H :    0.147102
Sum of atomic charges:    0.0000000

LOEWDIN ATOMIC CHARGES
----------------------
   0 C :    0.149202
   1 O :   -0.245367
   2 C :   -0.111544
   3 C :   -0.146870
   4 H :    0.073748
   5 H :    0.101169
   6 H :    0.093466
   7 H :    0.086197

  Mayer bond orders larger than 0.100000
B(  0-C ,  1-O ) :   1.9164 B(  0-C ,  2-C ) :   1.0228 B(  0-C ,  4-H ) :   0.9033
B(  2-C ,  3-C ) :   1.9557 B(  2-C ,  5-H ) :   0.9519 B(  3-C ,  6-H ) :   0.9636
B(  3-C ,  7-H ) :   0.9677

-----------------------------------------------------------------------------
         ABSORPTION SPECTRUM VIA TRANSITION ELECTRIC DIPOLE MOMENTS
-----------------------------------------------------------------------------
State   Energy    Wavelength  fosc         T2        TX        TY        TZ
        (cm-1)      (nm)                 (au**2)    (au)      (au)      (au)
-----------------------------------------------------------------------------
   1   35217.8    283.9   0.000109936   0.00103   0.01216  -0.01725  -0.02413

Dispersion correction           -0.025902613
FINAL SINGLE POINT ENERGY      -189.304367825607

DIPOLE MOMENT
-------------
                                X             Y             Z
Electronic contribution:     -3.00301      -0.26959       1.27669
Nuclear contribution   :      3.78371       0.31339      -1.91051
                        -----------------------------------------
Total Dipole Moment    :      0.78071       0.04380      -0.63381
                        -----------------------------------------
Magnitude (a.u.)       :      1.00655
Magnitude (Debye)      :      2.55844

Rotational constants in cm-1:     1.556500     0.162932     0.149974
Rotational constants in MHz : 46662.691587  4884.573543  4496.119290

                             ****ORCA TERMINATED NORMALLY****
TOTAL RUN TIME: 0 days 0 hours 0 minutes 10 seconds 611 msec
