                         Program Version 5.0.3 -  RELEASE  -
|  1> ! B3LYP cc-pVDZ
|  2> !TightSCF
|  3> %scf
|  4>  ConvForced true
|  5>  convergence tight
|  6>  MaxIter 500
|  7> end
|  8>
|  9> %tddft
| 10>  nroots 1
| 11> end
| 12>
| 13> # 	1121
| 14> * xyz 0 1
| 15> 		C   -1.214265  -0.330674   0.016050
| 16> 		O   -1.210922  -1.513491   0.196135
| 17> 		C    0.020746   0.502043   0.140721
| 18> 		C    1.179976  -0.041605   0.045657
| 19> 		H   -2.171964   0.287735  -0.302755
| 20> 		H   -0.086573   1.638502   0.241529
| 21> 		H    1.385836  -0.939231  -0.210899
| 22> 		H    2.079396   0.426083  -0.100599
| 23> *
| 24>
| 25>                          ****END OF INPUT****

CARTESIAN COORDINATES (ANGSTROEM)
---------------------------------
  C     -1.214265   -0.330674    0.016050
  O     -1.210922   -1.513491    0.196135
  C      0.020746    0.502043    0.140721
  C      1.179976   -0.041605    0.045657
  H     -2.171964    0.287735   -0.302755
  H     -0.086573    1.638502    0.241529
  H      1.385836   -0.939231   -0.210899
  H      2.079396    0.426083   -0.100599

 Total Charge           Charge          ....    0
 Multiplicity           Mult            ....    1
 Number of Electrons    NEL             ....   30
 Basis Dimension        Dim             ....   76

ORBITAL ENERGIES
----------------

  NO   OCC          E(Eh)            E(eV)
   0   2.0000     -19.143133      -520.9111
   1   2.0000     -10.282256      -279.7944
   2   2.0000     -10.205184      -277.6972
   3   2.0000     -10.184851      -277.1439
   4   2.0000      -1.057713       -28.7818
   5   2.0000      -0.806458       -21.9448
   6   2.0000      -0.662159       -18.0183
   7   2.0000      -0.557676       -15.1751
   8   2.0000      -0.504212       -13.7203
   9   2.0000      -0.458361       -12.4726
  10   2.0000      -0.431988       -11.7550
  11   2.0000      -0.400971       -10.9110
  12   2.0000      -0.375918       -10.2292
  13   2.0000      -0.296799        -8.0763
  14   2.0000      -0.257180        -6.9982
  15   0.0000      -0.060977        -1.6593
  16   0.0000       0.053056         1.4437
  17   0.0000       0.068490         1.8637
  18   0.0000       0.097780         2.6607
  19   0.0000       0.116478         3.1695

MULLIKEN ATOMIC CHARGES
-----------------------
   0 C :    0.162198
   1 O :   -0.169171
   2 C :   -0.145221
   3 C :    0.200783
   4 H :   -0.013500
   5 H :    0.006559
   6 H :   -0.038192
   7 H :   -0.003456
Sum of atomic charges:   -0.0000000

LOEWDIN ATOMIC CHARGES
----------------------
   0 C :   -0.039744
   1 O :    0.014795
   2 C :   -0.071746
   3 C :    0.038187
   4 H :   -0.003912
   5 H :    0.039981
   6 H :   -0.002410
   7 H :    0.024849

  Mayer bond orders larger than 0.100000
B(  0-C ,  1-O ) :   2.2250 B(  0-C ,  2-C ) :   1.0200 B(  0-C ,  4-H ) :   0.8967
B(  2-C ,  3-C ) :   1.9945 B(  2-C ,  5-H ) :   0.9325 B(  3-C ,  6-H ) :   0.9368
B(  3-C ,  7-H ) :   0.9434

-----------------------------------------------------------------------------
         ABSORPTION SPECTRUM VIA TRANSITION ELECTRIC DIPOLE MOMENTS
-----------------------------------------------------------------------------
State   Energy    Wavelength  fosc         T2        TX        TY        TZ
        (cm-1)      (nm)                 (au**2)    (au)      (au)      (au)
-----------------------------------------------------------------------------
   1   30006.8    333.3   0.000063295   0.00069  -0.00649  -0.01433   0.02115

FINAL SINGLE POINT ENERGY      -191.635876103104

DIPOLE MOMENT
-------------
                                X             Y             Z
Electronic contribution:     -1.93004      -1.91997       0.50241
Nuclear contribution   :      2.34528       2.73009      -0.69579
                        -----------------------------------------
Total Dipole Moment    :      0.41524       0.81012      -0.19338
                        -----------------------------------------
Magnitude (a.u.)       :      0.93065
Magnitude (Debye)      :      2.36553

Rotational constants in cm-1:     0.775024     0.212872     0.168795
Rotational constants in MHz : 23234.624489  6381.746864  5060.350298

                             ****ORCA TERMINATED NORMALLY****
TOTAL RUN TIME: 0 days 0 hours 3 minutes 27 seconds 675 msec
