                         Program Version 5.0.3 -  RELEASE  -
|  1> ! B3LYP cc-pVDZ
|  2> !TightSCF
|  3> %scf
|  4>  ConvForced true
|  5>  convergence tight
|  6>  MaxIter 500
|  7> end
|  8>
|  9> %tddft
| 10>  nroots 1
| 11> end
| 12>
| 13> # 	30426
| 14> * xyz 0 1
| 15> 		C   -0.572762  -0.404893   0.012277
| 16> 		O   -0.580902  -1.661315  -0.014044
| 17> 		C    0.661371   0.435512   0.034030
| 18> 		C    1.816433  -0.142277  -0.033777
| 19> 		H   -1.629022   0.089211  -0.004001
| 20> 		H    0.493601   1.480174  -0.184940
| 21> 		H    2.009929  -1.097720   0.227416
| 22> 		H    2.621020   0.491744   0.025117
| 23> *
| 24>
| 25>                          ****END OF INPUT****

CARTESIAN COORDINATES (ANGSTROEM)
---------------------------------
  C     -0.572762   -0.404893    0.012277
  O     -0.580902   -1.661315   -0.014044
  C      0.661371    0.435512    0.034030
  C      1.816433   -0.142277   -0.033777
  H     -1.629022    0.089211   -0.004001
  H      0.493601    1.480174   -0.184940
  H      2.009929   -1.097720    0.227416
  H      2.621020    0.491744    0.025117

 Total Charge           Charge          ....    0
 Multiplicity           Mult            ....    1
 Number of Electrons    NEL             ....   30
 Basis Dimension        Dim             ....   76

ORBITAL ENERGIES
----------------

  NO   OCC          E(Eh)            E(eV)
   0   2.0000     -19.136955      -520.7430
   1   2.0000     -10.280308      -279.7414
   2   2.0000     -10.206225      -277.7255
   3   2.0000     -10.195786      -277.4414
   4   2.0000      -1.019731       -27.7483
   5   2.0000      -0.811528       -22.0828
   6   2.0000      -0.661016       -17.9872
   7   2.0000      -0.548507       -14.9256
   8   2.0000      -0.511413       -13.9163
   9   2.0000      -0.454471       -12.3668
  10   2.0000      -0.416179       -11.3248
  11   2.0000      -0.387743       -10.5510
  12   2.0000      -0.383402       -10.4329
  13   2.0000      -0.296195        -8.0599
  14   2.0000      -0.252313        -6.8658
  15   0.0000      -0.073638        -2.0038
  16   0.0000       0.051574         1.4034
  17   0.0000       0.067318         1.8318
  18   0.0000       0.099359         2.7037
  19   0.0000       0.119527         3.2525

MULLIKEN ATOMIC CHARGES
-----------------------
   0 C :    0.154729
   1 O :   -0.225812
   2 C :   -0.117486
   3 C :    0.183717
   4 H :   -0.003094
   5 H :   -0.003831
   6 H :    0.006589
   7 H :    0.005188
Sum of atomic charges:   -0.0000000

LOEWDIN ATOMIC CHARGES
----------------------
   0 C :   -0.004748
   1 O :   -0.051424
   2 C :   -0.069138
   3 C :    0.051094
   4 H :    0.003530
   5 H :    0.030701
   6 H :    0.016444
   7 H :    0.023541

  Mayer bond orders larger than 0.100000
B(  0-C ,  1-O ) :   2.1442 B(  0-C ,  2-C ) :   1.0473 B(  0-C ,  4-H ) :   0.9186
B(  2-C ,  3-C ) :   1.9840 B(  2-C ,  5-H ) :   0.9417 B(  3-C ,  6-H ) :   0.9385
B(  3-C ,  7-H ) :   0.9312

-----------------------------------------------------------------------------
         ABSORPTION SPECTRUM VIA TRANSITION ELECTRIC DIPOLE MOMENTS
-----------------------------------------------------------------------------
State   Energy    Wavelength  fosc         T2        TX        TY        TZ
        (cm-1)      (nm)                 (au**2)    (au)      (au)      (au)
-----------------------------------------------------------------------------
   1   26057.6    383.8   0.000409719   0.00518  -0.06120  -0.00641   0.03729

FINAL SINGLE POINT ENERGY      -191.666812262316

DIPOLE MOMENT
-------------
                                X             Y             Z
Electronic contribution:     -1.67668      -1.73354      -0.03248
Nuclear contribution   :      2.12097       2.69027       0.06013
                        -----------------------------------------
Total Dipole Moment    :      0.44428       0.95673       0.02765
                        -----------------------------------------
Magnitude (a.u.)       :      1.05522
Magnitude (Debye)      :      2.68215

Rotational constants in cm-1:     0.756277     0.210105     0.164811
Rotational constants in MHz : 22672.620383  6298.803963  4940.901803

                             ****ORCA TERMINATED NORMALLY****
TOTAL RUN TIME: 0 days 0 hours 3 minutes 21 seconds 432 msec
