                         Program Version 5.0.3 -  RELEASE  -
|  1> ! B3LYP cc-pVDZ
|  2> !TightSCF
|  3> %scf
|  4>  ConvForced true
|  5>  convergence tight
|  6>  MaxIter 500
|  7> end
|  8>
|  9> %tddft
| 10>  nroots 1
| 11> end
| 12>
| 13> # 	22184
| 14> * xyz 0 1
| 15> 		C   -0.556789  -0.429819   0.000848
| 16> 		O   -0.649647  -1.680135   0.008852
| 17> 		C    0.674099   0.344647  -0.014428
| 18> 		C    1.848094  -0.013104   0.016787
| 19> 		H   -1.504724   0.235431  -0.148376
| 20> 		H    0.520884   1.500958   0.186761
| 21> 		H    2.155735  -1.051345  -0.099636
| 22> 		H    2.697243   0.428257  -0.111749
| 23> *
| 24>
| 25>                          ****END OF INPUT****

CARTESIAN COORDINATES (ANGSTROEM)
---------------------------------
  C     -0.556789   -0.429819    0.000848
  O     -0.649647   -1.680135    0.008852
  C      0.674099    0.344647   -0.014428
  C      1.848094   -0.013104    0.016787
  H     -1.504724    0.235431   -0.148376
  H      0.520884    1.500958    0.186761
  H      2.155735   -1.051345   -0.099636
  H      2.697243    0.428257   -0.111749

 Total Charge           Charge          ....    0
 Multiplicity           Mult            ....    1
 Number of Electrons    NEL             ....   30
 Basis Dimension        Dim             ....   76

ORBITAL ENERGIES
----------------

  NO   OCC          E(Eh)            E(eV)
   0   2.0000     -19.144825      -520.9572
   1   2.0000     -10.285200      -279.8745
   2   2.0000     -10.205503      -277.7058
   3   2.0000     -10.191768      -277.3321
   4   2.0000      -1.025987       -27.9185
   5   2.0000      -0.823020       -22.3955
   6   2.0000      -0.675955       -18.3937
   7   2.0000      -0.561721       -15.2852
   8   2.0000      -0.503958       -13.7134
   9   2.0000      -0.461171       -12.5491
  10   2.0000      -0.426640       -11.6095
  11   2.0000      -0.394954       -10.7473
  12   2.0000      -0.349785        -9.5181
  13   2.0000      -0.306828        -8.3492
  14   2.0000      -0.259454        -7.0601
  15   0.0000      -0.075116        -2.0440
  16   0.0000       0.050037         1.3616
  17   0.0000       0.074660         2.0316
  18   0.0000       0.094010         2.5581
  19   0.0000       0.114309         3.1105

MULLIKEN ATOMIC CHARGES
-----------------------
   0 C :    0.171077
   1 O :   -0.210950
   2 C :   -0.150840
   3 C :    0.196277
   4 H :   -0.000910
   5 H :    0.006626
   6 H :    0.013349
   7 H :   -0.024629
Sum of atomic charges:   -0.0000000

LOEWDIN ATOMIC CHARGES
----------------------
   0 C :   -0.009159
   1 O :   -0.034453
   2 C :   -0.089307
   3 C :    0.033426
   4 H :    0.006403
   5 H :    0.047390
   6 H :    0.040454
   7 H :    0.005247

  Mayer bond orders larger than 0.100000
B(  0-C ,  1-O ) :   2.1707 B(  0-C ,  2-C ) :   1.0576 B(  0-C ,  4-H ) :   0.9030
B(  2-C ,  3-C ) :   2.0225 B(  2-C ,  5-H ) :   0.9170 B(  3-C ,  6-H ) :   0.9231
B(  3-C ,  7-H ) :   0.9227

-----------------------------------------------------------------------------
         ABSORPTION SPECTRUM VIA TRANSITION ELECTRIC DIPOLE MOMENTS
-----------------------------------------------------------------------------
State   Energy    Wavelength  fosc         T2        TX        TY        TZ
        (cm-1)      (nm)                 (au**2)    (au)      (au)      (au)
-----------------------------------------------------------------------------
   1   26854.7    372.4   0.000257748   0.00316  -0.04029  -0.00151  -0.03917

FINAL SINGLE POINT ENERGY      -191.634871801075

DIPOLE MOMENT
-------------
                                X             Y             Z
Electronic contribution:     -1.91856      -1.92080       0.13737
Nuclear contribution   :      2.47034       2.82990      -0.16256
                        -----------------------------------------
Total Dipole Moment    :      0.55179       0.90910      -0.02519
                        -----------------------------------------
Magnitude (a.u.)       :      1.06376
Magnitude (Debye)      :      2.70385

Rotational constants in cm-1:     0.851888     0.195599     0.159336
Rotational constants in MHz : 25538.969865  5863.914477  4776.783121

                             ****ORCA TERMINATED NORMALLY****
TOTAL RUN TIME: 0 days 0 hours 3 minutes 27 seconds 971 msec
