                         Program Version 5.0.3 -  RELEASE  -
|  1> ! HF-3c
|  2> !TightSCF
|  3> %scf
|  4>  ConvForced true
|  5>  convergence tight
|  6>  MaxIter 500
|  7> end
|  8>
|  9> %tddft
| 10>  nroots 1
| 11> end
| 12>
| 13> # 	21365
| 14> * xyz 0 1
| 15> 		C   -0.563883  -0.431177   0.090795
| 16> 		O   -0.559408  -1.577548  -0.053483
| 17> 		C    0.629544   0.382845  -0.047106
| 18> 		C    1.782628  -0.162032   0.059353
| 19> 		H   -1.539621   0.074181   0.038700
| 20> 		H    0.552834   1.417781  -0.225729
| 21> 		H    1.984440  -1.136008   0.101414
| 22> 		H    2.807668   0.447680  -0.323640
| 23> *
| 24>
| 25>                          ****END OF INPUT****

CARTESIAN COORDINATES (ANGSTROEM)
---------------------------------
  C     -0.563883   -0.431177    0.090795
  O     -0.559408   -1.577548   -0.053483
  C      0.629544    0.382845   -0.047106
  C      1.782628   -0.162032    0.059353
  H     -1.539621    0.074181    0.038700
  H      0.552834    1.417781   -0.225729
  H      1.984440   -1.136008    0.101414
  H      2.807668    0.447680   -0.323640

 Total Charge           Charge          ....    0
 Multiplicity           Mult            ....    1
 Number of Electrons    NEL             ....   30
 Basis Dimension        Dim             ....   24

ORBITAL ENERGIES
----------------

  NO   OCC          E(Eh)            E(eV)
   0   2.0000     -20.379610      -554.5574
   1   2.0000     -11.309253      -307.7404
   2   2.0000     -11.192913      -304.5746
   3   2.0000     -11.192009      -304.5500
   4   2.0000      -1.448478       -39.4151
   5   2.0000      -1.100582       -29.9484
   6   2.0000      -0.891442       -24.2574
   7   2.0000      -0.760509       -20.6945
   8   2.0000      -0.727045       -19.7839
   9   2.0000      -0.636106       -17.3093
  10   2.0000      -0.595196       -16.1961
  11   2.0000      -0.569279       -15.4909
  12   2.0000      -0.519738       -14.1428
  13   2.0000      -0.412337       -11.2202
  14   2.0000      -0.410384       -11.1671
  15   0.0000       0.145099         3.9483
  16   0.0000       0.320209         8.7133
  17   0.0000       0.476029        12.9534
  18   0.0000       0.661473        17.9996
  19   0.0000       0.680492        18.5171

MULLIKEN ATOMIC CHARGES
-----------------------
   0 C :    0.179599
   1 O :   -0.357920
   2 C :   -0.196250
   3 C :   -0.207039
   4 H :    0.133626
   5 H :    0.149511
   6 H :    0.150726
   7 H :    0.147747
Sum of atomic charges:   -0.0000000

LOEWDIN ATOMIC CHARGES
----------------------
   0 C :    0.147078
   1 O :   -0.245795
   2 C :   -0.146164
   3 C :   -0.114301
   4 H :    0.067585
   5 H :    0.093851
   6 H :    0.089300
   7 H :    0.108446

  Mayer bond orders larger than 0.100000
B(  0-C ,  1-O ) :   1.9125 B(  0-C ,  2-C ) :   1.0120 B(  0-C ,  4-H ) :   0.9210
B(  2-C ,  3-C ) :   1.9606 B(  2-C ,  5-H ) :   0.9553 B(  3-C ,  6-H ) :   0.9629
B(  3-C ,  7-H ) :   0.9561

-----------------------------------------------------------------------------
         ABSORPTION SPECTRUM VIA TRANSITION ELECTRIC DIPOLE MOMENTS
-----------------------------------------------------------------------------
State   Energy    Wavelength  fosc         T2        TX        TY        TZ
        (cm-1)      (nm)                 (au**2)    (au)      (au)      (au)
-----------------------------------------------------------------------------
   1   34819.1    287.2   0.000156537   0.00148  -0.03627   0.00069  -0.01280

Dispersion correction           -0.026382510
FINAL SINGLE POINT ENERGY      -189.289661215435

DIPOLE MOMENT
-------------
                                X             Y             Z
Electronic contribution:     -2.05747      -1.65700       0.35443
Nuclear contribution   :      2.41364       2.54205      -0.38269
                        -----------------------------------------
Total Dipole Moment    :      0.35617       0.88505      -0.02826
                        -----------------------------------------
Magnitude (a.u.)       :      0.95445
Magnitude (Debye)      :      2.42601

Rotational constants in cm-1:     0.818320     0.221742     0.175858
Rotational constants in MHz : 24532.601882  6647.645991  5272.087464

                             ****ORCA TERMINATED NORMALLY****
TOTAL RUN TIME: 0 days 0 hours 0 minutes 13 seconds 749 msec
