                         Program Version 5.0.3 -  RELEASE  -
|  1> ! HF-3c
|  2> !TightSCF
|  3> %scf
|  4>  ConvForced true
|  5>  convergence tight
|  6>  MaxIter 500
|  7> end
|  8>
|  9> %tddft
| 10>  nroots 1
| 11> end
| 12>
| 13> # 	16694
| 14> * xyz 0 1
| 15> 		C   -1.156650  -0.254426  -0.169845
| 16> 		O   -1.834715  -0.634114  -1.047767
| 17> 		C    0.058421   0.534998  -0.261331
| 18> 		C    1.209224   0.054366   0.193630
| 19> 		H   -1.552533  -0.697691   0.951378
| 20> 		H   -0.024710   1.368735  -0.789544
| 21> 		H    1.131204  -1.008254   0.898145
| 22> 		H    2.109232   0.658423   0.224743
| 23> *
| 24>
| 25>                          ****END OF INPUT****

CARTESIAN COORDINATES (ANGSTROEM)
---------------------------------
  C     -1.156650   -0.254426   -0.169845
  O     -1.834715   -0.634114   -1.047767
  C      0.058421    0.534998   -0.261331
  C      1.209224    0.054366    0.193630
  H     -1.552533   -0.697691    0.951378
  H     -0.024710    1.368735   -0.789544
  H      1.131204   -1.008254    0.898145
  H      2.109232    0.658423    0.224743

 Total Charge           Charge          ....    0
 Multiplicity           Mult            ....    1
 Number of Electrons    NEL             ....   30
 Basis Dimension        Dim             ....   24

ORBITAL ENERGIES
----------------

  NO   OCC          E(Eh)            E(eV)
   0   2.0000     -20.371645      -554.3406
   1   2.0000     -11.299120      -307.4647
   2   2.0000     -11.194423      -304.6157
   3   2.0000     -11.193125      -304.5804
   4   2.0000      -1.427610       -38.8472
   5   2.0000      -1.090209       -29.6661
   6   2.0000      -0.868519       -23.6336
   7   2.0000      -0.758812       -20.6483
   8   2.0000      -0.671326       -18.2677
   9   2.0000      -0.647732       -17.6257
  10   2.0000      -0.595314       -16.1993
  11   2.0000      -0.532223       -14.4825
  12   2.0000      -0.521324       -14.1860
  13   2.0000      -0.408508       -11.1161
  14   2.0000      -0.387459       -10.5433
  15   0.0000       0.161791         4.4025
  16   0.0000       0.267470         7.2782
  17   0.0000       0.453892        12.3510
  18   0.0000       0.509841        13.8735
  19   0.0000       0.628917        17.1137

MULLIKEN ATOMIC CHARGES
-----------------------
   0 C :    0.197371
   1 O :   -0.361482
   2 C :   -0.207496
   3 C :   -0.197167
   4 H :    0.119848
   5 H :    0.154024
   6 H :    0.147460
   7 H :    0.147442
Sum of atomic charges:   -0.0000000

LOEWDIN ATOMIC CHARGES
----------------------
   0 C :    0.153499
   1 O :   -0.253551
   2 C :   -0.152135
   3 C :   -0.115761
   4 H :    0.069223
   5 H :    0.092489
   6 H :    0.110531
   7 H :    0.095705

  Mayer bond orders larger than 0.100000
B(  0-C ,  1-O ) :   1.9358 B(  0-C ,  2-C ) :   1.0034 B(  0-C ,  4-H ) :   0.8990
B(  2-C ,  3-C ) :   1.9698 B(  2-C ,  5-H ) :   0.9527 B(  3-C ,  6-H ) :   0.9556
B(  3-C ,  7-H ) :   0.9619

-----------------------------------------------------------------------------
         ABSORPTION SPECTRUM VIA TRANSITION ELECTRIC DIPOLE MOMENTS
-----------------------------------------------------------------------------
State   Energy    Wavelength  fosc         T2        TX        TY        TZ
        (cm-1)      (nm)                 (au**2)    (au)      (au)      (au)
-----------------------------------------------------------------------------
   1   35528.7    281.5   0.000166638   0.00154   0.01680   0.03091  -0.01751

Dispersion correction           -0.025407546
FINAL SINGLE POINT ENERGY      -189.269489436917

DIPOLE MOMENT
-------------
                                X             Y             Z
Electronic contribution:     -2.51719      -0.45468      -1.62120
Nuclear contribution   :      3.30354       0.68163       2.42100
                        -----------------------------------------
Total Dipole Moment    :      0.78635       0.22696       0.79979
                        -----------------------------------------
Magnitude (a.u.)       :      1.14434
Magnitude (Debye)      :      2.90869

Rotational constants in cm-1:     1.197869     0.163126     0.155598
Rotational constants in MHz : 35911.210394  4890.408404  4664.717726

                             ****ORCA TERMINATED NORMALLY****
TOTAL RUN TIME: 0 days 0 hours 0 minutes 16 seconds 41 msec
