                         Program Version 5.0.3 -  RELEASE  -
|  1> ! B3LYP cc-pVDZ
|  2> !TightSCF
|  3> %scf
|  4>  ConvForced true
|  5>  convergence tight
|  6>  MaxIter 500
|  7> end
|  8>
|  9> %tddft
| 10>  nroots 1
| 11> end
| 12>
| 13> # 	16958
| 14> * xyz 0 1
| 15> 		C   -1.241519  -0.370080  -0.068819
| 16> 		O   -2.190897  -0.430352  -0.600056
| 17> 		C    0.003914   0.456374  -0.337725
| 18> 		C    1.234428   0.154938   0.162502
| 19> 		H   -1.056952  -0.924659   0.689563
| 20> 		H   -0.177087   1.234886  -0.935304
| 21> 		H    1.292082  -0.856213   0.888936
| 22> 		H    2.166184   0.691490   0.155356
| 23> *
| 24>
| 25>                          ****END OF INPUT****

CARTESIAN COORDINATES (ANGSTROEM)
---------------------------------
  C     -1.241519   -0.370080   -0.068819
  O     -2.190897   -0.430352   -0.600056
  C      0.003914    0.456374   -0.337725
  C      1.234428    0.154938    0.162502
  H     -1.056952   -0.924659    0.689563
  H     -0.177087    1.234886   -0.935304
  H      1.292082   -0.856213    0.888936
  H      2.166184    0.691490    0.155356

 Total Charge           Charge          ....    0
 Multiplicity           Mult            ....    1
 Number of Electrons    NEL             ....   30
 Basis Dimension        Dim             ....   76

ORBITAL ENERGIES
----------------

  NO   OCC          E(Eh)            E(eV)
   0   2.0000     -19.139390      -520.8093
   1   2.0000     -10.253806      -279.0202
   2   2.0000     -10.227951      -278.3167
   3   2.0000     -10.194398      -277.4037
   4   2.0000      -1.121034       -30.5049
   5   2.0000      -0.788751       -21.4630
   6   2.0000      -0.646071       -17.5805
   7   2.0000      -0.592941       -16.1347
   8   2.0000      -0.486891       -13.2490
   9   2.0000      -0.476235       -12.9590
  10   2.0000      -0.450309       -12.2535
  11   2.0000      -0.435595       -11.8531
  12   2.0000      -0.373258       -10.1569
  13   2.0000      -0.288401        -7.8478
  14   2.0000      -0.249738        -6.7957
  15   0.0000      -0.051532        -1.4023
  16   0.0000       0.060403         1.6436
  17   0.0000       0.068793         1.8719
  18   0.0000       0.097477         2.6525
  19   0.0000       0.133112         3.6222

MULLIKEN ATOMIC CHARGES
-----------------------
   0 C :    0.252573
   1 O :   -0.088886
   2 C :   -0.069975
   3 C :   -0.009326
   4 H :   -0.118966
   5 H :   -0.047349
   6 H :    0.040985
   7 H :    0.040943
Sum of atomic charges:   -0.0000000

LOEWDIN ATOMIC CHARGES
----------------------
   0 C :   -0.098213
   1 O :    0.135534
   2 C :   -0.046577
   3 C :   -0.008547
   4 H :   -0.047935
   5 H :   -0.003122
   6 H :    0.043662
   7 H :    0.025198

  Mayer bond orders larger than 0.100000
B(  0-C ,  1-O ) :   2.3426 B(  0-C ,  2-C ) :   1.0224 B(  0-C ,  4-H ) :   0.9097
B(  2-C ,  3-C ) :   1.9413 B(  2-C ,  5-H ) :   0.9557 B(  3-C ,  6-H ) :   0.9310
B(  3-C ,  7-H ) :   0.9515

-----------------------------------------------------------------------------
         ABSORPTION SPECTRUM VIA TRANSITION ELECTRIC DIPOLE MOMENTS
-----------------------------------------------------------------------------
State   Energy    Wavelength  fosc         T2        TX        TY        TZ
        (cm-1)      (nm)                 (au**2)    (au)      (au)      (au)
-----------------------------------------------------------------------------
   1   31633.8    316.1   0.000082458   0.00086   0.01125   0.01294  -0.02375

FINAL SINGLE POINT ENERGY      -191.589660611339

DIPOLE MOMENT
-------------
                                X             Y             Z
Electronic contribution:     -3.46950      -0.23453      -1.20224
Nuclear contribution   :      4.26172       0.38827       1.52833
                        -----------------------------------------
Total Dipole Moment    :      0.79222       0.15373       0.32609
                        -----------------------------------------
Magnitude (a.u.)       :      0.87039
Magnitude (Debye)      :      2.21236

Rotational constants in cm-1:     1.705336     0.152561     0.141107
Rotational constants in MHz : 51124.690785  4573.673673  4230.287868

                             ****ORCA TERMINATED NORMALLY****
TOTAL RUN TIME: 0 days 0 hours 3 minutes 21 seconds 948 msec
