                         Program Version 5.0.3 -  RELEASE  -
|  1> ! HF-3c
|  2> !TightSCF
|  3> %scf
|  4>  ConvForced true
|  5>  convergence tight
|  6>  MaxIter 500
|  7> end
|  8>
|  9> %tddft
| 10>  nroots 1
| 11> end
| 12>
| 13> # 	13315
| 14> * xyz 0 1
| 15> 		C   -1.185200  -0.350572   0.031450
| 16> 		O   -1.999842  -0.749135   0.903840
| 17> 		C   -0.009191   0.461713   0.346782
| 18> 		C    1.201954   0.125590  -0.269537
| 19> 		H   -1.330975  -0.618069  -0.992720
| 20> 		H   -0.145457   1.212500   0.841237
| 21> 		H    1.278818  -0.611871  -0.953112
| 22> 		H    2.222104   0.531236   0.146963
| 23> *
| 24>
| 25>                          ****END OF INPUT****

CARTESIAN COORDINATES (ANGSTROEM)
---------------------------------
  C     -1.185200   -0.350572    0.031450
  O     -1.999842   -0.749135    0.903840
  C     -0.009191    0.461713    0.346782
  C      1.201954    0.125590   -0.269537
  H     -1.330975   -0.618069   -0.992720
  H     -0.145457    1.212500    0.841237
  H      1.278818   -0.611871   -0.953112
  H      2.222104    0.531236    0.146963

 Total Charge           Charge          ....    0
 Multiplicity           Mult            ....    1
 Number of Electrons    NEL             ....   30
 Basis Dimension        Dim             ....   24

ORBITAL ENERGIES
----------------

  NO   OCC          E(Eh)            E(eV)
   0   2.0000     -20.356193      -553.9202
   1   2.0000     -11.289624      -307.2063
   2   2.0000     -11.203492      -304.8625
   3   2.0000     -11.201705      -304.8139
   4   2.0000      -1.369159       -37.2567
   5   2.0000      -1.086182       -29.5565
   6   2.0000      -0.893337       -24.3089
   7   2.0000      -0.815699       -22.1963
   8   2.0000      -0.677731       -18.4420
   9   2.0000      -0.643651       -17.5146
  10   2.0000      -0.600449       -16.3391
  11   2.0000      -0.556534       -15.1441
  12   2.0000      -0.501572       -13.6485
  13   2.0000      -0.421403       -11.4670
  14   2.0000      -0.383061       -10.4236
  15   0.0000       0.126238         3.4351
  16   0.0000       0.232136         6.3168
  17   0.0000       0.550608        14.9828
  18   0.0000       0.637910        17.3584
  19   0.0000       0.712031        19.3754

MULLIKEN ATOMIC CHARGES
-----------------------
   0 C :    0.151292
   1 O :   -0.337449
   2 C :   -0.195239
   3 C :   -0.204077
   4 H :    0.141228
   5 H :    0.150966
   6 H :    0.137946
   7 H :    0.155333
Sum of atomic charges:   -0.0000000

LOEWDIN ATOMIC CHARGES
----------------------
   0 C :    0.148765
   1 O :   -0.258269
   2 C :   -0.133892
   3 C :   -0.106403
   4 H :    0.075527
   5 H :    0.082867
   6 H :    0.081820
   7 H :    0.109584

  Mayer bond orders larger than 0.100000
B(  0-C ,  1-O ) :   1.9121 B(  0-C ,  2-C ) :   1.0315 B(  0-C ,  4-H ) :   0.9319
B(  2-C ,  3-C ) :   1.9392 B(  2-C ,  5-H ) :   0.9641 B(  3-C ,  6-H ) :   0.9714
B(  3-C ,  7-H ) :   0.9625

-----------------------------------------------------------------------------
         ABSORPTION SPECTRUM VIA TRANSITION ELECTRIC DIPOLE MOMENTS
-----------------------------------------------------------------------------
State   Energy    Wavelength  fosc         T2        TX        TY        TZ
        (cm-1)      (nm)                 (au**2)    (au)      (au)      (au)
-----------------------------------------------------------------------------
   1   31226.8    320.2   0.000008234   0.00009  -0.00817  -0.00445   0.00046

Dispersion correction           -0.025469272
FINAL SINGLE POINT ENERGY      -189.285402148085

DIPOLE MOMENT
-------------
                                X             Y             Z
Electronic contribution:     -2.91284      -0.75836       1.15864
Nuclear contribution   :      3.87661       1.05049      -1.87967
                        -----------------------------------------
Total Dipole Moment    :      0.96377       0.29214      -0.72103
                        -----------------------------------------
Magnitude (a.u.)       :      1.23858
Magnitude (Debye)      :      3.14822

Rotational constants in cm-1:     1.310806     0.153457     0.145520
Rotational constants in MHz : 39296.967973  4600.518608  4362.590637

                             ****ORCA TERMINATED NORMALLY****
TOTAL RUN TIME: 0 days 0 hours 0 minutes 15 seconds 853 msec
