                         Program Version 5.0.3 -  RELEASE  -
|  1> ! B3LYP cc-pVDZ
|  2> !TightSCF
|  3> %scf
|  4>  ConvForced true
|  5>  convergence tight
|  6>  MaxIter 500
|  7> end
|  8>
|  9> %tddft
| 10>  nroots 1
| 11> end
| 12>
| 13> # 	31014
| 14> * xyz 0 1
| 15> 		C   -0.572182  -0.407111  -0.019222
| 16> 		O   -0.570173  -1.618084   0.016561
| 17> 		C    0.606985   0.396933   0.023235
| 18> 		C    1.810401  -0.140115  -0.002769
| 19> 		H   -1.466222  -0.002574  -0.262823
| 20> 		H    0.594536   1.545461   0.217422
| 21> 		H    2.148698  -1.177095  -0.005303
| 22> 		H    2.760321   0.376356  -0.225494
| 23> *
| 24>
| 25>                          ****END OF INPUT****

CARTESIAN COORDINATES (ANGSTROEM)
---------------------------------
  C     -0.572182   -0.407111   -0.019222
  O     -0.570173   -1.618084    0.016561
  C      0.606985    0.396933    0.023235
  C      1.810401   -0.140115   -0.002769
  H     -1.466222   -0.002574   -0.262823
  H      0.594536    1.545461    0.217422
  H      2.148698   -1.177095   -0.005303
  H      2.760321    0.376356   -0.225494

 Total Charge           Charge          ....    0
 Multiplicity           Mult            ....    1
 Number of Electrons    NEL             ....   30
 Basis Dimension        Dim             ....   76

ORBITAL ENERGIES
----------------

  NO   OCC          E(Eh)            E(eV)
   0   2.0000     -19.127876      -520.4960
   1   2.0000     -10.259405      -279.1726
   2   2.0000     -10.213437      -277.9218
   3   2.0000     -10.208822      -277.7962
   4   2.0000      -1.041687       -28.3457
   5   2.0000      -0.800192       -21.7743
   6   2.0000      -0.666849       -18.1459
   7   2.0000      -0.562173       -15.2975
   8   2.0000      -0.508629       -13.8405
   9   2.0000      -0.452602       -12.3159
  10   2.0000      -0.420334       -11.4379
  11   2.0000      -0.397337       -10.8121
  12   2.0000      -0.363536        -9.8923
  13   2.0000      -0.286040        -7.7836
  14   2.0000      -0.250822        -6.8252
  15   0.0000      -0.071185        -1.9371
  16   0.0000       0.048531         1.3206
  17   0.0000       0.076703         2.0872
  18   0.0000       0.091791         2.4978
  19   0.0000       0.124115         3.3773

MULLIKEN ATOMIC CHARGES
-----------------------
   0 C :    0.246537
   1 O :   -0.201081
   2 C :   -0.132318
   3 C :    0.057936
   4 H :   -0.049348
   5 H :    0.020133
   6 H :    0.030346
   7 H :    0.027794
Sum of atomic charges:    0.0000000

LOEWDIN ATOMIC CHARGES
----------------------
   0 C :   -0.035005
   1 O :   -0.005364
   2 C :   -0.090413
   3 C :    0.032462
   4 H :   -0.018061
   5 H :    0.049429
   6 H :    0.032130
   7 H :    0.034821

  Mayer bond orders larger than 0.100000
B(  0-C ,  1-O ) :   2.1928 B(  0-C ,  2-C ) :   1.0669 B(  0-C ,  4-H ) :   0.9442
B(  1-O ,  3-C ) :   0.1066 B(  2-C ,  3-C ) :   1.9463 B(  2-C ,  5-H ) :   0.9296
B(  3-C ,  6-H ) :   0.9546 B(  3-C ,  7-H ) :   0.9500

-----------------------------------------------------------------------------
         ABSORPTION SPECTRUM VIA TRANSITION ELECTRIC DIPOLE MOMENTS
-----------------------------------------------------------------------------
State   Energy    Wavelength  fosc         T2        TX        TY        TZ
        (cm-1)      (nm)                 (au**2)    (au)      (au)      (au)
-----------------------------------------------------------------------------
   1   26437.1    378.3   0.000085210   0.00106  -0.02384  -0.00701  -0.02106

FINAL SINGLE POINT ENERGY      -191.660078789930

DIPOLE MOMENT
-------------
                                X             Y             Z
Electronic contribution:     -2.18233      -1.59565       0.21287
Nuclear contribution   :      2.62950       2.48302      -0.25898
                        -----------------------------------------
Total Dipole Moment    :      0.44717       0.88737      -0.04611
                        -----------------------------------------
Magnitude (a.u.)       :      0.99474
Magnitude (Debye)      :      2.52843

Rotational constants in cm-1:     0.771867     0.215866     0.169312
Rotational constants in MHz : 23139.988411  6471.486204  5075.840502

                             ****ORCA TERMINATED NORMALLY****
TOTAL RUN TIME: 0 days 0 hours 3 minutes 21 seconds 618 msec
