                         Program Version 5.0.3 -  RELEASE  -
|  1> ! HF-3c
|  2> !TightSCF
|  3> %scf
|  4>  ConvForced true
|  5>  convergence tight
|  6>  MaxIter 500
|  7> end
|  8>
|  9> %tddft
| 10>  nroots 1
| 11> end
| 12>
| 13> # 	25438
| 14> * xyz 0 1
| 15> 		C   -0.620780  -0.418806   0.020335
| 16> 		O   -0.584357  -1.660996  -0.013673
| 17> 		C    0.599626   0.431645   0.004672
| 18> 		C    1.908987  -0.126428  -0.003071
| 19> 		H   -1.462949   0.083047   0.012768
| 20> 		H    0.493184   1.492643  -0.130411
| 21> 		H    2.073991  -1.146080   0.070134
| 22> 		H    2.632138   0.545553  -0.004147
| 23> *
| 24>
| 25>                          ****END OF INPUT****

CARTESIAN COORDINATES (ANGSTROEM)
---------------------------------
  C     -0.620780   -0.418806    0.020335
  O     -0.584357   -1.660996   -0.013673
  C      0.599626    0.431645    0.004672
  C      1.908987   -0.126428   -0.003071
  H     -1.462949    0.083047    0.012768
  H      0.493184    1.492643   -0.130411
  H      2.073991   -1.146080    0.070134
  H      2.632138    0.545553   -0.004147

 Total Charge           Charge          ....    0
 Multiplicity           Mult            ....    1
 Number of Electrons    NEL             ....   30
 Basis Dimension        Dim             ....   24

ORBITAL ENERGIES
----------------

  NO   OCC          E(Eh)            E(eV)
   0   2.0000     -20.365813      -554.1819
   1   2.0000     -11.296706      -307.3990
   2   2.0000     -11.195508      -304.6453
   3   2.0000     -11.189041      -304.4693
   4   2.0000      -1.382990       -37.6331
   5   2.0000      -1.063485       -28.9389
   6   2.0000      -0.921534       -25.0762
   7   2.0000      -0.780598       -21.2411
   8   2.0000      -0.708742       -19.2859
   9   2.0000      -0.617736       -16.8095
  10   2.0000      -0.596790       -16.2395
  11   2.0000      -0.555421       -15.1138
  12   2.0000      -0.528920       -14.3926
  13   2.0000      -0.427119       -11.6225
  14   2.0000      -0.374020       -10.1776
  15   0.0000       0.105209         2.8629
  16   0.0000       0.279950         7.6178
  17   0.0000       0.605595        16.4791
  18   0.0000       0.643809        17.5189
  19   0.0000       0.685526        18.6541

MULLIKEN ATOMIC CHARGES
-----------------------
   0 C :    0.130519
   1 O :   -0.333900
   2 C :   -0.151289
   3 C :   -0.231841
   4 H :    0.140129
   5 H :    0.140951
   6 H :    0.161835
   7 H :    0.143597
Sum of atomic charges:    0.0000000

LOEWDIN ATOMIC CHARGES
----------------------
   0 C :    0.133817
   1 O :   -0.249714
   2 C :   -0.110203
   3 C :   -0.118659
   4 H :    0.066845
   5 H :    0.088534
   6 H :    0.103206
   7 H :    0.086173

  Mayer bond orders larger than 0.100000
B(  0-C ,  1-O ) :   1.8938 B(  0-C ,  2-C ) :   1.0460 B(  0-C ,  4-H ) :   0.9407
B(  2-C ,  3-C ) :   1.9196 B(  2-C ,  5-H ) :   0.9651 B(  3-C ,  6-H ) :   0.9648
B(  3-C ,  7-H ) :   0.9717

-----------------------------------------------------------------------------
         ABSORPTION SPECTRUM VIA TRANSITION ELECTRIC DIPOLE MOMENTS
-----------------------------------------------------------------------------
State   Energy    Wavelength  fosc         T2        TX        TY        TZ
        (cm-1)      (nm)                 (au**2)    (au)      (au)      (au)
-----------------------------------------------------------------------------
   1   29652.5    337.2   0.000040687   0.00045  -0.02116  -0.00196  -0.00042

Dispersion correction           -0.025504060
FINAL SINGLE POINT ENERGY      -189.321919886850

DIPOLE MOMENT
-------------
                                X             Y             Z
Electronic contribution:     -2.06025      -1.76553       0.05039
Nuclear contribution   :      2.34815       2.70173      -0.04817
                        -----------------------------------------
Total Dipole Moment    :      0.28791       0.93620       0.00222
                        -----------------------------------------
Magnitude (a.u.)       :      0.97947
Magnitude (Debye)      :      2.48962

Rotational constants in cm-1:     0.727030     0.202714     0.158607
Rotational constants in MHz : 21795.825884  6077.223559  4754.930164

                             ****ORCA TERMINATED NORMALLY****
TOTAL RUN TIME: 0 days 0 hours 0 minutes 10 seconds 359 msec
