                         Program Version 5.0.3 -  RELEASE  -
|  1> ! B3LYP cc-pVDZ
|  2> !TightSCF
|  3> %scf
|  4>  ConvForced true
|  5>  convergence tight
|  6>  MaxIter 500
|  7> end
|  8>
|  9> %tddft
| 10>  nroots 1
| 11> end
| 12>
| 13> # 	6956
| 14> * xyz 0 1
| 15> 		C   -1.178854  -0.358892  -0.044807
| 16> 		O   -2.044184  -0.681683  -0.969073
| 17> 		C    0.105069   0.354725  -0.361106
| 18> 		C    1.139313   0.037606   0.139713
| 19> 		H   -1.457509  -0.603132   0.975743
| 20> 		H    0.128914   1.295951  -0.775575
| 21> 		H    1.119035  -0.689313   0.956446
| 22> 		H    2.149433   0.639176   0.062625
| 23> *
| 24>
| 25>                          ****END OF INPUT****

CARTESIAN COORDINATES (ANGSTROEM)
---------------------------------
  C     -1.178854   -0.358892   -0.044807
  O     -2.044184   -0.681683   -0.969073
  C      0.105069    0.354725   -0.361106
  C      1.139313    0.037606    0.139713
  H     -1.457509   -0.603132    0.975743
  H      0.128914    1.295951   -0.775575
  H      1.119035   -0.689313    0.956446
  H      2.149433    0.639176    0.062625

 Total Charge           Charge          ....    0
 Multiplicity           Mult            ....    1
 Number of Electrons    NEL             ....   30
 Basis Dimension        Dim             ....   76

ORBITAL ENERGIES
----------------

  NO   OCC          E(Eh)            E(eV)
   0   2.0000     -19.145043      -520.9631
   1   2.0000     -10.288523      -279.9649
   2   2.0000     -10.199285      -277.5367
   3   2.0000     -10.189742      -277.2770
   4   2.0000      -1.000853       -27.2346
   5   2.0000      -0.837611       -22.7925
   6   2.0000      -0.645383       -17.5618
   7   2.0000      -0.575439       -15.6585
   8   2.0000      -0.500151       -13.6098
   9   2.0000      -0.468140       -12.7387
  10   2.0000      -0.426573       -11.6077
  11   2.0000      -0.375161       -10.2087
  12   2.0000      -0.353648        -9.6233
  13   2.0000      -0.310258        -8.4426
  14   2.0000      -0.257278        -7.0009
  15   0.0000      -0.064832        -1.7642
  16   0.0000       0.022364         0.6085
  17   0.0000       0.068295         1.8584
  18   0.0000       0.091698         2.4952
  19   0.0000       0.111901         3.0450

MULLIKEN ATOMIC CHARGES
-----------------------
   0 C :    0.175154
   1 O :   -0.252046
   2 C :    0.015055
   3 C :    0.021110
   4 H :    0.015131
   5 H :   -0.014826
   6 H :    0.003765
   7 H :    0.036657
Sum of atomic charges:    0.0000000

LOEWDIN ATOMIC CHARGES
----------------------
   0 C :    0.054743
   1 O :   -0.074411
   2 C :   -0.069967
   3 C :   -0.026540
   4 H :    0.006229
   5 H :    0.033594
   6 H :    0.026709
   7 H :    0.049643

  Mayer bond orders larger than 0.100000
B(  0-C ,  1-O ) :   2.1106 B(  0-C ,  2-C ) :   0.9920 B(  0-C ,  4-H ) :   0.9407
B(  2-C ,  3-C ) :   2.0402 B(  2-C ,  5-H ) :   0.9372 B(  3-C ,  6-H ) :   0.9345
B(  3-C ,  7-H ) :   0.9219

-----------------------------------------------------------------------------
         ABSORPTION SPECTRUM VIA TRANSITION ELECTRIC DIPOLE MOMENTS
-----------------------------------------------------------------------------
State   Energy    Wavelength  fosc         T2        TX        TY        TZ
        (cm-1)      (nm)                 (au**2)    (au)      (au)      (au)
-----------------------------------------------------------------------------
   1   27013.2    370.2   0.000126630   0.00154   0.03290  -0.02146   0.00066

FINAL SINGLE POINT ENERGY      -191.617353266320

DIPOLE MOMENT
-------------
                                X             Y             Z
Electronic contribution:     -2.97180      -0.81961      -1.53848
Nuclear contribution   :      3.80318       1.25524       2.30368
                        -----------------------------------------
Total Dipole Moment    :      0.83139       0.43563       0.76520
                        -----------------------------------------
Magnitude (a.u.)       :      1.21099
Magnitude (Debye)      :      3.07810

Rotational constants in cm-1:     1.396230     0.156239     0.147945
Rotational constants in MHz : 41857.919550  4683.932010  4435.275033

                             ****ORCA TERMINATED NORMALLY****
TOTAL RUN TIME: 0 days 0 hours 3 minutes 11 seconds 520 msec
