                         Program Version 5.0.3 -  RELEASE  -
|  1> ! B3LYP cc-pVDZ
|  2> !TightSCF
|  3> %scf
|  4>  ConvForced true
|  5>  convergence tight
|  6>  MaxIter 500
|  7> end
|  8>
|  9> %tddft
| 10>  nroots 1
| 11> end
| 12>
| 13> # 	1578
| 14> * xyz 0 1
| 15> 		C   -1.171286  -0.459253   0.021894
| 16> 		O   -2.297206  -0.329262   0.599327
| 17> 		C   -0.023777   0.453035   0.395202
| 18> 		C    1.172687   0.238946  -0.249050
| 19> 		H   -1.189089  -1.058815  -0.845491
| 20> 		H    0.062009   1.004233   1.095903
| 21> 		H    1.199455  -0.597535  -1.065170
| 22> 		H    2.205629   0.778161   0.018009
| 23> *
| 24>
| 25>                          ****END OF INPUT****

CARTESIAN COORDINATES (ANGSTROEM)
---------------------------------
  C     -1.171286   -0.459253    0.021894
  O     -2.297206   -0.329262    0.599327
  C     -0.023777    0.453035    0.395202
  C      1.172687    0.238946   -0.249050
  H     -1.189089   -1.058815   -0.845491
  H      0.062009    1.004233    1.095903
  H      1.199455   -0.597535   -1.065170
  H      2.205629    0.778161    0.018009

 Total Charge           Charge          ....    0
 Multiplicity           Mult            ....    1
 Number of Electrons    NEL             ....   30
 Basis Dimension        Dim             ....   76

ORBITAL ENERGIES
----------------

  NO   OCC          E(Eh)            E(eV)
   0   2.0000     -19.133717      -520.6549
   1   2.0000     -10.279249      -279.7126
   2   2.0000     -10.238293      -278.5981
   3   2.0000     -10.203339      -277.6470
   4   2.0000      -1.011375       -27.5209
   5   2.0000      -0.802160       -21.8279
   6   2.0000      -0.633508       -17.2386
   7   2.0000      -0.600821       -16.3492
   8   2.0000      -0.492946       -13.4137
   9   2.0000      -0.456402       -12.4193
  10   2.0000      -0.404180       -10.9983
  11   2.0000      -0.390187       -10.6175
  12   2.0000      -0.379415       -10.3244
  13   2.0000      -0.287310        -7.8181
  14   2.0000      -0.252194        -6.8625
  15   0.0000      -0.073272        -1.9938
  16   0.0000       0.026796         0.7292
  17   0.0000       0.053626         1.4592
  18   0.0000       0.086607         2.3567
  19   0.0000       0.114211         3.1078

MULLIKEN ATOMIC CHARGES
-----------------------
   0 C :    0.205727
   1 O :   -0.248889
   2 C :    0.117894
   3 C :   -0.071264
   4 H :   -0.006099
   5 H :   -0.110020
   6 H :    0.046597
   7 H :    0.066055
Sum of atomic charges:   -0.0000000

LOEWDIN ATOMIC CHARGES
----------------------
   0 C :    0.017940
   1 O :   -0.060386
   2 C :   -0.008653
   3 C :    0.000639
   4 H :   -0.000236
   5 H :   -0.038050
   6 H :    0.037710
   7 H :    0.051036

  Mayer bond orders larger than 0.100000
B(  0-C ,  1-O ) :   2.0755 B(  0-C ,  2-C ) :   1.0639 B(  0-C ,  4-H ) :   0.9458
B(  1-O ,  3-C ) :   0.1013 B(  2-C ,  3-C ) :   1.8857 B(  2-C ,  5-H ) :   0.9598
B(  3-C ,  6-H ) :   0.9430 B(  3-C ,  7-H ) :   0.9405

-----------------------------------------------------------------------------
         ABSORPTION SPECTRUM VIA TRANSITION ELECTRIC DIPOLE MOMENTS
-----------------------------------------------------------------------------
State   Energy    Wavelength  fosc         T2        TX        TY        TZ
        (cm-1)      (nm)                 (au**2)    (au)      (au)      (au)
-----------------------------------------------------------------------------
   1   25981.5    384.9   0.000155019   0.00196  -0.03526  -0.01642  -0.02125

FINAL SINGLE POINT ENERGY      -191.627840552508

DIPOLE MOMENT
-------------
                                X             Y             Z
Electronic contribution:     -3.25767      -0.24752       1.06054
Nuclear contribution   :      4.43675       0.27100      -1.46465
                        -----------------------------------------
Total Dipole Moment    :      1.17907       0.02348      -0.40411
                        -----------------------------------------
Magnitude (a.u.)       :      1.24662
Magnitude (Debye)      :      3.16867

Rotational constants in cm-1:     1.506236     0.150000     0.136562
Rotational constants in MHz : 45155.815001  4496.879767  4094.015839

                             ****ORCA TERMINATED NORMALLY****
TOTAL RUN TIME: 0 days 0 hours 3 minutes 14 seconds 755 msec
