                         Program Version 5.0.3 -  RELEASE  -
|  1> ! HF-3c
|  2> !TightSCF
|  3> %scf
|  4>  ConvForced true
|  5>  convergence tight
|  6>  MaxIter 500
|  7> end
|  8>
|  9> %tddft
| 10>  nroots 1
| 11> end
| 12>
| 13> # 	20167
| 14> * xyz 0 1
| 15> 		C   -0.588966  -0.427411  -0.059793
| 16> 		O   -0.571165  -1.658763   0.025876
| 17> 		C    0.609927   0.467559   0.040207
| 18> 		C    1.869462  -0.141491  -0.034979
| 19> 		H   -1.605167   0.116032   0.020619
| 20> 		H    0.386446   1.528983   0.104964
| 21> 		H    2.001627  -1.323753   0.068965
| 22> 		H    2.719717   0.480125   0.051589
| 23> *
| 24>
| 25>                          ****END OF INPUT****

CARTESIAN COORDINATES (ANGSTROEM)
---------------------------------
  C     -0.588966   -0.427411   -0.059793
  O     -0.571165   -1.658763    0.025876
  C      0.609927    0.467559    0.040207
  C      1.869462   -0.141491   -0.034979
  H     -1.605167    0.116032    0.020619
  H      0.386446    1.528983    0.104964
  H      2.001627   -1.323753    0.068965
  H      2.719717    0.480125    0.051589

 Total Charge           Charge          ....    0
 Multiplicity           Mult            ....    1
 Number of Electrons    NEL             ....   30
 Basis Dimension        Dim             ....   24

ORBITAL ENERGIES
----------------

  NO   OCC          E(Eh)            E(eV)
   0   2.0000     -20.346256      -553.6498
   1   2.0000     -11.279739      -306.9373
   2   2.0000     -11.189780      -304.4894
   3   2.0000     -11.180995      -304.2503
   4   2.0000      -1.374666       -37.4066
   5   2.0000      -1.051695       -28.6181
   6   2.0000      -0.877783       -23.8857
   7   2.0000      -0.731617       -19.9083
   8   2.0000      -0.684669       -18.6308
   9   2.0000      -0.594645       -16.1811
  10   2.0000      -0.575476       -15.6595
  11   2.0000      -0.529149       -14.3989
  12   2.0000      -0.520606       -14.1664
  13   2.0000      -0.401762       -10.9325
  14   2.0000      -0.372057       -10.1242
  15   0.0000       0.122787         3.3412
  16   0.0000       0.291391         7.9291
  17   0.0000       0.512833        13.9549
  18   0.0000       0.582077        15.8391
  19   0.0000       0.622386        16.9360

MULLIKEN ATOMIC CHARGES
-----------------------
   0 C :    0.160741
   1 O :   -0.362122
   2 C :   -0.178852
   3 C :   -0.200414
   4 H :    0.128986
   5 H :    0.142372
   6 H :    0.170873
   7 H :    0.138416
Sum of atomic charges:    0.0000000

LOEWDIN ATOMIC CHARGES
----------------------
   0 C :    0.144025
   1 O :   -0.274769
   2 C :   -0.137571
   3 C :   -0.104855
   4 H :    0.071641
   5 H :    0.091170
   6 H :    0.123909
   7 H :    0.086450

  Mayer bond orders larger than 0.100000
B(  0-C ,  1-O ) :   1.8959 B(  0-C ,  2-C ) :   1.0329 B(  0-C ,  4-H ) :   0.9245
B(  2-C ,  3-C ) :   1.9240 B(  2-C ,  5-H ) :   0.9624 B(  3-C ,  6-H ) :   0.9540
B(  3-C ,  7-H ) :   0.9683

-----------------------------------------------------------------------------
         ABSORPTION SPECTRUM VIA TRANSITION ELECTRIC DIPOLE MOMENTS
-----------------------------------------------------------------------------
State   Energy    Wavelength  fosc         T2        TX        TY        TZ
        (cm-1)      (nm)                 (au**2)    (au)      (au)      (au)
-----------------------------------------------------------------------------
   1   31018.2    322.4   0.000162734   0.00173  -0.04015  -0.00064   0.01070

Dispersion correction           -0.025136050
FINAL SINGLE POINT ENERGY      -189.332053484559

DIPOLE MOMENT
-------------
                                X             Y             Z
Electronic contribution:     -1.76012      -1.62864      -0.21792
Nuclear contribution   :      2.12862       2.53821       0.23085
                        -----------------------------------------
Total Dipole Moment    :      0.36850       0.90958       0.01293
                        -----------------------------------------
Magnitude (a.u.)       :      0.98147
Magnitude (Debye)      :      2.49470

Rotational constants in cm-1:     0.692505     0.207539     0.160006
Rotational constants in MHz : 20760.772990  6221.849372  4796.872587

                             ****ORCA TERMINATED NORMALLY****
TOTAL RUN TIME: 0 days 0 hours 0 minutes 12 seconds 467 msec
