                         Program Version 5.0.3 -  RELEASE  -
|  1> ! HF-3c
|  2> !TightSCF
|  3> %scf
|  4>  ConvForced true
|  5>  convergence tight
|  6>  MaxIter 500
|  7> end
|  8>
|  9> %tddft
| 10>  nroots 1
| 11> end
| 12>
| 13> # 	1874
| 14> * xyz 0 1
| 15> 		C   -1.216603  -0.298636   0.003351
| 16> 		O   -1.992097  -0.672298   0.856160
| 17> 		C    0.034181   0.410177   0.282514
| 18> 		C    1.223328   0.094058  -0.246636
| 19> 		H   -1.335594  -0.607011  -1.064340
| 20> 		H   -0.052854   1.082472   1.009166
| 21> 		H    1.244790  -0.611672  -0.849966
| 22> 		H    2.079963   0.633041  -0.008743
| 23> *
| 24>
| 25>                          ****END OF INPUT****

CARTESIAN COORDINATES (ANGSTROEM)
---------------------------------
  C     -1.216603   -0.298636    0.003351
  O     -1.992097   -0.672298    0.856160
  C      0.034181    0.410177    0.282514
  C      1.223328    0.094058   -0.246636
  H     -1.335594   -0.607011   -1.064340
  H     -0.052854    1.082472    1.009166
  H      1.244790   -0.611672   -0.849966
  H      2.079963    0.633041   -0.008743

 Total Charge           Charge          ....    0
 Multiplicity           Mult            ....    1
 Number of Electrons    NEL             ....   30
 Basis Dimension        Dim             ....   24

ORBITAL ENERGIES
----------------

  NO   OCC          E(Eh)            E(eV)
   0   2.0000     -20.380444      -554.5801
   1   2.0000     -11.305209      -307.6304
   2   2.0000     -11.207171      -304.9626
   3   2.0000     -11.204757      -304.8969
   4   2.0000      -1.410534       -38.3826
   5   2.0000      -1.107454       -30.1353
   6   2.0000      -0.912229       -24.8230
   7   2.0000      -0.804451       -21.8902
   8   2.0000      -0.694224       -18.8908
   9   2.0000      -0.667951       -18.1759
  10   2.0000      -0.603224       -16.4146
  11   2.0000      -0.588262       -16.0074
  12   2.0000      -0.531727       -14.4690
  13   2.0000      -0.421306       -11.4643
  14   2.0000      -0.410018       -11.1572
  15   0.0000       0.128887         3.5072
  16   0.0000       0.265980         7.2377
  17   0.0000       0.589415        16.0388
  18   0.0000       0.648983        17.6597
  19   0.0000       0.746335        20.3088

MULLIKEN ATOMIC CHARGES
-----------------------
   0 C :    0.171345
   1 O :   -0.340205
   2 C :   -0.160894
   3 C :   -0.264555
   4 H :    0.138887
   5 H :    0.155076
   6 H :    0.141452
   7 H :    0.158893
Sum of atomic charges:    0.0000000

LOEWDIN ATOMIC CHARGES
----------------------
   0 C :    0.151507
   1 O :   -0.245119
   2 C :   -0.104144
   3 C :   -0.152424
   4 H :    0.075406
   5 H :    0.092103
   6 H :    0.079967
   7 H :    0.102703

  Mayer bond orders larger than 0.100000
B(  0-C ,  1-O ) :   1.9257 B(  0-C ,  2-C ) :   1.0157 B(  0-C ,  4-H ) :   0.9205
B(  2-C ,  3-C ) :   1.9621 B(  2-C ,  5-H ) :   0.9575 B(  3-C ,  6-H ) :   0.9705
B(  3-C ,  7-H ) :   0.9635

-----------------------------------------------------------------------------
         ABSORPTION SPECTRUM VIA TRANSITION ELECTRIC DIPOLE MOMENTS
-----------------------------------------------------------------------------
State   Energy    Wavelength  fosc         T2        TX        TY        TZ
        (cm-1)      (nm)                 (au**2)    (au)      (au)      (au)
-----------------------------------------------------------------------------
   1   32810.5    304.8   0.000115313   0.00116  -0.00925   0.01306   0.03001

Dispersion correction           -0.025927604
FINAL SINGLE POINT ENERGY      -189.304267637143

DIPOLE MOMENT
-------------
                                X             Y             Z
Electronic contribution:     -3.01707      -0.66967       1.12503
Nuclear contribution   :      3.76472       0.97938      -1.73496
                        -----------------------------------------
Total Dipole Moment    :      0.74765       0.30971      -0.60994
                        -----------------------------------------
Magnitude (a.u.)       :      1.01337
Magnitude (Debye)      :      2.57579

Rotational constants in cm-1:     1.438684     0.156385     0.148807
Rotational constants in MHz : 43130.660594  4688.293348  4461.120264

                             ****ORCA TERMINATED NORMALLY****
TOTAL RUN TIME: 0 days 0 hours 0 minutes 11 seconds 335 msec
