                         Program Version 5.0.3 -  RELEASE  -
|  1> ! HF-3c
|  2> !TightSCF
|  3> %scf
|  4>  ConvForced true
|  5>  convergence tight
|  6>  MaxIter 500
|  7> end
|  8>
|  9> %tddft
| 10>  nroots 1
| 11> end
| 12>
| 13> # 	29960
| 14> * xyz 0 1
| 15> 		C   -0.593623  -0.430452  -0.063050
| 16> 		O   -0.644976  -1.651703   0.026842
| 17> 		C    0.625693   0.356187   0.040739
| 18> 		C    1.936918  -0.052921  -0.037201
| 19> 		H   -1.459088   0.184104  -0.082125
| 20> 		H    0.198624   1.325466   0.293494
| 21> 		H    2.292030  -1.086555   0.238815
| 22> 		H    2.654052   0.594726  -0.164905
| 23> *
| 24>
| 25>                          ****END OF INPUT****

CARTESIAN COORDINATES (ANGSTROEM)
---------------------------------
  C     -0.593623   -0.430452   -0.063050
  O     -0.644976   -1.651703    0.026842
  C      0.625693    0.356187    0.040739
  C      1.936918   -0.052921   -0.037201
  H     -1.459088    0.184104   -0.082125
  H      0.198624    1.325466    0.293494
  H      2.292030   -1.086555    0.238815
  H      2.654052    0.594726   -0.164905

 Total Charge           Charge          ....    0
 Multiplicity           Mult            ....    1
 Number of Electrons    NEL             ....   30
 Basis Dimension        Dim             ....   24

ORBITAL ENERGIES
----------------

  NO   OCC          E(Eh)            E(eV)
   0   2.0000     -20.363389      -554.1160
   1   2.0000     -11.289932      -307.2147
   2   2.0000     -11.198839      -304.7359
   3   2.0000     -11.188894      -304.4653
   4   2.0000      -1.389616       -37.8134
   5   2.0000      -1.071390       -29.1540
   6   2.0000      -0.926341       -25.2070
   7   2.0000      -0.760013       -20.6810
   8   2.0000      -0.687355       -18.7039
   9   2.0000      -0.628321       -17.0975
  10   2.0000      -0.603657       -16.4264
  11   2.0000      -0.552301       -15.0289
  12   2.0000      -0.519199       -14.1281
  13   2.0000      -0.419152       -11.4057
  14   2.0000      -0.370972       -10.0947
  15   0.0000       0.105862         2.8806
  16   0.0000       0.289167         7.8686
  17   0.0000       0.550015        14.9667
  18   0.0000       0.643050        17.4983
  19   0.0000       0.696472        18.9520

MULLIKEN ATOMIC CHARGES
-----------------------
   0 C :    0.145417
   1 O :   -0.339661
   2 C :   -0.161080
   3 C :   -0.227595
   4 H :    0.134761
   5 H :    0.141450
   6 H :    0.166399
   7 H :    0.140310
Sum of atomic charges:   -0.0000000

LOEWDIN ATOMIC CHARGES
----------------------
   0 C :    0.133479
   1 O :   -0.249243
   2 C :   -0.119283
   3 C :   -0.122265
   4 H :    0.068986
   5 H :    0.091146
   6 H :    0.115436
   7 H :    0.081744

  Mayer bond orders larger than 0.100000
B(  0-C ,  1-O ) :   1.8901 B(  0-C ,  2-C ) :   1.0492 B(  0-C ,  4-H ) :   0.9312
B(  2-C ,  3-C ) :   1.9277 B(  2-C ,  5-H ) :   0.9600 B(  3-C ,  6-H ) :   0.9590
B(  3-C ,  7-H ) :   0.9702

-----------------------------------------------------------------------------
         ABSORPTION SPECTRUM VIA TRANSITION ELECTRIC DIPOLE MOMENTS
-----------------------------------------------------------------------------
State   Energy    Wavelength  fosc         T2        TX        TY        TZ
        (cm-1)      (nm)                 (au**2)    (au)      (au)      (au)
-----------------------------------------------------------------------------
   1   29406.0    340.1   0.000065421   0.00073  -0.02286  -0.00961   0.01084

Dispersion correction           -0.025277819
FINAL SINGLE POINT ENERGY      -189.312445134472

DIPOLE MOMENT
-------------
                                X             Y             Z
Electronic contribution:     -1.98854      -1.82839      -0.22917
Nuclear contribution   :      2.30276       2.73991       0.26789
                        -----------------------------------------
Total Dipole Moment    :      0.31421       0.91152       0.03872
                        -----------------------------------------
Magnitude (a.u.)       :      0.96494
Magnitude (Debye)      :      2.45267

Rotational constants in cm-1:     0.794789     0.193240     0.156234
Rotational constants in MHz : 23827.189474  5793.192978  4683.784947

                             ****ORCA TERMINATED NORMALLY****
TOTAL RUN TIME: 0 days 0 hours 0 minutes 10 seconds 308 msec
