                         Program Version 5.0.3 -  RELEASE  -
|  1> ! HF-3c
|  2> !TightSCF
|  3> %scf
|  4>  ConvForced true
|  5>  convergence tight
|  6>  MaxIter 500
|  7> end
|  8>
|  9> %tddft
| 10>  nroots 1
| 11> end
| 12>
| 13> # 	393
| 14> * xyz 0 1
| 15> 		C   -1.205294  -0.387563  -0.043587
| 16> 		O   -1.946143  -0.768070   0.801672
| 17> 		C   -0.084305   0.515804   0.225950
| 18> 		C    1.146745   0.027103  -0.122247
| 19> 		H   -1.255522  -0.753351  -1.037576
| 20> 		H   -0.168314   1.454281   0.967312
| 21> 		H    1.376439  -0.894665  -0.770394
| 22> 		H    2.127502   0.710520   0.034444
| 23> *
| 24>
| 25>                          ****END OF INPUT****

CARTESIAN COORDINATES (ANGSTROEM)
---------------------------------
  C     -1.205294   -0.387563   -0.043587
  O     -1.946143   -0.768070    0.801672
  C     -0.084305    0.515804    0.225950
  C      1.146745    0.027103   -0.122247
  H     -1.255522   -0.753351   -1.037576
  H     -0.168314    1.454281    0.967312
  H      1.376439   -0.894665   -0.770394
  H      2.127502    0.710520    0.034444

 Total Charge           Charge          ....    0
 Multiplicity           Mult            ....    1
 Number of Electrons    NEL             ....   30
 Basis Dimension        Dim             ....   24

ORBITAL ENERGIES
----------------

  NO   OCC          E(Eh)            E(eV)
   0   2.0000     -20.372411      -554.3615
   1   2.0000     -11.302924      -307.5682
   2   2.0000     -11.179679      -304.2145
   3   2.0000     -11.175547      -304.1021
   4   2.0000      -1.420713       -38.6596
   5   2.0000      -1.063323       -28.9345
   6   2.0000      -0.863778       -23.5046
   7   2.0000      -0.767803       -20.8930
   8   2.0000      -0.661439       -17.9987
   9   2.0000      -0.626348       -17.0438
  10   2.0000      -0.587290       -15.9810
  11   2.0000      -0.520513       -14.1639
  12   2.0000      -0.515155       -14.0181
  13   2.0000      -0.409306       -11.1378
  14   2.0000      -0.381433       -10.3793
  15   0.0000       0.154907         4.2152
  16   0.0000       0.266120         7.2415
  17   0.0000       0.504181        13.7195
  18   0.0000       0.563446        15.3321
  19   0.0000       0.585998        15.9458

MULLIKEN ATOMIC CHARGES
-----------------------
   0 C :    0.162357
   1 O :   -0.351206
   2 C :   -0.168302
   3 C :   -0.212167
   4 H :    0.137397
   5 H :    0.161081
   6 H :    0.136125
   7 H :    0.134714
Sum of atomic charges:   -0.0000000

LOEWDIN ATOMIC CHARGES
----------------------
   0 C :    0.145245
   1 O :   -0.249473
   2 C :   -0.135528
   3 C :   -0.130942
   4 H :    0.069002
   5 H :    0.116060
   6 H :    0.091511
   7 H :    0.094125

  Mayer bond orders larger than 0.100000
B(  0-C ,  1-O ) :   1.9197 B(  0-C ,  2-C ) :   1.0115 B(  0-C ,  4-H ) :   0.9236
B(  2-C ,  3-C ) :   1.9604 B(  2-C ,  5-H ) :   0.9454 B(  3-C ,  6-H ) :   0.9637
B(  3-C ,  7-H ) :   0.9619

-----------------------------------------------------------------------------
         ABSORPTION SPECTRUM VIA TRANSITION ELECTRIC DIPOLE MOMENTS
-----------------------------------------------------------------------------
State   Energy    Wavelength  fosc         T2        TX        TY        TZ
        (cm-1)      (nm)                 (au**2)    (au)      (au)      (au)
-----------------------------------------------------------------------------
   1   35100.4    284.9   0.000103991   0.00098   0.03086  -0.00114  -0.00464

Dispersion correction           -0.025072764
FINAL SINGLE POINT ENERGY      -189.296098360251

DIPOLE MOMENT
-------------
                                X             Y             Z
Electronic contribution:     -3.11892      -0.78962       0.99467
Nuclear contribution   :      3.98948       1.13886      -1.60033
                        -----------------------------------------
Total Dipole Moment    :      0.87057       0.34925      -0.60565
                        -----------------------------------------
Magnitude (a.u.)       :      1.11655
Magnitude (Debye)      :      2.83804

Rotational constants in cm-1:     1.108921     0.165205     0.155882
Rotational constants in MHz : 33244.606697  4952.723857  4673.232561

                             ****ORCA TERMINATED NORMALLY****
TOTAL RUN TIME: 0 days 0 hours 0 minutes 13 seconds 518 msec
