                         Program Version 5.0.3 -  RELEASE  -
|  1> ! B3LYP cc-pVDZ
|  2> !TightSCF
|  3> %scf
|  4>  ConvForced true
|  5>  convergence tight
|  6>  MaxIter 500
|  7> end
|  8>
|  9> %tddft
| 10>  nroots 1
| 11> end
| 12>
| 13> # 	2004
| 14> * xyz 0 1
| 15> 		C   -1.217654  -0.347799  -0.095787
| 16> 		O   -1.303465  -1.362872  -0.510341
| 17> 		C    0.042162   0.499388  -0.204365
| 18> 		C    1.240223  -0.006749   0.116009
| 19> 		H   -2.034524   0.218847   0.678515
| 20> 		H   -0.108626   1.501607  -0.421134
| 21> 		H    1.188297  -1.176830   0.230114
| 22> 		H    2.149010   0.662038   0.203159
| 23> *
| 24>
| 25>                          ****END OF INPUT****

CARTESIAN COORDINATES (ANGSTROEM)
---------------------------------
  C     -1.217654   -0.347799   -0.095787
  O     -1.303465   -1.362872   -0.510341
  C      0.042162    0.499388   -0.204365
  C      1.240223   -0.006749    0.116009
  H     -2.034524    0.218847    0.678515
  H     -0.108626    1.501607   -0.421134
  H      1.188297   -1.176830    0.230114
  H      2.149010    0.662038    0.203159

 Total Charge           Charge          ....    0
 Multiplicity           Mult            ....    1
 Number of Electrons    NEL             ....   30
 Basis Dimension        Dim             ....   76

ORBITAL ENERGIES
----------------

  NO   OCC          E(Eh)            E(eV)
   0   2.0000     -19.153361      -521.1894
   1   2.0000     -10.284202      -279.8474
   2   2.0000     -10.215095      -277.9669
   3   2.0000     -10.194567      -277.4083
   4   2.0000      -1.125174       -30.6175
   5   2.0000      -0.787334       -21.4244
   6   2.0000      -0.632798       -17.2193
   7   2.0000      -0.532619       -14.4933
   8   2.0000      -0.509655       -13.8684
   9   2.0000      -0.467084       -12.7100
  10   2.0000      -0.448970       -12.2171
  11   2.0000      -0.421029       -11.4568
  12   2.0000      -0.382665       -10.4129
  13   2.0000      -0.284134        -7.7317
  14   2.0000      -0.254066        -6.9135
  15   0.0000      -0.033953        -0.9239
  16   0.0000       0.028105         0.7648
  17   0.0000       0.072282         1.9669
  18   0.0000       0.077755         2.1158
  19   0.0000       0.108759         2.9595

MULLIKEN ATOMIC CHARGES
-----------------------
   0 C :    0.104151
   1 O :   -0.069112
   2 C :   -0.057365
   3 C :   -0.005520
   4 H :   -0.039494
   5 H :   -0.026480
   6 H :    0.046832
   7 H :    0.046987
Sum of atomic charges:    0.0000000

LOEWDIN ATOMIC CHARGES
----------------------
   0 C :   -0.102171
   1 O :    0.123582
   2 C :   -0.067693
   3 C :   -0.030318
   4 H :   -0.021521
   5 H :    0.008687
   6 H :    0.047804
   7 H :    0.041631

  Mayer bond orders larger than 0.100000
B(  0-C ,  1-O ) :   2.3428 B(  0-C ,  2-C ) :   0.9694 B(  0-C ,  4-H ) :   0.8500
B(  2-C ,  3-C ) :   2.0064 B(  2-C ,  5-H ) :   0.9458 B(  3-C ,  6-H ) :   0.9251
B(  3-C ,  7-H ) :   0.9414

-----------------------------------------------------------------------------
         ABSORPTION SPECTRUM VIA TRANSITION ELECTRIC DIPOLE MOMENTS
-----------------------------------------------------------------------------
State   Energy    Wavelength  fosc         T2        TX        TY        TZ
        (cm-1)      (nm)                 (au**2)    (au)      (au)      (au)
-----------------------------------------------------------------------------
   1   35972.0    278.0   0.000348511   0.00319  -0.05176  -0.01045  -0.02003

FINAL SINGLE POINT ENERGY      -191.599246779944

DIPOLE MOMENT
-------------
                                X             Y             Z
Electronic contribution:     -2.04206      -1.77027      -1.11100
Nuclear contribution   :      2.36931       2.37766       1.29094
                        -----------------------------------------
Total Dipole Moment    :      0.32725       0.60739       0.17993
                        -----------------------------------------
Magnitude (a.u.)       :      0.71302
Magnitude (Debye)      :      1.81234

Rotational constants in cm-1:     0.845785     0.196725     0.166646
Rotational constants in MHz : 25356.001509  5897.675204  4995.911244

                             ****ORCA TERMINATED NORMALLY****
TOTAL RUN TIME: 0 days 0 hours 3 minutes 15 seconds 701 msec
