                         Program Version 5.0.3 -  RELEASE  -
|  1> ! B3LYP cc-pVDZ
|  2> !TightSCF
|  3> %scf
|  4>  ConvForced true
|  5>  convergence tight
|  6>  MaxIter 500
|  7> end
|  8>
|  9> %tddft
| 10>  nroots 1
| 11> end
| 12>
| 13> # 	25415
| 14> * xyz 0 1
| 15> 		C   -0.602683  -0.412097   0.050774
| 16> 		O   -0.548683  -1.648044  -0.039259
| 17> 		C    0.610363   0.419381  -0.059694
| 18> 		C    1.833550  -0.155193   0.063085
| 19> 		H   -1.628419   0.092438   0.289633
| 20> 		H    0.804769   1.711561  -0.185963
| 21> 		H    1.942435  -1.139611   0.029439
| 22> 		H    2.665280   0.513042  -0.178497
| 23> *
| 24>
| 25>                          ****END OF INPUT****

CARTESIAN COORDINATES (ANGSTROEM)
---------------------------------
  C     -0.602683   -0.412097    0.050774
  O     -0.548683   -1.648044   -0.039259
  C      0.610363    0.419381   -0.059694
  C      1.833550   -0.155193    0.063085
  H     -1.628419    0.092438    0.289633
  H      0.804769    1.711561   -0.185963
  H      1.942435   -1.139611    0.029439
  H      2.665280    0.513042   -0.178497

 Total Charge           Charge          ....    0
 Multiplicity           Mult            ....    1
 Number of Electrons    NEL             ....   30
 Basis Dimension        Dim             ....   76

ORBITAL ENERGIES
----------------

  NO   OCC          E(Eh)            E(eV)
   0   2.0000     -19.144409      -520.9459
   1   2.0000     -10.289489      -279.9912
   2   2.0000     -10.226345      -278.2730
   3   2.0000     -10.205219      -277.6981
   4   2.0000      -1.036437       -28.2029
   5   2.0000      -0.793087       -21.5810
   6   2.0000      -0.656543       -17.8654
   7   2.0000      -0.537881       -14.6365
   8   2.0000      -0.507242       -13.8028
   9   2.0000      -0.442601       -12.0438
  10   2.0000      -0.418044       -11.3756
  11   2.0000      -0.391598       -10.6559
  12   2.0000      -0.366294        -9.9674
  13   2.0000      -0.286520        -7.7966
  14   2.0000      -0.262379        -7.1397
  15   0.0000      -0.078264        -2.1297
  16   0.0000       0.029391         0.7998
  17   0.0000       0.049602         1.3498
  18   0.0000       0.088886         2.4187
  19   0.0000       0.110837         3.0160

MULLIKEN ATOMIC CHARGES
-----------------------
   0 C :    0.188780
   1 O :   -0.209927
   2 C :   -0.185455
   3 C :    0.132932
   4 H :    0.007340
   5 H :    0.037444
   6 H :   -0.002368
   7 H :    0.031253
Sum of atomic charges:   -0.0000000

LOEWDIN ATOMIC CHARGES
----------------------
   0 C :   -0.021788
   1 O :   -0.028583
   2 C :   -0.091069
   3 C :    0.040655
   4 H :    0.007606
   5 H :    0.059571
   6 H :   -0.002829
   7 H :    0.036436

  Mayer bond orders larger than 0.100000
B(  0-C ,  1-O ) :   2.1387 B(  0-C ,  2-C ) :   1.0157 B(  0-C ,  4-H ) :   0.9199
B(  2-C ,  3-C ) :   1.9533 B(  2-C ,  5-H ) :   0.9246 B(  3-C ,  6-H ) :   0.9489
B(  3-C ,  7-H ) :   0.9449

-----------------------------------------------------------------------------
         ABSORPTION SPECTRUM VIA TRANSITION ELECTRIC DIPOLE MOMENTS
-----------------------------------------------------------------------------
State   Energy    Wavelength  fosc         T2        TX        TY        TZ
        (cm-1)      (nm)                 (au**2)    (au)      (au)      (au)
-----------------------------------------------------------------------------
   1   27347.6    365.7   0.000122073   0.00147  -0.01243  -0.01375  -0.03355

FINAL SINGLE POINT ENERGY      -191.642003237759

DIPOLE MOMENT
-------------
                                X             Y             Z
Electronic contribution:     -2.00621      -2.03102       0.05173
Nuclear contribution   :      2.38946       2.89175      -0.04160
                        -----------------------------------------
Total Dipole Moment    :      0.38325       0.86073       0.01013
                        -----------------------------------------
Magnitude (a.u.)       :      0.94225
Magnitude (Debye)      :      2.39502

Rotational constants in cm-1:     0.724839     0.211020     0.164390
Rotational constants in MHz : 21730.141360  6326.208567  4928.277008

                             ****ORCA TERMINATED NORMALLY****
TOTAL RUN TIME: 0 days 0 hours 3 minutes 20 seconds 775 msec
