                         Program Version 5.0.3 -  RELEASE  -
|  1> ! HF-3c
|  2> !TightSCF
|  3> %scf
|  4>  ConvForced true
|  5>  convergence tight
|  6>  MaxIter 500
|  7> end
|  8>
|  9> %tddft
| 10>  nroots 1
| 11> end
| 12>
| 13> # 	10467
| 14> * xyz 0 1
| 15> 		C   -1.175404  -0.301198  -0.042449
| 16> 		O   -1.561211  -1.176785  -0.762714
| 17> 		C    0.053690   0.477611  -0.226167
| 18> 		C    1.239367   0.059821   0.150069
| 19> 		H   -1.726147  -0.182526   0.928151
| 20> 		H   -0.099377   1.409969  -0.610492
| 21> 		H    1.223960  -0.864193   0.536155
| 22> 		H    2.084550   0.558129   0.048156
| 23> *
| 24>
| 25>                          ****END OF INPUT****

CARTESIAN COORDINATES (ANGSTROEM)
---------------------------------
  C     -1.175404   -0.301198   -0.042449
  O     -1.561211   -1.176785   -0.762714
  C      0.053690    0.477611   -0.226167
  C      1.239367    0.059821    0.150069
  H     -1.726147   -0.182526    0.928151
  H     -0.099377    1.409969   -0.610492
  H      1.223960   -0.864193    0.536155
  H      2.084550    0.558129    0.048156

 Total Charge           Charge          ....    0
 Multiplicity           Mult            ....    1
 Number of Electrons    NEL             ....   30
 Basis Dimension        Dim             ....   24

ORBITAL ENERGIES
----------------

  NO   OCC          E(Eh)            E(eV)
   0   2.0000     -20.384523      -554.6911
   1   2.0000     -11.307520      -307.6933
   2   2.0000     -11.207572      -304.9735
   3   2.0000     -11.196525      -304.6729
   4   2.0000      -1.421913       -38.6922
   5   2.0000      -1.108956       -30.1762
   6   2.0000      -0.909381       -24.7455
   7   2.0000      -0.782613       -21.2960
   8   2.0000      -0.715817       -19.4784
   9   2.0000      -0.665393       -18.1063
  10   2.0000      -0.619190       -16.8490
  11   2.0000      -0.577781       -15.7222
  12   2.0000      -0.514517       -14.0007
  13   2.0000      -0.427425       -11.6308
  14   2.0000      -0.414832       -11.2882
  15   0.0000       0.188207         5.1214
  16   0.0000       0.204566         5.5665
  17   0.0000       0.574280        15.6270
  18   0.0000       0.691615        18.8198
  19   0.0000       0.746408        20.3108

MULLIKEN ATOMIC CHARGES
-----------------------
   0 C :    0.172413
   1 O :   -0.338579
   2 C :   -0.158876
   3 C :   -0.269164
   4 H :    0.141958
   5 H :    0.152440
   6 H :    0.147963
   7 H :    0.151845
Sum of atomic charges:   -0.0000000

LOEWDIN ATOMIC CHARGES
----------------------
   0 C :    0.149055
   1 O :   -0.239366
   2 C :   -0.103778
   3 C :   -0.161374
   4 H :    0.078511
   5 H :    0.093451
   6 H :    0.090993
   7 H :    0.092507

  Mayer bond orders larger than 0.100000
B(  0-C ,  1-O ) :   1.9503 B(  0-C ,  2-C ) :   0.9923 B(  0-C ,  4-H ) :   0.9156
B(  2-C ,  3-C ) :   1.9938 B(  2-C ,  5-H ) :   0.9517 B(  3-C ,  6-H ) :   0.9654
B(  3-C ,  7-H ) :   0.9652

-----------------------------------------------------------------------------
         ABSORPTION SPECTRUM VIA TRANSITION ELECTRIC DIPOLE MOMENTS
-----------------------------------------------------------------------------
State   Energy    Wavelength  fosc         T2        TX        TY        TZ
        (cm-1)      (nm)                 (au**2)    (au)      (au)      (au)
-----------------------------------------------------------------------------
   1   34918.3    286.4   0.000054358   0.00051  -0.00813  -0.00505   0.02051

Dispersion correction           -0.025890041
FINAL SINGLE POINT ENERGY      -189.303831009684

DIPOLE MOMENT
-------------
                                X             Y             Z
Electronic contribution:     -2.48768      -1.20483      -1.11583
Nuclear contribution   :      2.85130       1.85913       1.68953
                        -----------------------------------------
Total Dipole Moment    :      0.36362       0.65430       0.57370
                        -----------------------------------------
Magnitude (a.u.)       :      0.94311
Magnitude (Debye)      :      2.39720

Rotational constants in cm-1:     1.024139     0.174487     0.163020
Rotational constants in MHz : 30702.913940  5230.976899  4887.216907

                             ****ORCA TERMINATED NORMALLY****
TOTAL RUN TIME: 0 days 0 hours 0 minutes 12 seconds 341 msec
