                         Program Version 5.0.3 -  RELEASE  -
|  1> ! HF-3c
|  2> !TightSCF
|  3> %scf
|  4>  ConvForced true
|  5>  convergence tight
|  6>  MaxIter 500
|  7> end
|  8>
|  9> %tddft
| 10>  nroots 1
| 11> end
| 12>
| 13> # 	7644
| 14> * xyz 0 1
| 15> 		C   -1.223890  -0.357291   0.038134
| 16> 		O   -1.412425  -1.438424  -0.475946
| 17> 		C   -0.013629   0.415132  -0.186297
| 18> 		C    1.299346   0.025373   0.091342
| 19> 		H   -2.051829   0.123533   0.827484
| 20> 		H   -0.293941   1.476146  -0.679609
| 21> 		H    1.523545  -0.860858   0.475108
| 22> 		H    2.177851   0.623353  -0.141689
| 23> *
| 24>
| 25>                          ****END OF INPUT****

CARTESIAN COORDINATES (ANGSTROEM)
---------------------------------
  C     -1.223890   -0.357291    0.038134
  O     -1.412425   -1.438424   -0.475946
  C     -0.013629    0.415132   -0.186297
  C      1.299346    0.025373    0.091342
  H     -2.051829    0.123533    0.827484
  H     -0.293941    1.476146   -0.679609
  H      1.523545   -0.860858    0.475108
  H      2.177851    0.623353   -0.141689

 Total Charge           Charge          ....    0
 Multiplicity           Mult            ....    1
 Number of Electrons    NEL             ....   30
 Basis Dimension        Dim             ....   24

ORBITAL ENERGIES
----------------

  NO   OCC          E(Eh)            E(eV)
   0   2.0000     -20.367900      -554.2387
   1   2.0000     -11.296613      -307.3965
   2   2.0000     -11.192826      -304.5723
   3   2.0000     -11.183007      -304.3051
   4   2.0000      -1.401407       -38.1342
   5   2.0000      -1.055917       -28.7330
   6   2.0000      -0.895378       -24.3645
   7   2.0000      -0.735347       -20.0098
   8   2.0000      -0.672463       -18.2986
   9   2.0000      -0.619520       -16.8580
  10   2.0000      -0.606763       -16.5109
  11   2.0000      -0.548527       -14.9262
  12   2.0000      -0.492918       -13.4130
  13   2.0000      -0.404617       -11.0102
  14   2.0000      -0.380829       -10.3629
  15   0.0000       0.151773         4.1300
  16   0.0000       0.237601         6.4655
  17   0.0000       0.498734        13.5712
  18   0.0000       0.536500        14.5989
  19   0.0000       0.640780        17.4365

MULLIKEN ATOMIC CHARGES
-----------------------
   0 C :    0.169800
   1 O :   -0.348386
   2 C :   -0.139644
   3 C :   -0.250792
   4 H :    0.136656
   5 H :    0.147066
   6 H :    0.140259
   7 H :    0.145041
Sum of atomic charges:   -0.0000000

LOEWDIN ATOMIC CHARGES
----------------------
   0 C :    0.141858
   1 O :   -0.253617
   2 C :   -0.103691
   3 C :   -0.152185
   4 H :    0.084469
   5 H :    0.104859
   6 H :    0.082958
   7 H :    0.095349

  Mayer bond orders larger than 0.100000
B(  0-C ,  1-O ) :   1.9271 B(  0-C ,  2-C ) :   1.0227 B(  0-C ,  4-H ) :   0.9010
B(  2-C ,  3-C ) :   1.9670 B(  2-C ,  5-H ) :   0.9448 B(  3-C ,  6-H ) :   0.9695
B(  3-C ,  7-H ) :   0.9663

-----------------------------------------------------------------------------
         ABSORPTION SPECTRUM VIA TRANSITION ELECTRIC DIPOLE MOMENTS
-----------------------------------------------------------------------------
State   Energy    Wavelength  fosc         T2        TX        TY        TZ
        (cm-1)      (nm)                 (au**2)    (au)      (au)      (au)
-----------------------------------------------------------------------------
   1   33773.3    296.1   0.000016315   0.00016  -0.00130  -0.01250   0.00105

Dispersion correction           -0.024509659
FINAL SINGLE POINT ENERGY      -189.295345401175

DIPOLE MOMENT
-------------
                                X             Y             Z
Electronic contribution:     -2.35739      -1.69482      -0.59054
Nuclear contribution   :      2.62774       2.64375       0.96946
                        -----------------------------------------
Total Dipole Moment    :      0.27035       0.94892       0.37893
                        -----------------------------------------
Magnitude (a.u.)       :      1.05694
Magnitude (Debye)      :      2.68654

Rotational constants in cm-1:     0.830041     0.179176     0.156393
Rotational constants in MHz : 24884.000358  5371.565640  4688.546242

                             ****ORCA TERMINATED NORMALLY****
TOTAL RUN TIME: 0 days 0 hours 0 minutes 10 seconds 397 msec
