                         Program Version 5.0.3 -  RELEASE  -
|  1> ! HF-3c
|  2> !TightSCF
|  3> %scf
|  4>  ConvForced true
|  5>  convergence tight
|  6>  MaxIter 500
|  7> end
|  8>
|  9> %tddft
| 10>  nroots 1
| 11> end
| 12>
| 13> # 	11630
| 14> * xyz 0 1
| 15> 		C   -1.174006  -0.398217  -0.038472
| 16> 		O   -1.894887  -0.901032   0.716510
| 17> 		C   -0.009570   0.457666   0.278053
| 18> 		C    1.228002   0.024097  -0.074851
| 19> 		H   -1.394745  -0.525197  -1.024793
| 20> 		H   -0.183912   1.423785   0.868445
| 21> 		H    1.362702  -0.884847  -0.773809
| 22> 		H    2.086955   0.826502   0.089614
| 23> *
| 24>
| 25>                          ****END OF INPUT****

CARTESIAN COORDINATES (ANGSTROEM)
---------------------------------
  C     -1.174006   -0.398217   -0.038472
  O     -1.894887   -0.901032    0.716510
  C     -0.009570    0.457666    0.278053
  C      1.228002    0.024097   -0.074851
  H     -1.394745   -0.525197   -1.024793
  H     -0.183912    1.423785    0.868445
  H      1.362702   -0.884847   -0.773809
  H      2.086955    0.826502    0.089614

 Total Charge           Charge          ....    0
 Multiplicity           Mult            ....    1
 Number of Electrons    NEL             ....   30
 Basis Dimension        Dim             ....   24

ORBITAL ENERGIES
----------------

  NO   OCC          E(Eh)            E(eV)
   0   2.0000     -20.387372      -554.7686
   1   2.0000     -11.310855      -307.7840
   2   2.0000     -11.180505      -304.2370
   3   2.0000     -11.175455      -304.0996
   4   2.0000      -1.447368       -39.3849
   5   2.0000      -1.066396       -29.0181
   6   2.0000      -0.872895       -23.7527
   7   2.0000      -0.777534       -21.1578
   8   2.0000      -0.677873       -18.4459
   9   2.0000      -0.633450       -17.2370
  10   2.0000      -0.598118       -16.2756
  11   2.0000      -0.537657       -14.6304
  12   2.0000      -0.522252       -14.2112
  13   2.0000      -0.410382       -11.1671
  14   2.0000      -0.390092       -10.6149
  15   0.0000       0.170880         4.6499
  16   0.0000       0.250703         6.8220
  17   0.0000       0.546603        14.8738
  18   0.0000       0.553045        15.0491
  19   0.0000       0.600308        16.3352

MULLIKEN ATOMIC CHARGES
-----------------------
   0 C :    0.161676
   1 O :   -0.347302
   2 C :   -0.166250
   3 C :   -0.222089
   4 H :    0.135315
   5 H :    0.153863
   6 H :    0.141910
   7 H :    0.142877
Sum of atomic charges:    0.0000000

LOEWDIN ATOMIC CHARGES
----------------------
   0 C :    0.140265
   1 O :   -0.234826
   2 C :   -0.129458
   3 C :   -0.142558
   4 H :    0.062378
   5 H :    0.105740
   6 H :    0.097660
   7 H :    0.100800

  Mayer bond orders larger than 0.100000
B(  0-C ,  1-O ) :   1.9376 B(  0-C ,  2-C ) :   0.9889 B(  0-C ,  4-H ) :   0.9256
B(  2-C ,  3-C ) :   1.9836 B(  2-C ,  5-H ) :   0.9490 B(  3-C ,  6-H ) :   0.9617
B(  3-C ,  7-H ) :   0.9595

-----------------------------------------------------------------------------
         ABSORPTION SPECTRUM VIA TRANSITION ELECTRIC DIPOLE MOMENTS
-----------------------------------------------------------------------------
State   Energy    Wavelength  fosc         T2        TX        TY        TZ
        (cm-1)      (nm)                 (au**2)    (au)      (au)      (au)
-----------------------------------------------------------------------------
   1   36320.7    275.3   0.000021192   0.00019  -0.01172  -0.00418  -0.00611

Dispersion correction           -0.025141050
FINAL SINGLE POINT ENERGY      -189.288603117139

DIPOLE MOMENT
-------------
                                X             Y             Z
Electronic contribution:     -2.85092      -1.12760       1.04149
Nuclear contribution   :      3.60196       1.61935      -1.62435
                        -----------------------------------------
Total Dipole Moment    :      0.75104       0.49175      -0.58286
                        -----------------------------------------
Magnitude (a.u.)       :      1.07033
Magnitude (Debye)      :      2.72055

Rotational constants in cm-1:     1.167827     0.162031     0.154712
Rotational constants in MHz : 35010.568172  4857.577399  4638.145606

                             ****ORCA TERMINATED NORMALLY****
TOTAL RUN TIME: 0 days 0 hours 0 minutes 16 seconds 2 msec
