                         Program Version 5.0.3 -  RELEASE  -
|  1> ! HF-3c
|  2> !TightSCF
|  3> %scf
|  4>  ConvForced true
|  5>  convergence tight
|  6>  MaxIter 500
|  7> end
|  8>
|  9> %tddft
| 10>  nroots 1
| 11> end
| 12>
| 13> # 	11775
| 14> * xyz 0 1
| 15> 		C   -1.180152  -0.323824   0.016239
| 16> 		O   -2.017668  -0.704390   0.804212
| 17> 		C   -0.008298   0.384077   0.375326
| 18> 		C    1.233902   0.028603  -0.122145
| 19> 		H   -1.356149  -0.660861  -1.049192
| 20> 		H   -0.071430   1.365899   1.116437
| 21> 		H    1.086782  -0.910365  -1.058371
| 22> 		H    2.273224   0.791171  -0.059119
| 23> *
| 24>
| 25>                          ****END OF INPUT****

CARTESIAN COORDINATES (ANGSTROEM)
---------------------------------
  C     -1.180152   -0.323824    0.016239
  O     -2.017668   -0.704390    0.804212
  C     -0.008298    0.384077    0.375326
  C      1.233902    0.028603   -0.122145
  H     -1.356149   -0.660861   -1.049192
  H     -0.071430    1.365899    1.116437
  H      1.086782   -0.910365   -1.058371
  H      2.273224    0.791171   -0.059119

 Total Charge           Charge          ....    0
 Multiplicity           Mult            ....    1
 Number of Electrons    NEL             ....   30
 Basis Dimension        Dim             ....   24

ORBITAL ENERGIES
----------------

  NO   OCC          E(Eh)            E(eV)
   0   2.0000     -20.354821      -553.8828
   1   2.0000     -11.289472      -307.2021
   2   2.0000     -11.173312      -304.0413
   3   2.0000     -11.171407      -303.9894
   4   2.0000      -1.395941       -37.9855
   5   2.0000      -1.052993       -28.6534
   6   2.0000      -0.847115       -23.0512
   7   2.0000      -0.740606       -20.1529
   8   2.0000      -0.629576       -17.1316
   9   2.0000      -0.611653       -16.6439
  10   2.0000      -0.565527       -15.3888
  11   2.0000      -0.506014       -13.7693
  12   2.0000      -0.467822       -12.7301
  13   2.0000      -0.405427       -11.0322
  14   2.0000      -0.368189       -10.0189
  15   0.0000       0.140205         3.8152
  16   0.0000       0.275853         7.5063
  17   0.0000       0.414116        11.2687
  18   0.0000       0.466580        12.6963
  19   0.0000       0.549643        14.9565

MULLIKEN ATOMIC CHARGES
-----------------------
   0 C :    0.146884
   1 O :   -0.348612
   2 C :   -0.183928
   3 C :   -0.181462
   4 H :    0.133758
   5 H :    0.151156
   6 H :    0.130001
   7 H :    0.152202
Sum of atomic charges:    0.0000000

LOEWDIN ATOMIC CHARGES
----------------------
   0 C :    0.132236
   1 O :   -0.256036
   2 C :   -0.154227
   3 C :   -0.121271
   4 H :    0.073126
   5 H :    0.109968
   6 H :    0.099544
   7 H :    0.116660

  Mayer bond orders larger than 0.100000
B(  0-C ,  1-O ) :   1.8971 B(  0-C ,  2-C ) :   1.0480 B(  0-C ,  4-H ) :   0.9204
B(  2-C ,  3-C ) :   1.9376 B(  2-C ,  5-H ) :   0.9414 B(  3-C ,  6-H ) :   0.9502
B(  3-C ,  7-H ) :   0.9495

-----------------------------------------------------------------------------
         ABSORPTION SPECTRUM VIA TRANSITION ELECTRIC DIPOLE MOMENTS
-----------------------------------------------------------------------------
State   Energy    Wavelength  fosc         T2        TX        TY        TZ
        (cm-1)      (nm)                 (au**2)    (au)      (au)      (au)
-----------------------------------------------------------------------------
   1   32222.5    310.3   0.000047056   0.00048  -0.01411   0.01380   0.00955

Dispersion correction           -0.025010666
FINAL SINGLE POINT ENERGY      -189.245864138750

DIPOLE MOMENT
-------------
                                X             Y             Z
Electronic contribution:     -2.79243      -0.76801       1.28607
Nuclear contribution   :      3.78479       1.18512      -1.98437
                        -----------------------------------------
Total Dipole Moment    :      0.99236       0.41711      -0.69830
                        -----------------------------------------
Magnitude (a.u.)       :      1.28312
Magnitude (Debye)      :      3.26142

Rotational constants in cm-1:     1.224309     0.157891     0.147578
Rotational constants in MHz : 36703.855287  4733.467347  4424.263907

                             ****ORCA TERMINATED NORMALLY****
TOTAL RUN TIME: 0 days 0 hours 0 minutes 12 seconds 11 msec
