                         Program Version 5.0.3 -  RELEASE  -
|  1> ! HF-3c
|  2> !TightSCF
|  3> %scf
|  4>  ConvForced true
|  5>  convergence tight
|  6>  MaxIter 500
|  7> end
|  8>
|  9> %tddft
| 10>  nroots 1
| 11> end
| 12>
| 13> # 	10347
| 14> * xyz 0 1
| 15> 		C   -1.228636  -0.309189  -0.016215
| 16> 		O   -1.616103  -1.119392   0.867752
| 17> 		C    0.053469   0.479356   0.144352
| 18> 		C    1.200568   0.018716  -0.172361
| 19> 		H   -1.792184  -0.302980  -0.919011
| 20> 		H   -0.005116   1.528803   0.746565
| 21> 		H    1.307889  -0.788971  -0.565490
| 22> 		H    2.061583   0.552569  -0.091654
| 23> *
| 24>
| 25>                          ****END OF INPUT****

CARTESIAN COORDINATES (ANGSTROEM)
---------------------------------
  C     -1.228636   -0.309189   -0.016215
  O     -1.616103   -1.119392    0.867752
  C      0.053469    0.479356    0.144352
  C      1.200568    0.018716   -0.172361
  H     -1.792184   -0.302980   -0.919011
  H     -0.005116    1.528803    0.746565
  H      1.307889   -0.788971   -0.565490
  H      2.061583    0.552569   -0.091654

 Total Charge           Charge          ....    0
 Multiplicity           Mult            ....    1
 Number of Electrons    NEL             ....   30
 Basis Dimension        Dim             ....   24

ORBITAL ENERGIES
----------------

  NO   OCC          E(Eh)            E(eV)
   0   2.0000     -20.369595      -554.2849
   1   2.0000     -11.295359      -307.3623
   2   2.0000     -11.212029      -305.0948
   3   2.0000     -11.192833      -304.5725
   4   2.0000      -1.377331       -37.4791
   5   2.0000      -1.107787       -30.1444
   6   2.0000      -0.902015       -24.5451
   7   2.0000      -0.788098       -21.4452
   8   2.0000      -0.702236       -19.1088
   9   2.0000      -0.652897       -17.7662
  10   2.0000      -0.602689       -16.4000
  11   2.0000      -0.552496       -15.0342
  12   2.0000      -0.483251       -13.1499
  13   2.0000      -0.433145       -11.7865
  14   2.0000      -0.420620       -11.4456
  15   0.0000       0.167715         4.5638
  16   0.0000       0.218311         5.9405
  17   0.0000       0.525649        14.3036
  18   0.0000       0.551918        15.0184
  19   0.0000       0.749744        20.4016

MULLIKEN ATOMIC CHARGES
-----------------------
   0 C :    0.144342
   1 O :   -0.324987
   2 C :   -0.119613
   3 C :   -0.308769
   4 H :    0.150709
   5 H :    0.162663
   6 H :    0.142091
   7 H :    0.153563
Sum of atomic charges:   -0.0000000

LOEWDIN ATOMIC CHARGES
----------------------
   0 C :    0.141506
   1 O :   -0.244234
   2 C :   -0.076049
   3 C :   -0.197912
   4 H :    0.083522
   5 H :    0.117181
   6 H :    0.078923
   7 H :    0.097063

  Mayer bond orders larger than 0.100000
B(  0-C ,  1-O ) :   1.9455 B(  0-C ,  2-C ) :   0.9885 B(  0-C ,  4-H ) :   0.9320
B(  2-C ,  3-C ) :   2.0073 B(  2-C ,  5-H ) :   0.9382 B(  3-C ,  6-H ) :   0.9656
B(  3-C ,  7-H ) :   0.9588

-----------------------------------------------------------------------------
         ABSORPTION SPECTRUM VIA TRANSITION ELECTRIC DIPOLE MOMENTS
-----------------------------------------------------------------------------
State   Energy    Wavelength  fosc         T2        TX        TY        TZ
        (cm-1)      (nm)                 (au**2)    (au)      (au)      (au)
-----------------------------------------------------------------------------
   1   31069.5    321.9   0.000011470   0.00012  -0.00021  -0.01063   0.00293

Dispersion correction           -0.025228834
FINAL SINGLE POINT ENERGY      -189.285893869575

DIPOLE MOMENT
-------------
                                X             Y             Z
Electronic contribution:     -2.73608      -1.17228       1.03330
Nuclear contribution   :      3.06160       1.89571      -1.60653
                        -----------------------------------------
Total Dipole Moment    :      0.32552       0.72343      -0.57323
                        -----------------------------------------
Magnitude (a.u.)       :      0.97872
Magnitude (Debye)      :      2.48772

Rotational constants in cm-1:     0.967155     0.168644     0.159953
Rotational constants in MHz : 28994.578284  5055.808039  4795.261747

                             ****ORCA TERMINATED NORMALLY****
TOTAL RUN TIME: 0 days 0 hours 0 minutes 10 seconds 975 msec
