                         Program Version 5.0.3 -  RELEASE  -
|  1> ! HF-3c
|  2> !TightSCF
|  3> %scf
|  4>  ConvForced true
|  5>  convergence tight
|  6>  MaxIter 500
|  7> end
|  8>
|  9> %tddft
| 10>  nroots 1
| 11> end
| 12>
| 13> # 	515
| 14> * xyz 0 1
| 15> 		C   -1.170211  -0.248636   0.067597
| 16> 		O   -2.055098  -0.398876   0.904369
| 17> 		C    0.044630   0.443473   0.367867
| 18> 		C    1.218695   0.051359  -0.162789
| 19> 		H   -1.333414  -0.804730  -1.029166
| 20> 		H    0.017510   1.066092   1.088061
| 21> 		H    1.190545  -0.706355  -1.032439
| 22> 		H    2.113477   0.621506  -0.164292
| 23> *
| 24>
| 25>                          ****END OF INPUT****

CARTESIAN COORDINATES (ANGSTROEM)
---------------------------------
  C     -1.170211   -0.248636    0.067597
  O     -2.055098   -0.398876    0.904369
  C      0.044630    0.443473    0.367867
  C      1.218695    0.051359   -0.162789
  H     -1.333414   -0.804730   -1.029166
  H      0.017510    1.066092    1.088061
  H      1.190545   -0.706355   -1.032439
  H      2.113477    0.621506   -0.164292

 Total Charge           Charge          ....    0
 Multiplicity           Mult            ....    1
 Number of Electrons    NEL             ....   30
 Basis Dimension        Dim             ....   24

ORBITAL ENERGIES
----------------

  NO   OCC          E(Eh)            E(eV)
   0   2.0000     -20.355032      -553.8886
   1   2.0000     -11.289820      -307.2116
   2   2.0000     -11.202702      -304.8410
   3   2.0000     -11.200368      -304.7775
   4   2.0000      -1.387897       -37.7666
   5   2.0000      -1.097005       -29.8510
   6   2.0000      -0.884625       -24.0719
   7   2.0000      -0.782513       -21.2933
   8   2.0000      -0.661884       -18.0108
   9   2.0000      -0.658524       -17.9193
  10   2.0000      -0.577443       -15.7130
  11   2.0000      -0.546912       -14.8822
  12   2.0000      -0.523970       -14.2580
  13   2.0000      -0.408332       -11.1113
  14   2.0000      -0.394644       -10.7388
  15   0.0000       0.121509         3.3064
  16   0.0000       0.287917         7.8346
  17   0.0000       0.500734        13.6257
  18   0.0000       0.567770        15.4498
  19   0.0000       0.656720        17.8702

MULLIKEN ATOMIC CHARGES
-----------------------
   0 C :    0.174231
   1 O :   -0.351321
   2 C :   -0.204614
   3 C :   -0.200682
   4 H :    0.134973
   5 H :    0.157591
   6 H :    0.140379
   7 H :    0.149443
Sum of atomic charges:    0.0000000

LOEWDIN ATOMIC CHARGES
----------------------
   0 C :    0.147104
   1 O :   -0.262332
   2 C :   -0.142610
   3 C :   -0.106383
   4 H :    0.083111
   5 H :    0.090892
   6 H :    0.095087
   7 H :    0.095130

  Mayer bond orders larger than 0.100000
B(  0-C ,  1-O ) :   1.8985 B(  0-C ,  2-C ) :   1.0457 B(  0-C ,  4-H ) :   0.9127
B(  2-C ,  3-C ) :   1.9327 B(  2-C ,  5-H ) :   0.9561 B(  3-C ,  6-H ) :   0.9637
B(  3-C ,  7-H ) :   0.9654

-----------------------------------------------------------------------------
         ABSORPTION SPECTRUM VIA TRANSITION ELECTRIC DIPOLE MOMENTS
-----------------------------------------------------------------------------
State   Energy    Wavelength  fosc         T2        TX        TY        TZ
        (cm-1)      (nm)                 (au**2)    (au)      (au)      (au)
-----------------------------------------------------------------------------
   1   31447.1    318.0   0.000268713   0.00281   0.04078  -0.02385  -0.02412

Dispersion correction           -0.025671046
FINAL SINGLE POINT ENERGY      -189.304264122678

DIPOLE MOMENT
-------------
                                X             Y             Z
Electronic contribution:     -2.87087      -0.29941       1.38276
Nuclear contribution   :      3.83449       0.37787      -2.16944
                        -----------------------------------------
Total Dipole Moment    :      0.96361       0.07847      -0.78668
                        -----------------------------------------
Magnitude (a.u.)       :      1.24642
Magnitude (Debye)      :      3.16816

Rotational constants in cm-1:     1.411355     0.160003     0.148193
Rotational constants in MHz : 42311.350925  4796.782285  4442.707244

                             ****ORCA TERMINATED NORMALLY****
TOTAL RUN TIME: 0 days 0 hours 0 minutes 16 seconds 126 msec
