                         Program Version 5.0.3 -  RELEASE  -
|  1> ! B3LYP cc-pVDZ
|  2> !TightSCF
|  3> %scf
|  4>  ConvForced true
|  5>  convergence tight
|  6>  MaxIter 500
|  7> end
|  8>
|  9> %tddft
| 10>  nroots 1
| 11> end
| 12>
| 13> # 	7534
| 14> * xyz 0 1
| 15> 		C   -1.208156  -0.399408   0.027074
| 16> 		O   -2.059107  -0.694729   0.839223
| 17> 		C   -0.065981   0.425392   0.252548
| 18> 		C    1.247396   0.056622  -0.197948
| 19> 		H   -1.193898  -0.744598  -0.944876
| 20> 		H   -0.025269   1.280483   1.018442
| 21> 		H    1.446762  -0.552257  -0.954041
| 22> 		H    1.844373   0.622000  -0.022352
| 23> *
| 24>
| 25>                          ****END OF INPUT****

CARTESIAN COORDINATES (ANGSTROEM)
---------------------------------
  C     -1.208156   -0.399408    0.027074
  O     -2.059107   -0.694729    0.839223
  C     -0.065981    0.425392    0.252548
  C      1.247396    0.056622   -0.197948
  H     -1.193898   -0.744598   -0.944876
  H     -0.025269    1.280483    1.018442
  H      1.446762   -0.552257   -0.954041
  H      1.844373    0.622000   -0.022352

 Total Charge           Charge          ....    0
 Multiplicity           Mult            ....    1
 Number of Electrons    NEL             ....   30
 Basis Dimension        Dim             ....   76

ORBITAL ENERGIES
----------------

  NO   OCC          E(Eh)            E(eV)
   0   2.0000     -19.138850      -520.7946
   1   2.0000     -10.268471      -279.4193
   2   2.0000     -10.221585      -278.1435
   3   2.0000     -10.197118      -277.4777
   4   2.0000      -1.045111       -28.4389
   5   2.0000      -0.803807       -21.8727
   6   2.0000      -0.693304       -18.8658
   7   2.0000      -0.578518       -15.7423
   8   2.0000      -0.495376       -13.4799
   9   2.0000      -0.475485       -12.9386
  10   2.0000      -0.430790       -11.7224
  11   2.0000      -0.415129       -11.2962
  12   2.0000      -0.375642       -10.2218
  13   2.0000      -0.281315        -7.6550
  14   2.0000      -0.257613        -7.0100
  15   0.0000      -0.078042        -2.1236
  16   0.0000       0.022570         0.6141
  17   0.0000       0.085478         2.3260
  18   0.0000       0.091991         2.5032
  19   0.0000       0.129545         3.5251

MULLIKEN ATOMIC CHARGES
-----------------------
   0 C :    0.241904
   1 O :   -0.195281
   2 C :   -0.168243
   3 C :    0.232748
   4 H :   -0.039088
   5 H :    0.028711
   6 H :   -0.008381
   7 H :   -0.092369
Sum of atomic charges:    0.0000000

LOEWDIN ATOMIC CHARGES
----------------------
   0 C :   -0.047440
   1 O :    0.005919
   2 C :   -0.021569
   3 C :    0.085571
   4 H :   -0.014085
   5 H :    0.045588
   6 H :    0.009941
   7 H :   -0.063926

  Mayer bond orders larger than 0.100000
B(  0-C ,  1-O ) :   2.1809 B(  0-C ,  2-C ) :   1.0751 B(  0-C ,  4-H ) :   0.9237
B(  2-C ,  3-C ) :   1.9331 B(  2-C ,  5-H ) :   0.9374 B(  3-C ,  6-H ) :   0.9668
B(  3-C ,  7-H ) :   0.9294

-----------------------------------------------------------------------------
         ABSORPTION SPECTRUM VIA TRANSITION ELECTRIC DIPOLE MOMENTS
-----------------------------------------------------------------------------
State   Energy    Wavelength  fosc         T2        TX        TY        TZ
        (cm-1)      (nm)                 (au**2)    (au)      (au)      (au)
-----------------------------------------------------------------------------
   1   27260.7    366.8   0.000989411   0.01195  -0.10120  -0.03725   0.01786

FINAL SINGLE POINT ENERGY      -191.579321725300

DIPOLE MOMENT
-------------
                                X             Y             Z
Electronic contribution:     -3.07115      -0.84151       1.14554
Nuclear contribution   :      4.00846       1.19714      -1.74164
                        -----------------------------------------
Total Dipole Moment    :      0.93731       0.35563      -0.59610
                        -----------------------------------------
Magnitude (a.u.)       :      1.16635
Magnitude (Debye)      :      2.96462

Rotational constants in cm-1:     1.406659     0.153451     0.145077
Rotational constants in MHz : 42170.564197  4600.350421  4349.286045

                             ****ORCA TERMINATED NORMALLY****
TOTAL RUN TIME: 0 days 0 hours 3 minutes 27 seconds 838 msec
