                         Program Version 5.0.3 -  RELEASE  -
|  1> ! HF-3c
|  2> !TightSCF
|  3> %scf
|  4>  ConvForced true
|  5>  convergence tight
|  6>  MaxIter 500
|  7> end
|  8>
|  9> %tddft
| 10>  nroots 1
| 11> end
| 12>
| 13> # 	11118
| 14> * xyz 0 1
| 15> 		C   -1.155270  -0.371326  -0.135488
| 16> 		O   -2.187461  -0.244776  -0.747937
| 17> 		C    0.036986   0.342262  -0.340978
| 18> 		C    1.189854   0.096174   0.217117
| 19> 		H   -1.056006  -1.080281   0.749705
| 20> 		H    0.009651   1.097397  -0.943160
| 21> 		H    1.158408  -0.565005   1.120187
| 22> 		H    1.990395   0.657877   0.067061
| 23> *
| 24>
| 25>                          ****END OF INPUT****

CARTESIAN COORDINATES (ANGSTROEM)
---------------------------------
  C     -1.155270   -0.371326   -0.135488
  O     -2.187461   -0.244776   -0.747937
  C      0.036986    0.342262   -0.340978
  C      1.189854    0.096174    0.217117
  H     -1.056006   -1.080281    0.749705
  H      0.009651    1.097397   -0.943160
  H      1.158408   -0.565005    1.120187
  H      1.990395    0.657877    0.067061

 Total Charge           Charge          ....    0
 Multiplicity           Mult            ....    1
 Number of Electrons    NEL             ....   30
 Basis Dimension        Dim             ....   24

ORBITAL ENERGIES
----------------

  NO   OCC          E(Eh)            E(eV)
   0   2.0000     -20.375115      -554.4351
   1   2.0000     -11.304606      -307.6140
   2   2.0000     -11.210604      -305.0560
   3   2.0000     -11.205481      -304.9166
   4   2.0000      -1.409382       -38.3512
   5   2.0000      -1.124843       -30.6085
   6   2.0000      -0.913308       -24.8524
   7   2.0000      -0.800819       -21.7914
   8   2.0000      -0.685449       -18.6520
   9   2.0000      -0.676624       -18.4119
  10   2.0000      -0.591744       -16.1022
  11   2.0000      -0.570174       -15.5152
  12   2.0000      -0.546238       -14.8639
  13   2.0000      -0.421443       -11.4681
  14   2.0000      -0.410179       -11.1615
  15   0.0000       0.115062         3.1310
  16   0.0000       0.314791         8.5659
  17   0.0000       0.595251        16.1976
  18   0.0000       0.610383        16.6094
  19   0.0000       0.682214        18.5640

MULLIKEN ATOMIC CHARGES
-----------------------
   0 C :    0.175529
   1 O :   -0.343769
   2 C :   -0.198881
   3 C :   -0.219660
   4 H :    0.128508
   5 H :    0.157130
   6 H :    0.149931
   7 H :    0.151212
Sum of atomic charges:   -0.0000000

LOEWDIN ATOMIC CHARGES
----------------------
   0 C :    0.152177
   1 O :   -0.248480
   2 C :   -0.138842
   3 C :   -0.115630
   4 H :    0.068042
   5 H :    0.090953
   6 H :    0.101070
   7 H :    0.090709

  Mayer bond orders larger than 0.100000
B(  0-C ,  1-O ) :   1.8982 B(  0-C ,  2-C ) :   1.0521 B(  0-C ,  4-H ) :   0.9172
B(  2-C ,  3-C ) :   1.9303 B(  2-C ,  5-H ) :   0.9541 B(  3-C ,  6-H ) :   0.9606
B(  3-C ,  7-H ) :   0.9663

-----------------------------------------------------------------------------
         ABSORPTION SPECTRUM VIA TRANSITION ELECTRIC DIPOLE MOMENTS
-----------------------------------------------------------------------------
State   Energy    Wavelength  fosc         T2        TX        TY        TZ
        (cm-1)      (nm)                 (au**2)    (au)      (au)      (au)
-----------------------------------------------------------------------------
   1   32022.7    312.3   0.000010049   0.00010  -0.00377  -0.00251  -0.00910

Dispersion correction           -0.026516610
FINAL SINGLE POINT ENERGY      -189.311801311896

DIPOLE MOMENT
-------------
                                X             Y             Z
Electronic contribution:     -3.05490      -0.33099      -1.25803
Nuclear contribution   :      4.09174       0.30112       1.86744
                        -----------------------------------------
Total Dipole Moment    :      1.03684      -0.02987       0.60941
                        -----------------------------------------
Magnitude (a.u.)       :      1.20304
Magnitude (Debye)      :      3.05789

Rotational constants in cm-1:     1.812331     0.158927     0.146449
Rotational constants in MHz : 54332.326536  4764.509618  4390.415764

                             ****ORCA TERMINATED NORMALLY****
TOTAL RUN TIME: 0 days 0 hours 0 minutes 11 seconds 364 msec
