                         Program Version 5.0.3 -  RELEASE  -
|  1> ! B3LYP cc-pVDZ
|  2> !TightSCF
|  3> %scf
|  4>  ConvForced true
|  5>  convergence tight
|  6>  MaxIter 500
|  7> end
|  8>
|  9> %tddft
| 10>  nroots 1
| 11> end
| 12>
| 13> # 	32762
| 14> * xyz 0 1
| 15> 		C   -0.562972  -0.397737   0.006165
| 16> 		O   -0.535165  -1.627789  -0.000134
| 17> 		C    0.645850   0.433057  -0.024550
| 18> 		C    1.765435  -0.184767   0.030855
| 19> 		H   -1.582493   0.203193   0.049954
| 20> 		H    0.515221   1.453643  -0.011428
| 21> 		H    1.801385  -1.177861  -0.190976
| 22> 		H    2.694330   0.404329   0.007889
| 23> *
| 24>
| 25>                          ****END OF INPUT****

CARTESIAN COORDINATES (ANGSTROEM)
---------------------------------
  C     -0.562972   -0.397737    0.006165
  O     -0.535165   -1.627789   -0.000134
  C      0.645850    0.433057   -0.024550
  C      1.765435   -0.184767    0.030855
  H     -1.582493    0.203193    0.049954
  H      0.515221    1.453643   -0.011428
  H      1.801385   -1.177861   -0.190976
  H      2.694330    0.404329    0.007889

 Total Charge           Charge          ....    0
 Multiplicity           Mult            ....    1
 Number of Electrons    NEL             ....   30
 Basis Dimension        Dim             ....   76

ORBITAL ENERGIES
----------------

  NO   OCC          E(Eh)            E(eV)
   0   2.0000     -19.139005      -520.7988
   1   2.0000     -10.279145      -279.7098
   2   2.0000     -10.198063      -277.5034
   3   2.0000     -10.192196      -277.3438
   4   2.0000      -1.036680       -28.2095
   5   2.0000      -0.814180       -22.1550
   6   2.0000      -0.657391       -17.8885
   7   2.0000      -0.547211       -14.8904
   8   2.0000      -0.511683       -13.9236
   9   2.0000      -0.454983       -12.3807
  10   2.0000      -0.417347       -11.3566
  11   2.0000      -0.397779       -10.8241
  12   2.0000      -0.384745       -10.4694
  13   2.0000      -0.294673        -8.0185
  14   2.0000      -0.256654        -6.9839
  15   0.0000      -0.069036        -1.8786
  16   0.0000       0.061967         1.6862
  17   0.0000       0.067953         1.8491
  18   0.0000       0.095393         2.5958
  19   0.0000       0.129585         3.5262

MULLIKEN ATOMIC CHARGES
-----------------------
   0 C :    0.154969
   1 O :   -0.207006
   2 C :   -0.074686
   3 C :    0.148728
   4 H :   -0.011306
   5 H :   -0.041584
   6 H :    0.007406
   7 H :    0.023479
Sum of atomic charges:    0.0000000

LOEWDIN ATOMIC CHARGES
----------------------
   0 C :   -0.018415
   1 O :   -0.024977
   2 C :   -0.071798
   3 C :    0.047755
   4 H :   -0.000148
   5 H :    0.015070
   6 H :    0.015743
   7 H :    0.036769

  Mayer bond orders larger than 0.100000
B(  0-C ,  1-O ) :   2.1638 B(  0-C ,  2-C ) :   1.0629 B(  0-C ,  4-H ) :   0.9066
B(  2-C ,  3-C ) :   1.9880 B(  2-C ,  5-H ) :   0.9509 B(  3-C ,  6-H ) :   0.9188
B(  3-C ,  7-H ) :   0.9380

-----------------------------------------------------------------------------
         ABSORPTION SPECTRUM VIA TRANSITION ELECTRIC DIPOLE MOMENTS
-----------------------------------------------------------------------------
State   Energy    Wavelength  fosc         T2        TX        TY        TZ
        (cm-1)      (nm)                 (au**2)    (au)      (au)      (au)
-----------------------------------------------------------------------------
   1   28001.2    357.1   0.000249796   0.00294  -0.03215   0.00654  -0.04314

FINAL SINGLE POINT ENERGY      -191.663291790525

DIPOLE MOMENT
-------------
                                X             Y             Z
Electronic contribution:     -1.65791      -1.69664       0.09536
Nuclear contribution   :      2.05986       2.61550      -0.13575
                        -----------------------------------------
Total Dipole Moment    :      0.40196       0.91886      -0.04040
                        -----------------------------------------
Magnitude (a.u.)       :      1.00374
Magnitude (Debye)      :      2.55131

Rotational constants in cm-1:     0.750030     0.226638     0.174257
Rotational constants in MHz : 22485.327523  6794.433645  5224.091663

                             ****ORCA TERMINATED NORMALLY****
TOTAL RUN TIME: 0 days 0 hours 3 minutes 9 seconds 963 msec
