                         Program Version 5.0.3 -  RELEASE  -
|  1> ! HF-3c
|  2> !TightSCF
|  3> %scf
|  4>  ConvForced true
|  5>  convergence tight
|  6>  MaxIter 500
|  7> end
|  8>
|  9> %tddft
| 10>  nroots 1
| 11> end
| 12>
| 13> # 	5325
| 14> * xyz 0 1
| 15> 		C   -1.157662  -0.320903   0.024694
| 16> 		O   -1.428471  -1.328633   0.605501
| 17> 		C    0.002366   0.540977   0.164829
| 18> 		C    1.297954   0.023207  -0.171758
| 19> 		H   -2.000683   0.037317  -0.895432
| 20> 		H   -0.208146   1.447414   0.580212
| 21> 		H    1.440879  -0.942894  -0.389573
| 22> 		H    2.073144   0.515675   0.030980
| 23> *
| 24>
| 25>                          ****END OF INPUT****

CARTESIAN COORDINATES (ANGSTROEM)
---------------------------------
  C     -1.157662   -0.320903    0.024694
  O     -1.428471   -1.328633    0.605501
  C      0.002366    0.540977    0.164829
  C      1.297954    0.023207   -0.171758
  H     -2.000683    0.037317   -0.895432
  H     -0.208146    1.447414    0.580212
  H      1.440879   -0.942894   -0.389573
  H      2.073144    0.515675    0.030980

 Total Charge           Charge          ....    0
 Multiplicity           Mult            ....    1
 Number of Electrons    NEL             ....   30
 Basis Dimension        Dim             ....   24

ORBITAL ENERGIES
----------------

  NO   OCC          E(Eh)            E(eV)
   0   2.0000     -20.377998      -554.5135
   1   2.0000     -11.301567      -307.5313
   2   2.0000     -11.209215      -305.0183
   3   2.0000     -11.196748      -304.6790
   4   2.0000      -1.416086       -38.5337
   5   2.0000      -1.077111       -29.3097
   6   2.0000      -0.917149       -24.9569
   7   2.0000      -0.752846       -20.4860
   8   2.0000      -0.694327       -18.8936
   9   2.0000      -0.637218       -17.3396
  10   2.0000      -0.619610       -16.8605
  11   2.0000      -0.585713       -15.9380
  12   2.0000      -0.513873       -13.9832
  13   2.0000      -0.406330       -11.0568
  14   2.0000      -0.377675       -10.2771
  15   0.0000       0.138902         3.7797
  16   0.0000       0.220967         6.0128
  17   0.0000       0.476642        12.9701
  18   0.0000       0.645624        17.5683
  19   0.0000       0.667955        18.1760

MULLIKEN ATOMIC CHARGES
-----------------------
   0 C :    0.192836
   1 O :   -0.351969
   2 C :   -0.152716
   3 C :   -0.259242
   4 H :    0.122388
   5 H :    0.155169
   6 H :    0.151500
   7 H :    0.142033
Sum of atomic charges:   -0.0000000

LOEWDIN ATOMIC CHARGES
----------------------
   0 C :    0.153192
   1 O :   -0.250645
   2 C :   -0.098908
   3 C :   -0.148669
   4 H :    0.074415
   5 H :    0.096152
   6 H :    0.093254
   7 H :    0.081209

  Mayer bond orders larger than 0.100000
B(  0-C ,  1-O ) :   1.9439 B(  0-C ,  2-C ) :   1.0159 B(  0-C ,  4-H ) :   0.8877
B(  2-C ,  3-C ) :   1.9572 B(  2-C ,  5-H ) :   0.9572 B(  3-C ,  6-H ) :   0.9694
B(  3-C ,  7-H ) :   0.9724

-----------------------------------------------------------------------------
         ABSORPTION SPECTRUM VIA TRANSITION ELECTRIC DIPOLE MOMENTS
-----------------------------------------------------------------------------
State   Energy    Wavelength  fosc         T2        TX        TY        TZ
        (cm-1)      (nm)                 (au**2)    (au)      (au)      (au)
-----------------------------------------------------------------------------
   1   34684.2    288.3   0.000581671   0.00552   0.07178  -0.01565  -0.01110

Dispersion correction           -0.025118923
FINAL SINGLE POINT ENERGY      -189.254012643987

DIPOLE MOMENT
-------------
                                X             Y             Z
Electronic contribution:     -2.22569      -1.35566       0.82816
Nuclear contribution   :      2.53561       2.13294      -1.24289
                        -----------------------------------------
Total Dipole Moment    :      0.30993       0.77728      -0.41473
                        -----------------------------------------
Magnitude (a.u.)       :      0.93393
Magnitude (Debye)      :      2.37385

Rotational constants in cm-1:     0.831413     0.181071     0.158792
Rotational constants in MHz : 24925.128826  5428.364840  4760.453439

                             ****ORCA TERMINATED NORMALLY****
TOTAL RUN TIME: 0 days 0 hours 0 minutes 16 seconds 105 msec
