                         Program Version 5.0.3 -  RELEASE  -
|  1> ! B3LYP cc-pVDZ
|  2> !TightSCF
|  3> %scf
|  4>  ConvForced true
|  5>  convergence tight
|  6>  MaxIter 500
|  7> end
|  8>
|  9> %tddft
| 10>  nroots 1
| 11> end
| 12>
| 13> # 	30560
| 14> * xyz 0 1
| 15> 		C   -0.599746  -0.438121  -0.029095
| 16> 		O   -0.524440  -1.590908   0.021312
| 17> 		C    0.614346   0.440931   0.049439
| 18> 		C    1.790496  -0.205558   0.003147
| 19> 		H   -1.647428   0.129923  -0.320890
| 20> 		H    0.516046   1.506870   0.105494
| 21> 		H    1.974339  -1.164737  -0.144935
| 22> 		H    2.920336   0.469739  -0.260015
| 23> *
| 24>
| 25>                          ****END OF INPUT****

CARTESIAN COORDINATES (ANGSTROEM)
---------------------------------
  C     -0.599746   -0.438121   -0.029095
  O     -0.524440   -1.590908    0.021312
  C      0.614346    0.440931    0.049439
  C      1.790496   -0.205558    0.003147
  H     -1.647428    0.129923   -0.320890
  H      0.516046    1.506870    0.105494
  H      1.974339   -1.164737   -0.144935
  H      2.920336    0.469739   -0.260015

 Total Charge           Charge          ....    0
 Multiplicity           Mult            ....    1
 Number of Electrons    NEL             ....   30
 Basis Dimension        Dim             ....   76

ORBITAL ENERGIES
----------------

  NO   OCC          E(Eh)            E(eV)
   0   2.0000     -19.143227      -520.9137
   1   2.0000     -10.282915      -279.8124
   2   2.0000     -10.223231      -278.1883
   3   2.0000     -10.207903      -277.7712
   4   2.0000      -1.083744       -29.4902
   5   2.0000      -0.791812       -21.5463
   6   2.0000      -0.642245       -17.4764
   7   2.0000      -0.547020       -14.8852
   8   2.0000      -0.499232       -13.5848
   9   2.0000      -0.463568       -12.6143
  10   2.0000      -0.428088       -11.6489
  11   2.0000      -0.414984       -11.2923
  12   2.0000      -0.362017        -9.8510
  13   2.0000      -0.289602        -7.8805
  14   2.0000      -0.256624        -6.9831
  15   0.0000      -0.064020        -1.7421
  16   0.0000       0.032670         0.8890
  17   0.0000       0.064357         1.7512
  18   0.0000       0.082690         2.2501
  19   0.0000       0.114235         3.1085

MULLIKEN ATOMIC CHARGES
-----------------------
   0 C :    0.138707
   1 O :   -0.133272
   2 C :   -0.064504
   3 C :    0.044029
   4 H :   -0.025504
   5 H :   -0.004312
   6 H :    0.001965
   7 H :    0.042891
Sum of atomic charges:    0.0000000

LOEWDIN ATOMIC CHARGES
----------------------
   0 C :   -0.071943
   1 O :    0.051805
   2 C :   -0.076205
   3 C :    0.037445
   4 H :   -0.011060
   5 H :    0.025046
   6 H :   -0.006757
   7 H :    0.051669

  Mayer bond orders larger than 0.100000
B(  0-C ,  1-O ) :   2.2620 B(  0-C ,  2-C ) :   1.0045 B(  0-C ,  4-H ) :   0.8842
B(  2-C ,  3-C ) :   1.9501 B(  2-C ,  5-H ) :   0.9465 B(  3-C ,  6-H ) :   0.9485
B(  3-C ,  7-H ) :   0.9473

-----------------------------------------------------------------------------
         ABSORPTION SPECTRUM VIA TRANSITION ELECTRIC DIPOLE MOMENTS
-----------------------------------------------------------------------------
State   Energy    Wavelength  fosc         T2        TX        TY        TZ
        (cm-1)      (nm)                 (au**2)    (au)      (au)      (au)
-----------------------------------------------------------------------------
   1   30009.3    333.2   0.000162222   0.00178   0.00088   0.01589  -0.03907

FINAL SINGLE POINT ENERGY      -191.623233334647

DIPOLE MOMENT
-------------
                                X             Y             Z
Electronic contribution:     -2.06751      -1.96474       0.48734
Nuclear contribution   :      2.37484       2.67033      -0.58153
                        -----------------------------------------
Total Dipole Moment    :      0.30733       0.70559      -0.09419
                        -----------------------------------------
Magnitude (a.u.)       :      0.77535
Magnitude (Debye)      :      1.97079

Rotational constants in cm-1:     0.728587     0.221689     0.170837
Rotational constants in MHz : 21842.483069  6646.073513  5121.561179

                             ****ORCA TERMINATED NORMALLY****
TOTAL RUN TIME: 0 days 0 hours 3 minutes 23 seconds 327 msec
