                         Program Version 5.0.3 -  RELEASE  -
|  1> ! B3LYP cc-pVDZ
|  2> !TightSCF
|  3> %scf
|  4>  ConvForced true
|  5>  convergence tight
|  6>  MaxIter 500
|  7> end
|  8>
|  9> %tddft
| 10>  nroots 1
| 11> end
| 12>
| 13> # 	28800
| 14> * xyz 0 1
| 15> 		C   -0.565343  -0.453316  -0.020987
| 16> 		O   -0.612603  -1.661241   0.015159
| 17> 		C    0.621243   0.432992  -0.026585
| 18> 		C    1.872703  -0.090961   0.001357
| 19> 		H   -1.475436   0.153811   0.081677
| 20> 		H    0.618237   1.456675   0.184124
| 21> 		H    1.932234  -1.218575  -0.063445
| 22> 		H    2.655162   0.534381   0.122166
| 23> *
| 24>
| 25>                          ****END OF INPUT****

CARTESIAN COORDINATES (ANGSTROEM)
---------------------------------
  C     -0.565343   -0.453316   -0.020987
  O     -0.612603   -1.661241    0.015159
  C      0.621243    0.432992   -0.026585
  C      1.872703   -0.090961    0.001357
  H     -1.475436    0.153811    0.081677
  H      0.618237    1.456675    0.184124
  H      1.932234   -1.218575   -0.063445
  H      2.655162    0.534381    0.122166

 Total Charge           Charge          ....    0
 Multiplicity           Mult            ....    1
 Number of Electrons    NEL             ....   30
 Basis Dimension        Dim             ....   76

ORBITAL ENERGIES
----------------

  NO   OCC          E(Eh)            E(eV)
   0   2.0000     -19.141120      -520.8564
   1   2.0000     -10.275332      -279.6060
   2   2.0000     -10.210515      -277.8422
   3   2.0000     -10.199906      -277.5536
   4   2.0000      -1.047310       -28.4988
   5   2.0000      -0.798126       -21.7181
   6   2.0000      -0.661384       -17.9972
   7   2.0000      -0.545661       -14.8482
   8   2.0000      -0.518899       -14.1200
   9   2.0000      -0.443956       -12.0807
  10   2.0000      -0.424505       -11.5514
  11   2.0000      -0.399432       -10.8691
  12   2.0000      -0.384912       -10.4740
  13   2.0000      -0.287330        -7.8187
  14   2.0000      -0.256936        -6.9916
  15   0.0000      -0.072225        -1.9653
  16   0.0000       0.056591         1.5399
  17   0.0000       0.074353         2.0232
  18   0.0000       0.092804         2.5253
  19   0.0000       0.128531         3.4975

MULLIKEN ATOMIC CHARGES
-----------------------
   0 C :    0.205013
   1 O :   -0.190219
   2 C :   -0.119044
   3 C :    0.105347
   4 H :   -0.025592
   5 H :   -0.024042
   6 H :    0.047769
   7 H :    0.000768
Sum of atomic charges:   -0.0000000

LOEWDIN ATOMIC CHARGES
----------------------
   0 C :   -0.034423
   1 O :   -0.001189
   2 C :   -0.076475
   3 C :    0.051050
   4 H :   -0.009744
   5 H :    0.020170
   6 H :    0.043573
   7 H :    0.007038

  Mayer bond orders larger than 0.100000
B(  0-C ,  1-O ) :   2.1919 B(  0-C ,  2-C ) :   1.0466 B(  0-C ,  4-H ) :   0.9186
B(  2-C ,  3-C ) :   1.9653 B(  2-C ,  5-H ) :   0.9490 B(  3-C ,  6-H ) :   0.9371
B(  3-C ,  7-H ) :   0.9389

-----------------------------------------------------------------------------
         ABSORPTION SPECTRUM VIA TRANSITION ELECTRIC DIPOLE MOMENTS
-----------------------------------------------------------------------------
State   Energy    Wavelength  fosc         T2        TX        TY        TZ
        (cm-1)      (nm)                 (au**2)    (au)      (au)      (au)
-----------------------------------------------------------------------------
   1   27883.4    358.6   0.000221022   0.00261  -0.04038  -0.01592  -0.02694

FINAL SINGLE POINT ENERGY      -191.667201767068

DIPOLE MOMENT
-------------
                                X             Y             Z
Electronic contribution:     -1.86815      -1.73876      -0.24561
Nuclear contribution   :      2.33983       2.65759       0.30370
                        -----------------------------------------
Total Dipole Moment    :      0.47168       0.91883       0.05810
                        -----------------------------------------
Magnitude (a.u.)       :      1.03446
Magnitude (Debye)      :      2.62939

Rotational constants in cm-1:     0.790045     0.201712     0.160924
Rotational constants in MHz : 23684.946575  6047.177748  4824.374982

                             ****ORCA TERMINATED NORMALLY****
TOTAL RUN TIME: 0 days 0 hours 3 minutes 26 seconds 924 msec
