                         Program Version 5.0.3 -  RELEASE  -
|  1> ! B3LYP cc-pVDZ
|  2> !TightSCF
|  3> %scf
|  4>  ConvForced true
|  5>  convergence tight
|  6>  MaxIter 500
|  7> end
|  8>
|  9> %tddft
| 10>  nroots 1
| 11> end
| 12>
| 13> # 	30521
| 14> * xyz 0 1
| 15> 		C   -0.523388  -0.448939   0.030157
| 16> 		O   -0.591978  -1.601280  -0.014947
| 17> 		C    0.643719   0.399651  -0.003934
| 18> 		C    1.794950  -0.125702   0.005145
| 19> 		H   -1.574114   0.123481   0.007345
| 20> 		H    0.379727   1.459230  -0.172812
| 21> 		H    1.925553  -1.237788  -0.033101
| 22> 		H    2.796129   0.411751   0.057747
| 23> *
| 24>
| 25>                          ****END OF INPUT****

CARTESIAN COORDINATES (ANGSTROEM)
---------------------------------
  C     -0.523388   -0.448939    0.030157
  O     -0.591978   -1.601280   -0.014947
  C      0.643719    0.399651   -0.003934
  C      1.794950   -0.125702    0.005145
  H     -1.574114    0.123481    0.007345
  H      0.379727    1.459230   -0.172812
  H      1.925553   -1.237788   -0.033101
  H      2.796129    0.411751    0.057747

 Total Charge           Charge          ....    0
 Multiplicity           Mult            ....    1
 Number of Electrons    NEL             ....   30
 Basis Dimension        Dim             ....   76

ORBITAL ENERGIES
----------------

  NO   OCC          E(Eh)            E(eV)
   0   2.0000     -19.137708      -520.7635
   1   2.0000     -10.270743      -279.4811
   2   2.0000     -10.212997      -277.9098
   3   2.0000     -10.197489      -277.4878
   4   2.0000      -1.078993       -29.3609
   5   2.0000      -0.815110       -22.1803
   6   2.0000      -0.653110       -17.7720
   7   2.0000      -0.529055       -14.3963
   8   2.0000      -0.512764       -13.9530
   9   2.0000      -0.462432       -12.5834
  10   2.0000      -0.427167       -11.6238
  11   2.0000      -0.419988       -11.4285
  12   2.0000      -0.372655       -10.1404
  13   2.0000      -0.301977        -8.2172
  14   2.0000      -0.250515        -6.8169
  15   0.0000      -0.059152        -1.6096
  16   0.0000       0.057195         1.5564
  17   0.0000       0.082262         2.2385
  18   0.0000       0.085771         2.3339
  19   0.0000       0.125121         3.4047

MULLIKEN ATOMIC CHARGES
-----------------------
   0 C :    0.132386
   1 O :   -0.135436
   2 C :   -0.086833
   3 C :    0.063503
   4 H :   -0.050961
   5 H :   -0.004575
   6 H :    0.041733
   7 H :    0.040182
Sum of atomic charges:    0.0000000

LOEWDIN ATOMIC CHARGES
----------------------
   0 C :   -0.078545
   1 O :    0.051929
   2 C :   -0.096377
   3 C :    0.019873
   4 H :   -0.018863
   5 H :    0.038315
   6 H :    0.041786
   7 H :    0.041882

  Mayer bond orders larger than 0.100000
B(  0-C ,  1-O ) :   2.2700 B(  0-C ,  2-C ) :   1.0521 B(  0-C ,  4-H ) :   0.8922
B(  2-C ,  3-C ) :   1.9746 B(  2-C ,  5-H ) :   0.9466 B(  3-C ,  6-H ) :   0.9200
B(  3-C ,  7-H ) :   0.9404

-----------------------------------------------------------------------------
         ABSORPTION SPECTRUM VIA TRANSITION ELECTRIC DIPOLE MOMENTS
-----------------------------------------------------------------------------
State   Energy    Wavelength  fosc         T2        TX        TY        TZ
        (cm-1)      (nm)                 (au**2)    (au)      (au)      (au)
-----------------------------------------------------------------------------
   1   29473.6    339.3   0.000349175   0.00390  -0.02003   0.01512  -0.05719

FINAL SINGLE POINT ENERGY      -191.652783289936

DIPOLE MOMENT
-------------
                                X             Y             Z
Electronic contribution:     -1.62866      -1.74589       0.11607
Nuclear contribution   :      2.15210       2.49778      -0.13205
                        -----------------------------------------
Total Dipole Moment    :      0.52344       0.75189      -0.01597
                        -----------------------------------------
Magnitude (a.u.)       :      0.91629
Magnitude (Debye)      :      2.32902

Rotational constants in cm-1:     0.823268     0.216922     0.171858
Rotational constants in MHz : 24680.960446  6503.143468  5152.176930

                             ****ORCA TERMINATED NORMALLY****
TOTAL RUN TIME: 0 days 0 hours 3 minutes 23 seconds 371 msec
