                         Program Version 5.0.3 -  RELEASE  -
|  1> ! HF-3c
|  2> !TightSCF
|  3> %scf
|  4>  ConvForced true
|  5>  convergence tight
|  6>  MaxIter 500
|  7> end
|  8>
|  9> %tddft
| 10>  nroots 1
| 11> end
| 12>
| 13> # 	19010
| 14> * xyz 0 1
| 15> 		C   -1.194685  -0.340791  -0.008332
| 16> 		O   -1.638237  -1.196125  -0.721707
| 17> 		C    0.031220   0.442328  -0.231820
| 18> 		C    1.167931   0.032225   0.118758
| 19> 		H   -1.681021  -0.066513   1.047347
| 20> 		H   -0.152158   1.366032  -0.909858
| 21> 		H    1.429927  -0.862812   0.716879
| 22> 		H    2.100704   0.668810  -0.031351
| 23> *
| 24>
| 25>                          ****END OF INPUT****

CARTESIAN COORDINATES (ANGSTROEM)
---------------------------------
  C     -1.194685   -0.340791   -0.008332
  O     -1.638237   -1.196125   -0.721707
  C      0.031220    0.442328   -0.231820
  C      1.167931    0.032225    0.118758
  H     -1.681021   -0.066513    1.047347
  H     -0.152158    1.366032   -0.909858
  H      1.429927   -0.862812    0.716879
  H      2.100704    0.668810   -0.031351

 Total Charge           Charge          ....    0
 Multiplicity           Mult            ....    1
 Number of Electrons    NEL             ....   30
 Basis Dimension        Dim             ....   24

ORBITAL ENERGIES
----------------

  NO   OCC          E(Eh)            E(eV)
   0   2.0000     -20.377914      -554.5112
   1   2.0000     -11.299979      -307.4881
   2   2.0000     -11.195434      -304.6433
   3   2.0000     -11.183722      -304.3246
   4   2.0000      -1.412468       -38.4352
   5   2.0000      -1.097800       -29.8727
   6   2.0000      -0.879335       -23.9279
   7   2.0000      -0.743280       -20.2257
   8   2.0000      -0.673752       -18.3337
   9   2.0000      -0.641658       -17.4604
  10   2.0000      -0.613354       -16.6902
  11   2.0000      -0.527845       -14.3634
  12   2.0000      -0.503842       -13.7102
  13   2.0000      -0.424354       -11.5473
  14   2.0000      -0.396181       -10.7806
  15   0.0000       0.197911         5.3854
  16   0.0000       0.239081         6.5057
  17   0.0000       0.509238        13.8571
  18   0.0000       0.552251        15.0275
  19   0.0000       0.644846        17.5472

MULLIKEN ATOMIC CHARGES
-----------------------
   0 C :    0.191005
   1 O :   -0.350114
   2 C :   -0.176188
   3 C :   -0.240289
   4 H :    0.130830
   5 H :    0.160162
   6 H :    0.143983
   7 H :    0.140611
Sum of atomic charges:   -0.0000000

LOEWDIN ATOMIC CHARGES
----------------------
   0 C :    0.160732
   1 O :   -0.249964
   2 C :   -0.131948
   3 C :   -0.154547
   4 H :    0.074526
   5 H :    0.112451
   6 H :    0.094530
   7 H :    0.094221

  Mayer bond orders larger than 0.100000
B(  0-C ,  1-O ) :   1.9544 B(  0-C ,  2-C ) :   0.9831 B(  0-C ,  4-H ) :   0.9044
B(  2-C ,  3-C ) :   2.0147 B(  2-C ,  5-H ) :   0.9353 B(  3-C ,  6-H ) :   0.9595
B(  3-C ,  7-H ) :   0.9561

-----------------------------------------------------------------------------
         ABSORPTION SPECTRUM VIA TRANSITION ELECTRIC DIPOLE MOMENTS
-----------------------------------------------------------------------------
State   Energy    Wavelength  fosc         T2        TX        TY        TZ
        (cm-1)      (nm)                 (au**2)    (au)      (au)      (au)
-----------------------------------------------------------------------------
   1   35725.0    279.9   0.000012321   0.00011   0.00715  -0.00483  -0.00625

Dispersion correction           -0.025162822
FINAL SINGLE POINT ENERGY      -189.303969978028

DIPOLE MOMENT
-------------
                                X             Y             Z
Electronic contribution:     -2.69514      -1.39186      -1.02430
Nuclear contribution   :      3.21101       2.12262       1.57962
                        -----------------------------------------
Total Dipole Moment    :      0.51588       0.73076       0.55532
                        -----------------------------------------
Magnitude (a.u.)       :      1.05287
Magnitude (Debye)      :      2.67617

Rotational constants in cm-1:     0.998842     0.172054     0.163151
Rotational constants in MHz : 29944.538148  5158.042390  4891.147826

                             ****ORCA TERMINATED NORMALLY****
TOTAL RUN TIME: 0 days 0 hours 0 minutes 13 seconds 540 msec
