                         Program Version 5.0.3 -  RELEASE  -
|  1> ! HF-3c
|  2> !TightSCF
|  3> %scf
|  4>  ConvForced true
|  5>  convergence tight
|  6>  MaxIter 500
|  7> end
|  8>
|  9> %tddft
| 10>  nroots 1
| 11> end
| 12>
| 13> # 	31909
| 14> * xyz 0 1
| 15> 		C   -0.553276  -0.501936   0.021821
| 16> 		O   -0.618220  -1.605484  -0.006702
| 17> 		C    0.656510   0.402709  -0.011414
| 18> 		C    1.832614  -0.102756   0.029177
| 19> 		H   -1.532028   0.073984  -0.036117
| 20> 		H    0.636378   1.702316  -0.108825
| 21> 		H    2.068221  -1.179306  -0.205071
| 22> 		H    2.597324   0.543836  -0.017619
| 23> *
| 24>
| 25>                          ****END OF INPUT****

CARTESIAN COORDINATES (ANGSTROEM)
---------------------------------
  C     -0.553276   -0.501936    0.021821
  O     -0.618220   -1.605484   -0.006702
  C      0.656510    0.402709   -0.011414
  C      1.832614   -0.102756    0.029177
  H     -1.532028    0.073984   -0.036117
  H      0.636378    1.702316   -0.108825
  H      2.068221   -1.179306   -0.205071
  H      2.597324    0.543836   -0.017619

 Total Charge           Charge          ....    0
 Multiplicity           Mult            ....    1
 Number of Electrons    NEL             ....   30
 Basis Dimension        Dim             ....   24

ORBITAL ENERGIES
----------------

  NO   OCC          E(Eh)            E(eV)
   0   2.0000     -20.407362      -555.3126
   1   2.0000     -11.327773      -308.2444
   2   2.0000     -11.184024      -304.3328
   3   2.0000     -11.180554      -304.2383
   4   2.0000      -1.491640       -40.5896
   5   2.0000      -1.088665       -29.6241
   6   2.0000      -0.877800       -23.8862
   7   2.0000      -0.751265       -20.4430
   8   2.0000      -0.697084       -18.9686
   9   2.0000      -0.632985       -17.2244
  10   2.0000      -0.610901       -16.6235
  11   2.0000      -0.595382       -16.2012
  12   2.0000      -0.505460       -13.7543
  13   2.0000      -0.413269       -11.2456
  14   2.0000      -0.395466       -10.7612
  15   0.0000       0.159327         4.3355
  16   0.0000       0.334169         9.0932
  17   0.0000       0.429805        11.6956
  18   0.0000       0.552401        15.0316
  19   0.0000       0.654309        17.8047

MULLIKEN ATOMIC CHARGES
-----------------------
   0 C :    0.211654
   1 O :   -0.370739
   2 C :   -0.150146
   3 C :   -0.256428
   4 H :    0.116474
   5 H :    0.152755
   6 H :    0.159018
   7 H :    0.137412
Sum of atomic charges:    0.0000000

LOEWDIN ATOMIC CHARGES
----------------------
   0 C :    0.157207
   1 O :   -0.233968
   2 C :   -0.127389
   3 C :   -0.154911
   4 H :    0.052284
   5 H :    0.115889
   6 H :    0.108640
   7 H :    0.082247

  Mayer bond orders larger than 0.100000
B(  0-C ,  1-O ) :   1.9398 B(  0-C ,  2-C ) :   0.9741 B(  0-C ,  4-H ) :   0.9061
B(  2-C ,  3-C ) :   1.9799 B(  2-C ,  5-H ) :   0.9469 B(  3-C ,  6-H ) :   0.9541
B(  3-C ,  7-H ) :   0.9649

-----------------------------------------------------------------------------
         ABSORPTION SPECTRUM VIA TRANSITION ELECTRIC DIPOLE MOMENTS
-----------------------------------------------------------------------------
State   Energy    Wavelength  fosc         T2        TX        TY        TZ
        (cm-1)      (nm)                 (au**2)    (au)      (au)      (au)
-----------------------------------------------------------------------------
   1   38327.0    260.9   0.000117821   0.00101  -0.03087  -0.00206  -0.00741

Dispersion correction           -0.025599287
FINAL SINGLE POINT ENERGY      -189.246839594102

DIPOLE MOMENT
-------------
                                X             Y             Z
Electronic contribution:     -2.08275      -1.92460       0.26102
Nuclear contribution   :      2.37449       2.85841      -0.34484
                        -----------------------------------------
Total Dipole Moment    :      0.29174       0.93381      -0.08382
                        -----------------------------------------
Magnitude (a.u.)       :      0.98191
Magnitude (Debye)      :      2.49580

Rotational constants in cm-1:     0.847512     0.205088     0.165369
Rotational constants in MHz : 25407.756161  6148.379805  4957.637701

                             ****ORCA TERMINATED NORMALLY****
TOTAL RUN TIME: 0 days 0 hours 0 minutes 14 seconds 452 msec
