                         Program Version 5.0.3 -  RELEASE  -
|  1> ! B3LYP cc-pVDZ
|  2> !TightSCF
|  3> %scf
|  4>  ConvForced true
|  5>  convergence tight
|  6>  MaxIter 500
|  7> end
|  8>
|  9> %tddft
| 10>  nroots 1
| 11> end
| 12>
| 13> # 	16323
| 14> * xyz 0 1
| 15> 		C   -1.128488  -0.289730  -0.092515
| 16> 		O   -1.272955  -1.415866  -0.474611
| 17> 		C    0.034102   0.526774  -0.167594
| 18> 		C    1.166151  -0.056253   0.057260
| 19> 		H   -2.067687   0.216563   0.497222
| 20> 		H   -0.086561   1.575442  -0.317101
| 21> 		H    1.146661  -1.145052   0.300353
| 22> 		H    2.242858   0.637003   0.159091
| 23> *
| 24>
| 25>                          ****END OF INPUT****

CARTESIAN COORDINATES (ANGSTROEM)
---------------------------------
  C     -1.128488   -0.289730   -0.092515
  O     -1.272955   -1.415866   -0.474611
  C      0.034102    0.526774   -0.167594
  C      1.166151   -0.056253    0.057260
  H     -2.067687    0.216563    0.497222
  H     -0.086561    1.575442   -0.317101
  H      1.146661   -1.145052    0.300353
  H      2.242858    0.637003    0.159091

 Total Charge           Charge          ....    0
 Multiplicity           Mult            ....    1
 Number of Electrons    NEL             ....   30
 Basis Dimension        Dim             ....   76

ORBITAL ENERGIES
----------------

  NO   OCC          E(Eh)            E(eV)
   0   2.0000     -19.140344      -520.8352
   1   2.0000     -10.279128      -279.7093
   2   2.0000     -10.227056      -278.2924
   3   2.0000     -10.200130      -277.5596
   4   2.0000      -1.056219       -28.7412
   5   2.0000      -0.817432       -22.2435
   6   2.0000      -0.648377       -17.6432
   7   2.0000      -0.541730       -14.7412
   8   2.0000      -0.500427       -13.6173
   9   2.0000      -0.450899       -12.2696
  10   2.0000      -0.432862       -11.7788
  11   2.0000      -0.390769       -10.6334
  12   2.0000      -0.375861       -10.2277
  13   2.0000      -0.299698        -8.1552
  14   2.0000      -0.253677        -6.9029
  15   0.0000      -0.054709        -1.4887
  16   0.0000       0.026369         0.7175
  17   0.0000       0.060841         1.6556
  18   0.0000       0.078757         2.1431
  19   0.0000       0.112551         3.0627

MULLIKEN ATOMIC CHARGES
-----------------------
   0 C :    0.129628
   1 O :   -0.176876
   2 C :   -0.007502
   3 C :   -0.014734
   4 H :   -0.028118
   5 H :   -0.008223
   6 H :    0.045984
   7 H :    0.059841
Sum of atomic charges:   -0.0000000

LOEWDIN ATOMIC CHARGES
----------------------
   0 C :   -0.049015
   1 O :    0.008325
   2 C :   -0.083863
   3 C :    0.000928
   4 H :   -0.008226
   5 H :    0.031908
   6 H :    0.040294
   7 H :    0.059649

  Mayer bond orders larger than 0.100000
B(  0-C ,  1-O ) :   2.2135 B(  0-C ,  2-C ) :   1.0488 B(  0-C ,  4-H ) :   0.8891
B(  2-C ,  3-C ) :   1.9636 B(  2-C ,  5-H ) :   0.9407 B(  3-C ,  6-H ) :   0.9247
B(  3-C ,  7-H ) :   0.9338

-----------------------------------------------------------------------------
         ABSORPTION SPECTRUM VIA TRANSITION ELECTRIC DIPOLE MOMENTS
-----------------------------------------------------------------------------
State   Energy    Wavelength  fosc         T2        TX        TY        TZ
        (cm-1)      (nm)                 (au**2)    (au)      (au)      (au)
-----------------------------------------------------------------------------
   1   30607.2    326.7   0.000530664   0.00571   0.06705  -0.00225   0.03474

FINAL SINGLE POINT ENERGY      -191.637852871754

DIPOLE MOMENT
-------------
                                X             Y             Z
Electronic contribution:     -1.86921      -1.64717      -0.94849
Nuclear contribution   :      2.36707       2.47298       1.22368
                        -----------------------------------------
Total Dipole Moment    :      0.49786       0.82582       0.27519
                        -----------------------------------------
Magnitude (a.u.)       :      1.00278
Magnitude (Debye)      :      2.54886

Rotational constants in cm-1:     0.812939     0.210006     0.172102
Rotational constants in MHz : 24371.299486  6295.830433  5159.484582

                             ****ORCA TERMINATED NORMALLY****
TOTAL RUN TIME: 0 days 0 hours 3 minutes 22 seconds 950 msec
