                         Program Version 5.0.3 -  RELEASE  -
|  1> ! HF-3c
|  2> !TightSCF
|  3> %scf
|  4>  ConvForced true
|  5>  convergence tight
|  6>  MaxIter 500
|  7> end
|  8>
|  9> %tddft
| 10>  nroots 1
| 11> end
| 12>
| 13> # 	1563
| 14> * xyz 0 1
| 15> 		C   -1.210526  -0.333907  -0.030463
| 16> 		O   -1.372234  -1.440632   0.385890
| 17> 		C   -0.051287   0.435930   0.149937
| 18> 		C    1.220677   0.054926  -0.005017
| 19> 		H   -2.070569   0.071259  -0.536650
| 20> 		H   -0.120532   1.576751   0.215811
| 21> 		H    1.427898  -0.974127  -0.350380
| 22> 		H    2.218590   0.652194   0.169248
| 23> *
| 24>
| 25>                          ****END OF INPUT****

CARTESIAN COORDINATES (ANGSTROEM)
---------------------------------
  C     -1.210526   -0.333907   -0.030463
  O     -1.372234   -1.440632    0.385890
  C     -0.051287    0.435930    0.149937
  C      1.220677    0.054926   -0.005017
  H     -2.070569    0.071259   -0.536650
  H     -0.120532    1.576751    0.215811
  H      1.427898   -0.974127   -0.350380
  H      2.218590    0.652194    0.169248

 Total Charge           Charge          ....    0
 Multiplicity           Mult            ....    1
 Number of Electrons    NEL             ....   30
 Basis Dimension        Dim             ....   24

ORBITAL ENERGIES
----------------

  NO   OCC          E(Eh)            E(eV)
   0   2.0000     -20.364953      -554.1585
   1   2.0000     -11.302340      -307.5523
   2   2.0000     -11.190792      -304.5169
   3   2.0000     -11.187725      -304.4335
   4   2.0000      -1.415486       -38.5173
   5   2.0000      -1.079624       -29.3781
   6   2.0000      -0.897015       -24.4090
   7   2.0000      -0.751683       -20.4543
   8   2.0000      -0.703822       -19.1520
   9   2.0000      -0.617612       -16.8061
  10   2.0000      -0.603156       -16.4127
  11   2.0000      -0.535607       -14.5746
  12   2.0000      -0.504040       -13.7156
  13   2.0000      -0.418273       -11.3818
  14   2.0000      -0.388968       -10.5844
  15   0.0000       0.138032         3.7560
  16   0.0000       0.294611         8.0168
  17   0.0000       0.506550        13.7839
  18   0.0000       0.618773        16.8377
  19   0.0000       0.651186        17.7197

MULLIKEN ATOMIC CHARGES
-----------------------
   0 C :    0.147391
   1 O :   -0.346546
   2 C :   -0.186920
   3 C :   -0.194276
   4 H :    0.140958
   5 H :    0.149814
   6 H :    0.139352
   7 H :    0.150228
Sum of atomic charges:    0.0000000

LOEWDIN ATOMIC CHARGES
----------------------
   0 C :    0.133105
   1 O :   -0.249796
   2 C :   -0.148991
   3 C :   -0.105046
   4 H :    0.073839
   5 H :    0.102913
   6 H :    0.089035
   7 H :    0.104942

  Mayer bond orders larger than 0.100000
B(  0-C ,  1-O ) :   1.8921 B(  0-C ,  2-C ) :   1.0539 B(  0-C ,  4-H ) :   0.9253
B(  2-C ,  3-C ) :   1.9381 B(  2-C ,  5-H ) :   0.9452 B(  3-C ,  6-H ) :   0.9633
B(  3-C ,  7-H ) :   0.9617

-----------------------------------------------------------------------------
         ABSORPTION SPECTRUM VIA TRANSITION ELECTRIC DIPOLE MOMENTS
-----------------------------------------------------------------------------
State   Energy    Wavelength  fosc         T2        TX        TY        TZ
        (cm-1)      (nm)                 (au**2)    (au)      (au)      (au)
-----------------------------------------------------------------------------
   1   33016.5    302.9   0.000162636   0.00162   0.03777   0.01249  -0.00623

Dispersion correction           -0.025336543
FINAL SINGLE POINT ENERGY      -189.312909125523

DIPOLE MOMENT
-------------
                                X             Y             Z
Electronic contribution:     -2.22830      -1.64524       0.56198
Nuclear contribution   :      2.75507       2.55515      -0.93849
                        -----------------------------------------
Total Dipole Moment    :      0.52676       0.90991      -0.37651
                        -----------------------------------------
Magnitude (a.u.)       :      1.11677
Magnitude (Debye)      :      2.83861

Rotational constants in cm-1:     0.887424     0.192119     0.162713
Rotational constants in MHz : 26604.314222  5759.584440  4877.998509

                             ****ORCA TERMINATED NORMALLY****
TOTAL RUN TIME: 0 days 0 hours 0 minutes 13 seconds 140 msec
