                         Program Version 5.0.3 -  RELEASE  -
|  1> ! HF-3c
|  2> !TightSCF
|  3> %scf
|  4>  ConvForced true
|  5>  convergence tight
|  6>  MaxIter 500
|  7> end
|  8>
|  9> %tddft
| 10>  nroots 1
| 11> end
| 12>
| 13> # 	1453
| 14> * xyz 0 1
| 15> 		C   -1.220553  -0.325129  -0.034655
| 16> 		O   -1.940343  -0.618546  -0.837687
| 17> 		C   -0.057426   0.505660  -0.292079
| 18> 		C    1.197236   0.006746   0.241098
| 19> 		H   -1.299274  -0.757666   0.922911
| 20> 		H   -0.007021   1.513871  -1.027780
| 21> 		H    1.263585  -0.905658   0.964011
| 22> 		H    2.060407   0.615557   0.070991
| 23> *
| 24>
| 25>                          ****END OF INPUT****

CARTESIAN COORDINATES (ANGSTROEM)
---------------------------------
  C     -1.220553   -0.325129   -0.034655
  O     -1.940343   -0.618546   -0.837687
  C     -0.057426    0.505660   -0.292079
  C      1.197236    0.006746    0.241098
  H     -1.299274   -0.757666    0.922911
  H     -0.007021    1.513871   -1.027780
  H      1.263585   -0.905658    0.964011
  H      2.060407    0.615557    0.070991

 Total Charge           Charge          ....    0
 Multiplicity           Mult            ....    1
 Number of Electrons    NEL             ....   30
 Basis Dimension        Dim             ....   24

ORBITAL ENERGIES
----------------

  NO   OCC          E(Eh)            E(eV)
   0   2.0000     -20.391773      -554.8884
   1   2.0000     -11.324236      -308.1481
   2   2.0000     -11.172983      -304.0323
   3   2.0000     -11.169587      -303.9399
   4   2.0000      -1.479722       -40.2653
   5   2.0000      -1.042983       -28.3810
   6   2.0000      -0.868467       -23.6322
   7   2.0000      -0.782943       -21.3050
   8   2.0000      -0.664597       -18.0846
   9   2.0000      -0.640851       -17.4384
  10   2.0000      -0.599143       -16.3035
  11   2.0000      -0.558472       -15.1968
  12   2.0000      -0.514546       -14.0015
  13   2.0000      -0.408666       -11.1204
  14   2.0000      -0.360775        -9.8172
  15   0.0000       0.146668         3.9910
  16   0.0000       0.280851         7.6423
  17   0.0000       0.481375        13.0989
  18   0.0000       0.569705        15.5025
  19   0.0000       0.666248        18.1295

MULLIKEN ATOMIC CHARGES
-----------------------
   0 C :    0.171966
   1 O :   -0.362667
   2 C :   -0.144329
   3 C :   -0.229695
   4 H :    0.134257
   5 H :    0.158728
   6 H :    0.138539
   7 H :    0.133200
Sum of atomic charges:    0.0000000

LOEWDIN ATOMIC CHARGES
----------------------
   0 C :    0.137297
   1 O :   -0.235817
   2 C :   -0.122003
   3 C :   -0.140316
   4 H :    0.063001
   5 H :    0.118025
   6 H :    0.095929
   7 H :    0.083884

  Mayer bond orders larger than 0.100000
B(  0-C ,  1-O ) :   1.9122 B(  0-C ,  2-C ) :   1.0143 B(  0-C ,  4-H ) :   0.9147
B(  2-C ,  3-C ) :   1.9417 B(  2-C ,  5-H ) :   0.9489 B(  3-C ,  6-H ) :   0.9655
B(  3-C ,  7-H ) :   0.9704

-----------------------------------------------------------------------------
         ABSORPTION SPECTRUM VIA TRANSITION ELECTRIC DIPOLE MOMENTS
-----------------------------------------------------------------------------
State   Energy    Wavelength  fosc         T2        TX        TY        TZ
        (cm-1)      (nm)                 (au**2)    (au)      (au)      (au)
-----------------------------------------------------------------------------
   1   38260.4    261.4   0.000261948   0.00225   0.04158  -0.00233   0.02280

Dispersion correction           -0.025013463
FINAL SINGLE POINT ENERGY      -189.247613070505

DIPOLE MOMENT
-------------
                                X             Y             Z
Electronic contribution:     -3.08832      -0.61522      -1.18401
Nuclear contribution   :      3.87888       0.91043       1.76698
                        -----------------------------------------
Total Dipole Moment    :      0.79056       0.29521       0.58297
                        -----------------------------------------
Magnitude (a.u.)       :      1.02566
Magnitude (Debye)      :      2.60703

Rotational constants in cm-1:     1.157345     0.165635     0.153263
Rotational constants in MHz : 34696.343989  4965.599431  4594.717250

                             ****ORCA TERMINATED NORMALLY****
TOTAL RUN TIME: 0 days 0 hours 0 minutes 16 seconds 77 msec
