                         Program Version 5.0.3 -  RELEASE  -
|  1> ! HF-3c
|  2> !TightSCF
|  3> %scf
|  4>  ConvForced true
|  5>  convergence tight
|  6>  MaxIter 500
|  7> end
|  8>
|  9> %tddft
| 10>  nroots 1
| 11> end
| 12>
| 13> # 	15627
| 14> * xyz 0 1
| 15> 		C   -1.166165  -0.336095  -0.066415
| 16> 		O   -1.439605  -1.314971  -0.662727
| 17> 		C    0.028042   0.526510  -0.209850
| 18> 		C    1.243597  -0.016110   0.149840
| 19> 		H   -1.916207   0.023361   0.891743
| 20> 		H   -0.155771   1.561716  -0.669299
| 21> 		H    1.362752  -0.949426   0.535118
| 22> 		H    2.085356   0.572767   0.126473
| 23> *
| 24>
| 25>                          ****END OF INPUT****

CARTESIAN COORDINATES (ANGSTROEM)
---------------------------------
  C     -1.166165   -0.336095   -0.066415
  O     -1.439605   -1.314971   -0.662727
  C      0.028042    0.526510   -0.209850
  C      1.243597   -0.016110    0.149840
  H     -1.916207    0.023361    0.891743
  H     -0.155771    1.561716   -0.669299
  H      1.362752   -0.949426    0.535118
  H      2.085356    0.572767    0.126473

 Total Charge           Charge          ....    0
 Multiplicity           Mult            ....    1
 Number of Electrons    NEL             ....   30
 Basis Dimension        Dim             ....   24

ORBITAL ENERGIES
----------------

  NO   OCC          E(Eh)            E(eV)
   0   2.0000     -20.381780      -554.6164
   1   2.0000     -11.303229      -307.5765
   2   2.0000     -11.197150      -304.6900
   3   2.0000     -11.183918      -304.3299
   4   2.0000      -1.427077       -38.8327
   5   2.0000      -1.071649       -29.1610
   6   2.0000      -0.887414       -24.1477
   7   2.0000      -0.740106       -20.1393
   8   2.0000      -0.683577       -18.6011
   9   2.0000      -0.629854       -17.1392
  10   2.0000      -0.616298       -16.7703
  11   2.0000      -0.564027       -15.3480
  12   2.0000      -0.517164       -14.0727
  13   2.0000      -0.402848       -10.9620
  14   2.0000      -0.383441       -10.4340
  15   0.0000       0.172983         4.7071
  16   0.0000       0.225809         6.1446
  17   0.0000       0.496874        13.5206
  18   0.0000       0.572124        15.5683
  19   0.0000       0.639565        17.4035

MULLIKEN ATOMIC CHARGES
-----------------------
   0 C :    0.197659
   1 O :   -0.357489
   2 C :   -0.146006
   3 C :   -0.259526
   4 H :    0.120912
   5 H :    0.158028
   6 H :    0.145369
   7 H :    0.141053
Sum of atomic charges:    0.0000000

LOEWDIN ATOMIC CHARGES
----------------------
   0 C :    0.155417
   1 O :   -0.249762
   2 C :   -0.104586
   3 C :   -0.157844
   4 H :    0.070614
   5 H :    0.109491
   6 H :    0.089475
   7 H :    0.087194

  Mayer bond orders larger than 0.100000
B(  0-C ,  1-O ) :   1.9511 B(  0-C ,  2-C ) :   0.9955 B(  0-C ,  4-H ) :   0.8899
B(  2-C ,  3-C ) :   1.9756 B(  2-C ,  5-H ) :   0.9500 B(  3-C ,  6-H ) :   0.9684
B(  3-C ,  7-H ) :   0.9680

-----------------------------------------------------------------------------
         ABSORPTION SPECTRUM VIA TRANSITION ELECTRIC DIPOLE MOMENTS
-----------------------------------------------------------------------------
State   Energy    Wavelength  fosc         T2        TX        TY        TZ
        (cm-1)      (nm)                 (au**2)    (au)      (au)      (au)
-----------------------------------------------------------------------------
   1   36558.0    273.5   0.000101006   0.00091  -0.02870   0.00344  -0.00860

Dispersion correction           -0.024987719
FINAL SINGLE POINT ENERGY      -189.288977418912

DIPOLE MOMENT
-------------
                                X             Y             Z
Electronic contribution:     -2.31579      -1.45462      -1.08878
Nuclear contribution   :      2.63918       2.30548       1.57426
                        -----------------------------------------
Total Dipole Moment    :      0.32339       0.85087       0.48548
                        -----------------------------------------
Magnitude (a.u.)       :      1.03162
Magnitude (Debye)      :      2.62217

Rotational constants in cm-1:     0.837391     0.182755     0.161787
Rotational constants in MHz : 25104.345537  5478.860279  4850.244901

                             ****ORCA TERMINATED NORMALLY****
TOTAL RUN TIME: 0 days 0 hours 0 minutes 15 seconds 904 msec
