                         Program Version 5.0.3 -  RELEASE  -
|  1> ! HF-3c
|  2> !TightSCF
|  3> %scf
|  4>  ConvForced true
|  5>  convergence tight
|  6>  MaxIter 500
|  7> end
|  8>
|  9> %tddft
| 10>  nroots 1
| 11> end
| 12>
| 13> # 	10404
| 14> * xyz 0 1
| 15> 		C   -1.240377  -0.355769  -0.060816
| 16> 		O   -1.392375  -1.438794   0.518579
| 17> 		C    0.001941   0.511328   0.139216
| 18> 		C    1.248544   0.016487  -0.126007
| 19> 		H   -1.999099  -0.001403  -0.705220
| 20> 		H   -0.077336   1.487982   0.462609
| 21> 		H    1.424509  -0.943968  -0.457485
| 22> 		H    2.069549   0.725952   0.154789
| 23> *
| 24>
| 25>                          ****END OF INPUT****

CARTESIAN COORDINATES (ANGSTROEM)
---------------------------------
  C     -1.240377   -0.355769   -0.060816
  O     -1.392375   -1.438794    0.518579
  C      0.001941    0.511328    0.139216
  C      1.248544    0.016487   -0.126007
  H     -1.999099   -0.001403   -0.705220
  H     -0.077336    1.487982    0.462609
  H      1.424509   -0.943968   -0.457485
  H      2.069549    0.725952    0.154789

 Total Charge           Charge          ....    0
 Multiplicity           Mult            ....    1
 Number of Electrons    NEL             ....   30
 Basis Dimension        Dim             ....   24

ORBITAL ENERGIES
----------------

  NO   OCC          E(Eh)            E(eV)
   0   2.0000     -20.370325      -554.3047
   1   2.0000     -11.295292      -307.3605
   2   2.0000     -11.189290      -304.4761
   3   2.0000     -11.184143      -304.3360
   4   2.0000      -1.387502       -37.7558
   5   2.0000      -1.068223       -29.0678
   6   2.0000      -0.887274       -24.1440
   7   2.0000      -0.774791       -21.0831
   8   2.0000      -0.699792       -19.0423
   9   2.0000      -0.609089       -16.5742
  10   2.0000      -0.604315       -16.4442
  11   2.0000      -0.557327       -15.1656
  12   2.0000      -0.501617       -13.6497
  13   2.0000      -0.418638       -11.3917
  14   2.0000      -0.393162       -10.6985
  15   0.0000       0.151282         4.1166
  16   0.0000       0.236736         6.4419
  17   0.0000       0.547394        14.8953
  18   0.0000       0.624928        17.0052
  19   0.0000       0.696596        18.9553

MULLIKEN ATOMIC CHARGES
-----------------------
   0 C :    0.153073
   1 O :   -0.334635
   2 C :   -0.167706
   3 C :   -0.232270
   4 H :    0.141999
   5 H :    0.145450
   6 H :    0.147511
   7 H :    0.146579
Sum of atomic charges:    0.0000000

LOEWDIN ATOMIC CHARGES
----------------------
   0 C :    0.146597
   1 O :   -0.246991
   2 C :   -0.119260
   3 C :   -0.135343
   4 H :    0.074693
   5 H :    0.089478
   6 H :    0.091621
   7 H :    0.099205

  Mayer bond orders larger than 0.100000
B(  0-C ,  1-O ) :   1.9386 B(  0-C ,  2-C ) :   0.9947 B(  0-C ,  4-H ) :   0.9306
B(  2-C ,  3-C ) :   1.9776 B(  2-C ,  5-H ) :   0.9593 B(  3-C ,  6-H ) :   0.9675
B(  3-C ,  7-H ) :   0.9639

-----------------------------------------------------------------------------
         ABSORPTION SPECTRUM VIA TRANSITION ELECTRIC DIPOLE MOMENTS
-----------------------------------------------------------------------------
State   Energy    Wavelength  fosc         T2        TX        TY        TZ
        (cm-1)      (nm)                 (au**2)    (au)      (au)      (au)
-----------------------------------------------------------------------------
   1   32235.1    310.2   0.000005255   0.00005   0.00459   0.00145  -0.00552

Dispersion correction           -0.025061724
FINAL SINGLE POINT ENERGY      -189.331592241168

DIPOLE MOMENT
-------------
                                X             Y             Z
Electronic contribution:     -2.36024      -1.64791       0.57041
Nuclear contribution   :      2.70219       2.49096      -0.98610
                        -----------------------------------------
Total Dipole Moment    :      0.34195       0.84304      -0.41569
                        -----------------------------------------
Magnitude (a.u.)       :      1.00023
Magnitude (Debye)      :      2.54237

Rotational constants in cm-1:     0.816010     0.181760     0.157261
Rotational constants in MHz : 24463.371838  5449.014818  4714.567107

                             ****ORCA TERMINATED NORMALLY****
TOTAL RUN TIME: 0 days 0 hours 0 minutes 12 seconds 346 msec
