                         Program Version 5.0.3 -  RELEASE  -
|  1> ! B3LYP cc-pVDZ
|  2> !TightSCF
|  3> %scf
|  4>  ConvForced true
|  5>  convergence tight
|  6>  MaxIter 500
|  7> end
|  8>
|  9> %tddft
| 10>  nroots 1
| 11> end
| 12>
| 13> # 	10621
| 14> * xyz 0 1
| 15> 		C   -1.213536  -0.323697  -0.123610
| 16> 		O   -1.177581  -1.533635  -0.103073
| 17> 		C   -0.021544   0.448766  -0.030126
| 18> 		C    1.156225  -0.057350  -0.066680
| 19> 		H   -2.033766   0.426234   0.138553
| 20> 		H   -0.256379   1.578651   0.098412
| 21> 		H    1.256303  -1.118770   0.010534
| 22> 		H    2.262072   0.573540   0.061058
| 23> *
| 24>
| 25>                          ****END OF INPUT****

CARTESIAN COORDINATES (ANGSTROEM)
---------------------------------
  C     -1.213536   -0.323697   -0.123610
  O     -1.177581   -1.533635   -0.103073
  C     -0.021544    0.448766   -0.030126
  C      1.156225   -0.057350   -0.066680
  H     -2.033766    0.426234    0.138553
  H     -0.256379    1.578651    0.098412
  H      1.256303   -1.118770    0.010534
  H      2.262072    0.573540    0.061058

 Total Charge           Charge          ....    0
 Multiplicity           Mult            ....    1
 Number of Electrons    NEL             ....   30
 Basis Dimension        Dim             ....   76

ORBITAL ENERGIES
----------------

  NO   OCC          E(Eh)            E(eV)
   0   2.0000     -19.144097      -520.9374
   1   2.0000     -10.275507      -279.6108
   2   2.0000     -10.219249      -278.0799
   3   2.0000     -10.197913      -277.4993
   4   2.0000      -1.052003       -28.6264
   5   2.0000      -0.808247       -21.9935
   6   2.0000      -0.668108       -18.1801
   7   2.0000      -0.527181       -14.3453
   8   2.0000      -0.499446       -13.5906
   9   2.0000      -0.457458       -12.4481
  10   2.0000      -0.415294       -11.3007
  11   2.0000      -0.406022       -11.0484
  12   2.0000      -0.362315        -9.8591
  13   2.0000      -0.295007        -8.0275
  14   2.0000      -0.259109        -7.0507
  15   0.0000      -0.074920        -2.0387
  16   0.0000       0.038718         1.0536
  17   0.0000       0.069216         1.8835
  18   0.0000       0.076963         2.0943
  19   0.0000       0.131744         3.5849

MULLIKEN ATOMIC CHARGES
-----------------------
   0 C :    0.182174
   1 O :   -0.187042
   2 C :   -0.105681
   3 C :    0.032770
   4 H :   -0.015273
   5 H :   -0.000525
   6 H :    0.033835
   7 H :    0.059741
Sum of atomic charges:    0.0000000

LOEWDIN ATOMIC CHARGES
----------------------
   0 C :   -0.050560
   1 O :    0.007218
   2 C :   -0.103376
   3 C :    0.017247
   4 H :    0.002331
   5 H :    0.039401
   6 H :    0.028335
   7 H :    0.059404

  Mayer bond orders larger than 0.100000
B(  0-C ,  1-O ) :   2.1871 B(  0-C ,  2-C ) :   1.0880 B(  0-C ,  4-H ) :   0.9043
B(  2-C ,  3-C ) :   1.9602 B(  2-C ,  5-H ) :   0.9358 B(  3-C ,  6-H ) :   0.9166
B(  3-C ,  7-H ) :   0.9366

-----------------------------------------------------------------------------
         ABSORPTION SPECTRUM VIA TRANSITION ELECTRIC DIPOLE MOMENTS
-----------------------------------------------------------------------------
State   Energy    Wavelength  fosc         T2        TX        TY        TZ
        (cm-1)      (nm)                 (au**2)    (au)      (au)      (au)
-----------------------------------------------------------------------------
   1   27292.5    366.4   0.000369540   0.00446  -0.00274   0.03990   0.05346

FINAL SINGLE POINT ENERGY      -191.644734932195

DIPOLE MOMENT
-------------
                                X             Y             Z
Electronic contribution:     -2.00393      -2.02694      -0.48287
Nuclear contribution   :      2.38138       2.84206       0.55578
                        -----------------------------------------
Total Dipole Moment    :      0.37746       0.81512       0.07290
                        -----------------------------------------
Magnitude (a.u.)       :      0.90123
Magnitude (Debye)      :      2.29074

Rotational constants in cm-1:     0.761766     0.222617     0.172623
Rotational constants in MHz : 22837.183672  6673.901529  5175.119031

                             ****ORCA TERMINATED NORMALLY****
TOTAL RUN TIME: 0 days 0 hours 3 minutes 25 seconds 971 msec
