                         Program Version 5.0.3 -  RELEASE  -
|  1> ! HF-3c
|  2> !TightSCF
|  3> %scf
|  4>  ConvForced true
|  5>  convergence tight
|  6>  MaxIter 500
|  7> end
|  8>
|  9> %tddft
| 10>  nroots 1
| 11> end
| 12>
| 13> # 	27939
| 14> * xyz 0 1
| 15> 		C   -0.622356  -0.468823   0.018781
| 16> 		O   -0.592995  -1.622356  -0.001642
| 17> 		C    0.651821   0.407037  -0.084501
| 18> 		C    1.881556  -0.079383   0.038808
| 19> 		H   -1.696226   0.121352   0.074309
| 20> 		H    0.434807   1.280397   0.351759
| 21> 		H    1.972476  -1.199403  -0.001997
| 22> 		H    2.846847   0.467134  -0.067122
| 23> *
| 24>
| 25>                          ****END OF INPUT****

CARTESIAN COORDINATES (ANGSTROEM)
---------------------------------
  C     -0.622356   -0.468823    0.018781
  O     -0.592995   -1.622356   -0.001642
  C      0.651821    0.407037   -0.084501
  C      1.881556   -0.079383    0.038808
  H     -1.696226    0.121352    0.074309
  H      0.434807    1.280397    0.351759
  H      1.972476   -1.199403   -0.001997
  H      2.846847    0.467134   -0.067122

 Total Charge           Charge          ....    0
 Multiplicity           Mult            ....    1
 Number of Electrons    NEL             ....   30
 Basis Dimension        Dim             ....   24

ORBITAL ENERGIES
----------------

  NO   OCC          E(Eh)            E(eV)
   0   2.0000     -20.381309      -554.6036
   1   2.0000     -11.304475      -307.6104
   2   2.0000     -11.191822      -304.5450
   3   2.0000     -11.177634      -304.1589
   4   2.0000      -1.444158       -39.2975
   5   2.0000      -1.073303       -29.2061
   6   2.0000      -0.868760       -23.6402
   7   2.0000      -0.739372       -20.1193
   8   2.0000      -0.699289       -19.0286
   9   2.0000      -0.618746       -16.8369
  10   2.0000      -0.602333       -16.3903
  11   2.0000      -0.564585       -15.3631
  12   2.0000      -0.522777       -14.2255
  13   2.0000      -0.406476       -11.0608
  14   2.0000      -0.383756       -10.4425
  15   0.0000       0.143252         3.8981
  16   0.0000       0.295111         8.0304
  17   0.0000       0.455871        12.4049
  18   0.0000       0.601984        16.3808
  19   0.0000       0.636239        17.3130

MULLIKEN ATOMIC CHARGES
-----------------------
   0 C :    0.203779
   1 O :   -0.371332
   2 C :   -0.200714
   3 C :   -0.205318
   4 H :    0.130444
   5 H :    0.137570
   6 H :    0.152869
   7 H :    0.152703
Sum of atomic charges:    0.0000000

LOEWDIN ATOMIC CHARGES
----------------------
   0 C :    0.153821
   1 O :   -0.252921
   2 C :   -0.156894
   3 C :   -0.106003
   4 H :    0.075797
   5 H :    0.081368
   6 H :    0.102080
   7 H :    0.102752

  Mayer bond orders larger than 0.100000
B(  0-C ,  1-O ) :   1.9382 B(  0-C ,  2-C ) :   0.9730 B(  0-C ,  4-H ) :   0.9023
B(  2-C ,  3-C ) :   1.9631 B(  2-C ,  5-H ) :   0.9634 B(  3-C ,  6-H ) :   0.9566
B(  3-C ,  7-H ) :   0.9608

-----------------------------------------------------------------------------
         ABSORPTION SPECTRUM VIA TRANSITION ELECTRIC DIPOLE MOMENTS
-----------------------------------------------------------------------------
State   Energy    Wavelength  fosc         T2        TX        TY        TZ
        (cm-1)      (nm)                 (au**2)    (au)      (au)      (au)
-----------------------------------------------------------------------------
   1   36221.9    276.1   0.001424546   0.01295  -0.11255  -0.00511  -0.01594

Dispersion correction           -0.025423212
FINAL SINGLE POINT ENERGY      -189.284440963036

DIPOLE MOMENT
-------------
                                X             Y             Z
Electronic contribution:     -1.89325      -1.62196      -0.22149
Nuclear contribution   :      2.18326       2.41694       0.33417
                        -----------------------------------------
Total Dipole Moment    :      0.29001       0.79498       0.11267
                        -----------------------------------------
Magnitude (a.u.)       :      0.85369
Magnitude (Debye)      :      2.16991

Rotational constants in cm-1:     0.802272     0.199394     0.160440
Rotational constants in MHz : 24051.494851  5977.690216  4809.882593

                             ****ORCA TERMINATED NORMALLY****
TOTAL RUN TIME: 0 days 0 hours 0 minutes 11 seconds 599 msec
