                         Program Version 5.0.3 -  RELEASE  -
|  1> ! B3LYP cc-pVDZ
|  2> !TightSCF
|  3> %scf
|  4>  ConvForced true
|  5>  convergence tight
|  6>  MaxIter 500
|  7> end
|  8>
|  9> %tddft
| 10>  nroots 1
| 11> end
| 12>
| 13> # 	31959
| 14> * xyz 0 1
| 15> 		C   -0.587047  -0.444630   0.028442
| 16> 		O   -0.637925  -1.677734  -0.008868
| 17> 		C    0.626718   0.402780  -0.069419
| 18> 		C    1.944335  -0.069051   0.034997
| 19> 		H   -1.675401   0.135861   0.224490
| 20> 		H    0.371448   1.483978  -0.037172
| 21> 		H    2.083770  -1.167472  -0.214336
| 22> 		H    2.672056   0.752890   0.250338
| 23> *
| 24>
| 25>                          ****END OF INPUT****

CARTESIAN COORDINATES (ANGSTROEM)
---------------------------------
  C     -0.587047   -0.444630    0.028442
  O     -0.637925   -1.677734   -0.008868
  C      0.626718    0.402780   -0.069419
  C      1.944335   -0.069051    0.034997
  H     -1.675401    0.135861    0.224490
  H      0.371448    1.483978   -0.037172
  H      2.083770   -1.167472   -0.214336
  H      2.672056    0.752890    0.250338

 Total Charge           Charge          ....    0
 Multiplicity           Mult            ....    1
 Number of Electrons    NEL             ....   30
 Basis Dimension        Dim             ....   76

ORBITAL ENERGIES
----------------

  NO   OCC          E(Eh)            E(eV)
   0   2.0000     -19.139889      -520.8229
   1   2.0000     -10.286809      -279.9183
   2   2.0000     -10.236325      -278.5446
   3   2.0000     -10.220486      -278.1136
   4   2.0000      -1.032478       -28.0952
   5   2.0000      -0.786224       -21.3942
   6   2.0000      -0.654312       -17.8047
   7   2.0000      -0.524260       -14.2658
   8   2.0000      -0.497837       -13.5468
   9   2.0000      -0.440157       -11.9773
  10   2.0000      -0.418596       -11.3906
  11   2.0000      -0.395700       -10.7675
  12   2.0000      -0.382281       -10.4024
  13   2.0000      -0.281085        -7.6487
  14   2.0000      -0.253479        -6.8975
  15   0.0000      -0.082834        -2.2540
  16   0.0000       0.041824         1.1381
  17   0.0000       0.057000         1.5510
  18   0.0000       0.074655         2.0315
  19   0.0000       0.105767         2.8781

MULLIKEN ATOMIC CHARGES
-----------------------
   0 C :    0.131521
   1 O :   -0.204645
   2 C :   -0.100627
   3 C :    0.045234
   4 H :   -0.006629
   5 H :    0.007770
   6 H :    0.069561
   7 H :    0.057814
Sum of atomic charges:    0.0000000

LOEWDIN ATOMIC CHARGES
----------------------
   0 C :   -0.040804
   1 O :   -0.031396
   2 C :   -0.081645
   3 C :    0.021884
   4 H :    0.003106
   5 H :    0.030876
   6 H :    0.052199
   7 H :    0.045779

  Mayer bond orders larger than 0.100000
B(  0-C ,  1-O ) :   2.1558 B(  0-C ,  2-C ) :   1.0589 B(  0-C ,  4-H ) :   0.8898
B(  2-C ,  3-C ) :   1.9170 B(  2-C ,  5-H ) :   0.9433 B(  3-C ,  6-H ) :   0.9317
B(  3-C ,  7-H ) :   0.9386

-----------------------------------------------------------------------------
         ABSORPTION SPECTRUM VIA TRANSITION ELECTRIC DIPOLE MOMENTS
-----------------------------------------------------------------------------
State   Energy    Wavelength  fosc         T2        TX        TY        TZ
        (cm-1)      (nm)                 (au**2)    (au)      (au)      (au)
-----------------------------------------------------------------------------
   1   25313.6    395.0   0.000452955   0.00589   0.06852  -0.00037   0.03458

FINAL SINGLE POINT ENERGY      -191.671507453158

DIPOLE MOMENT
-------------
                                X             Y             Z
Electronic contribution:     -1.51949      -2.00359      -0.18095
Nuclear contribution   :      2.07970       2.91759       0.20862
                        -----------------------------------------
Total Dipole Moment    :      0.56020       0.91400       0.02767
                        -----------------------------------------
Magnitude (a.u.)       :      1.07238
Magnitude (Debye)      :      2.72576

Rotational constants in cm-1:     0.753733     0.189715     0.152235
Rotational constants in MHz : 22596.343886  5687.518672  4563.900601

                             ****ORCA TERMINATED NORMALLY****
TOTAL RUN TIME: 0 days 0 hours 3 minutes 21 seconds 334 msec
