                         Program Version 5.0.3 -  RELEASE  -
|  1> ! B3LYP cc-pVDZ
|  2> !TightSCF
|  3> %scf
|  4>  ConvForced true
|  5>  convergence tight
|  6>  MaxIter 500
|  7> end
|  8>
|  9> %tddft
| 10>  nroots 1
| 11> end
| 12>
| 13> # 	7683
| 14> * xyz 0 1
| 15> 		C   -1.135292  -0.248709  -0.075090
| 16> 		O   -1.168484  -1.428809   0.251956
| 17> 		C   -0.004671   0.575221   0.070407
| 18> 		C    1.189564  -0.070812  -0.136923
| 19> 		H   -2.084970   0.140863  -0.346809
| 20> 		H   -0.108019   1.617387   0.254197
| 21> 		H    1.109854  -1.133991  -0.103798
| 22> 		H    2.156440   0.589230   0.033570
| 23> *
| 24>
| 25>                          ****END OF INPUT****

CARTESIAN COORDINATES (ANGSTROEM)
---------------------------------
  C     -1.135292   -0.248709   -0.075090
  O     -1.168484   -1.428809    0.251956
  C     -0.004671    0.575221    0.070407
  C      1.189564   -0.070812   -0.136923
  H     -2.084970    0.140863   -0.346809
  H     -0.108019    1.617387    0.254197
  H      1.109854   -1.133991   -0.103798
  H      2.156440    0.589230    0.033570

 Total Charge           Charge          ....    0
 Multiplicity           Mult            ....    1
 Number of Electrons    NEL             ....   30
 Basis Dimension        Dim             ....   76

ORBITAL ENERGIES
----------------

  NO   OCC          E(Eh)            E(eV)
   0   2.0000     -19.128644      -520.5169
   1   2.0000     -10.261805      -279.2379
   2   2.0000     -10.221610      -278.1442
   3   2.0000     -10.203235      -277.6441
   4   2.0000      -1.036309       -28.1994
   5   2.0000      -0.801172       -21.8010
   6   2.0000      -0.659079       -17.9345
   7   2.0000      -0.546015       -14.8578
   8   2.0000      -0.520343       -14.1593
   9   2.0000      -0.440439       -11.9849
  10   2.0000      -0.419383       -11.4120
  11   2.0000      -0.392743       -10.6871
  12   2.0000      -0.381609       -10.3841
  13   2.0000      -0.282313        -7.6821
  14   2.0000      -0.250172        -6.8075
  15   0.0000      -0.071128        -1.9355
  16   0.0000       0.038171         1.0387
  17   0.0000       0.065755         1.7893
  18   0.0000       0.096149         2.6163
  19   0.0000       0.127016         3.4563

MULLIKEN ATOMIC CHARGES
-----------------------
   0 C :    0.203243
   1 O :   -0.221799
   2 C :   -0.064479
   3 C :    0.035414
   4 H :   -0.034961
   5 H :   -0.011595
   6 H :    0.040737
   7 H :    0.053441
Sum of atomic charges:    0.0000000

LOEWDIN ATOMIC CHARGES
----------------------
   0 C :   -0.033663
   1 O :   -0.024845
   2 C :   -0.062523
   3 C :    0.027279
   4 H :   -0.006817
   5 H :    0.024399
   6 H :    0.026412
   7 H :    0.049756

  Mayer bond orders larger than 0.100000
B(  0-C ,  1-O ) :   2.1271 B(  0-C ,  2-C ) :   1.0927 B(  0-C ,  4-H ) :   0.9421
B(  2-C ,  3-C ) :   1.9273 B(  2-C ,  5-H ) :   0.9513 B(  3-C ,  6-H ) :   0.9230
B(  3-C ,  7-H ) :   0.9445

-----------------------------------------------------------------------------
         ABSORPTION SPECTRUM VIA TRANSITION ELECTRIC DIPOLE MOMENTS
-----------------------------------------------------------------------------
State   Energy    Wavelength  fosc         T2        TX        TY        TZ
        (cm-1)      (nm)                 (au**2)    (au)      (au)      (au)
-----------------------------------------------------------------------------
   1   26610.0    375.8   0.000039712   0.00049   0.00561  -0.00592  -0.02061

FINAL SINGLE POINT ENERGY      -191.663833603229

DIPOLE MOMENT
-------------
                                X             Y             Z
Electronic contribution:     -1.77044      -1.43060       0.14738
Nuclear contribution   :      2.13320       2.36491      -0.29461
                        -----------------------------------------
Total Dipole Moment    :      0.36276       0.93431      -0.14722
                        -----------------------------------------
Magnitude (a.u.)       :      1.01302
Magnitude (Debye)      :      2.57489

Rotational constants in cm-1:     0.742664     0.225184     0.176422
Rotational constants in MHz : 22264.520517  6750.833095  5289.006010

                             ****ORCA TERMINATED NORMALLY****
TOTAL RUN TIME: 0 days 0 hours 2 minutes 50 seconds 708 msec
