                         Program Version 5.0.3 -  RELEASE  -
|  1> ! HF-3c
|  2> !TightSCF
|  3> %scf
|  4>  ConvForced true
|  5>  convergence tight
|  6>  MaxIter 500
|  7> end
|  8>
|  9> %tddft
| 10>  nroots 1
| 11> end
| 12>
| 13> # 	21056
| 14> * xyz 0 1
| 15> 		C   -0.591432  -0.398867   0.030077
| 16> 		O   -0.557430  -1.610777  -0.003721
| 17> 		C    0.605523   0.357473  -0.029546
| 18> 		C    1.846956  -0.134475   0.011725
| 19> 		H   -1.551405   0.162048  -0.210471
| 20> 		H    0.611240   1.482865   0.235614
| 21> 		H    1.998925  -1.116441   0.048985
| 22> 		H    2.559370   0.403769  -0.157295
| 23> *
| 24>
| 25>                          ****END OF INPUT****

CARTESIAN COORDINATES (ANGSTROEM)
---------------------------------
  C     -0.591432   -0.398867    0.030077
  O     -0.557430   -1.610777   -0.003721
  C      0.605523    0.357473   -0.029546
  C      1.846956   -0.134475    0.011725
  H     -1.551405    0.162048   -0.210471
  H      0.611240    1.482865    0.235614
  H      1.998925   -1.116441    0.048985
  H      2.559370    0.403769   -0.157295

 Total Charge           Charge          ....    0
 Multiplicity           Mult            ....    1
 Number of Electrons    NEL             ....   30
 Basis Dimension        Dim             ....   24

ORBITAL ENERGIES
----------------

  NO   OCC          E(Eh)            E(eV)
   0   2.0000     -20.370704      -554.3150
   1   2.0000     -11.300984      -307.5154
   2   2.0000     -11.200932      -304.7929
   3   2.0000     -11.198111      -304.7161
   4   2.0000      -1.407855       -38.3097
   5   2.0000      -1.099500       -29.9189
   6   2.0000      -0.926372       -25.2079
   7   2.0000      -0.762926       -20.7603
   8   2.0000      -0.721078       -19.6215
   9   2.0000      -0.630223       -17.1492
  10   2.0000      -0.620440       -16.8830
  11   2.0000      -0.561103       -15.2684
  12   2.0000      -0.521256       -14.1841
  13   2.0000      -0.423688       -11.5291
  14   2.0000      -0.395255       -10.7554
  15   0.0000       0.109305         2.9743
  16   0.0000       0.297991         8.1087
  17   0.0000       0.565245        15.3811
  18   0.0000       0.612872        16.6771
  19   0.0000       0.723717        19.6933

MULLIKEN ATOMIC CHARGES
-----------------------
   0 C :    0.151143
   1 O :   -0.339967
   2 C :   -0.145236
   3 C :   -0.263617
   4 H :    0.142944
   5 H :    0.149457
   6 H :    0.160716
   7 H :    0.144561
Sum of atomic charges:    0.0000000

LOEWDIN ATOMIC CHARGES
----------------------
   0 C :    0.133172
   1 O :   -0.246872
   2 C :   -0.105782
   3 C :   -0.143402
   4 H :    0.081384
   5 H :    0.101692
   6 H :    0.098720
   7 H :    0.081089

  Mayer bond orders larger than 0.100000
B(  0-C ,  1-O ) :   1.8890 B(  0-C ,  2-C ) :   1.0564 B(  0-C ,  4-H ) :   0.9212
B(  2-C ,  3-C ) :   1.9261 B(  2-C ,  5-H ) :   0.9544 B(  3-C ,  6-H ) :   0.9615
B(  3-C ,  7-H ) :   0.9702

-----------------------------------------------------------------------------
         ABSORPTION SPECTRUM VIA TRANSITION ELECTRIC DIPOLE MOMENTS
-----------------------------------------------------------------------------
State   Energy    Wavelength  fosc         T2        TX        TY        TZ
        (cm-1)      (nm)                 (au**2)    (au)      (au)      (au)
-----------------------------------------------------------------------------
   1   30034.0    333.0   0.000425917   0.00467  -0.06615  -0.00013  -0.01712

Dispersion correction           -0.026287719
FINAL SINGLE POINT ENERGY      -189.289257936604

DIPOLE MOMENT
-------------
                                X             Y             Z
Electronic contribution:     -2.08593      -1.71137       0.09565
Nuclear contribution   :      2.23831       2.66138      -0.07834
                        -----------------------------------------
Total Dipole Moment    :      0.15238       0.95001       0.01732
                        -----------------------------------------
Magnitude (a.u.)       :      0.96231
Magnitude (Debye)      :      2.44600

Rotational constants in cm-1:     0.781959     0.217768     0.170854
Rotational constants in MHz : 23442.549009  6528.528357  5122.082580

                             ****ORCA TERMINATED NORMALLY****
TOTAL RUN TIME: 0 days 0 hours 0 minutes 16 seconds 126 msec
