                         Program Version 5.0.3 -  RELEASE  -
|  1> ! B3LYP cc-pVDZ
|  2> !TightSCF
|  3> %scf
|  4>  ConvForced true
|  5>  convergence tight
|  6>  MaxIter 500
|  7> end
|  8>
|  9> %tddft
| 10>  nroots 1
| 11> end
| 12>
| 13> # 	20962
| 14> * xyz 0 1
| 15> 		C   -0.581573  -0.437673   0.056692
| 16> 		O   -0.565628  -1.648861  -0.028292
| 17> 		C    0.636058   0.477238  -0.031899
| 18> 		C    1.823278  -0.178318   0.001153
| 19> 		H   -1.499954   0.168687   0.010821
| 20> 		H    0.482367   1.467076  -0.062554
| 21> 		H    1.858793  -1.158106   0.179960
| 22> 		H    2.734717   0.598319   0.005847
| 23> *
| 24>
| 25>                          ****END OF INPUT****

CARTESIAN COORDINATES (ANGSTROEM)
---------------------------------
  C     -0.581573   -0.437673    0.056692
  O     -0.565628   -1.648861   -0.028292
  C      0.636058    0.477238   -0.031899
  C      1.823278   -0.178318    0.001153
  H     -1.499954    0.168687    0.010821
  H      0.482367    1.467076   -0.062554
  H      1.858793   -1.158106    0.179960
  H      2.734717    0.598319    0.005847

 Total Charge           Charge          ....    0
 Multiplicity           Mult            ....    1
 Number of Electrons    NEL             ....   30
 Basis Dimension        Dim             ....   76

ORBITAL ENERGIES
----------------

  NO   OCC          E(Eh)            E(eV)
   0   2.0000     -19.141387      -520.8636
   1   2.0000     -10.275243      -279.6036
   2   2.0000     -10.214429      -277.9488
   3   2.0000     -10.198980      -277.5283
   4   2.0000      -1.044658       -28.4266
   5   2.0000      -0.793334       -21.5877
   6   2.0000      -0.653879       -17.7929
   7   2.0000      -0.557608       -15.1733
   8   2.0000      -0.500969       -13.6320
   9   2.0000      -0.456180       -12.4133
  10   2.0000      -0.419770       -11.4225
  11   2.0000      -0.396069       -10.7776
  12   2.0000      -0.384386       -10.4597
  13   2.0000      -0.285800        -7.7770
  14   2.0000      -0.254318        -6.9204
  15   0.0000      -0.069383        -1.8880
  16   0.0000       0.048190         1.3113
  17   0.0000       0.063389         1.7249
  18   0.0000       0.093606         2.5471
  19   0.0000       0.134759         3.6670

MULLIKEN ATOMIC CHARGES
-----------------------
   0 C :    0.189629
   1 O :   -0.196621
   2 C :   -0.077173
   3 C :    0.103948
   4 H :   -0.022398
   5 H :   -0.045217
   6 H :    0.000462
   7 H :    0.047370
Sum of atomic charges:   -0.0000000

LOEWDIN ATOMIC CHARGES
----------------------
   0 C :   -0.022342
   1 O :   -0.008899
   2 C :   -0.057658
   3 C :    0.045743
   4 H :   -0.011086
   5 H :    0.000654
   6 H :    0.000363
   7 H :    0.053225

  Mayer bond orders larger than 0.100000
B(  0-C ,  1-O ) :   2.1805 B(  0-C ,  2-C ) :   1.0493 B(  0-C ,  4-H ) :   0.9172
B(  2-C ,  3-C ) :   1.9563 B(  2-C ,  5-H ) :   0.9547 B(  3-C ,  6-H ) :   0.9308
B(  3-C ,  7-H ) :   0.9455

-----------------------------------------------------------------------------
         ABSORPTION SPECTRUM VIA TRANSITION ELECTRIC DIPOLE MOMENTS
-----------------------------------------------------------------------------
State   Energy    Wavelength  fosc         T2        TX        TY        TZ
        (cm-1)      (nm)                 (au**2)    (au)      (au)      (au)
-----------------------------------------------------------------------------
   1   27849.6    359.1   0.000086053   0.00102   0.01070   0.00310   0.02988

FINAL SINGLE POINT ENERGY      -191.654538033724

DIPOLE MOMENT
-------------
                                X             Y             Z
Electronic contribution:     -1.86135      -1.87424      -0.04641
Nuclear contribution   :      2.19677       2.79692       0.12576
                        -----------------------------------------
Total Dipole Moment    :      0.33541       0.92268       0.07935
                        -----------------------------------------
Magnitude (a.u.)       :      0.98496
Magnitude (Debye)      :      2.50356

Rotational constants in cm-1:     0.734232     0.212386     0.165058
Rotational constants in MHz : 22011.735575  6367.163837  4948.314169

                             ****ORCA TERMINATED NORMALLY****
TOTAL RUN TIME: 0 days 0 hours 3 minutes 20 seconds 237 msec
