                         Program Version 5.0.3 -  RELEASE  -
|  1> ! HF-3c
|  2> !TightSCF
|  3> %scf
|  4>  ConvForced true
|  5>  convergence tight
|  6>  MaxIter 500
|  7> end
|  8>
|  9> %tddft
| 10>  nroots 1
| 11> end
| 12>
| 13> # 	28899
| 14> * xyz 0 1
| 15> 		C   -0.599763  -0.441098  -0.022549
| 16> 		O   -0.576760  -1.615980   0.027477
| 17> 		C    0.628616   0.414806  -0.017313
| 18> 		C    1.858035  -0.159324  -0.022228
| 19> 		H   -1.496916   0.127909  -0.156767
| 20> 		H    0.436865   1.528387   0.386820
| 21> 		H    2.098887  -1.152125  -0.012512
| 22> 		H    2.599536   0.634752   0.111732
| 23> *
| 24>
| 25>                          ****END OF INPUT****

CARTESIAN COORDINATES (ANGSTROEM)
---------------------------------
  C     -0.599763   -0.441098   -0.022549
  O     -0.576760   -1.615980    0.027477
  C      0.628616    0.414806   -0.017313
  C      1.858035   -0.159324   -0.022228
  H     -1.496916    0.127909   -0.156767
  H      0.436865    1.528387    0.386820
  H      2.098887   -1.152125   -0.012512
  H      2.599536    0.634752    0.111732

 Total Charge           Charge          ....    0
 Multiplicity           Mult            ....    1
 Number of Electrons    NEL             ....   30
 Basis Dimension        Dim             ....   24

ORBITAL ENERGIES
----------------

  NO   OCC          E(Eh)            E(eV)
   0   2.0000     -20.376652      -554.4769
   1   2.0000     -11.300454      -307.5010
   2   2.0000     -11.185257      -304.3663
   3   2.0000     -11.178895      -304.1932
   4   2.0000      -1.427841       -38.8535
   5   2.0000      -1.065824       -29.0025
   6   2.0000      -0.893439       -24.3117
   7   2.0000      -0.750363       -20.4184
   8   2.0000      -0.699278       -19.0283
   9   2.0000      -0.624970       -17.0063
  10   2.0000      -0.583083       -15.8665
  11   2.0000      -0.555802       -15.1241
  12   2.0000      -0.531385       -14.4597
  13   2.0000      -0.406574       -11.0634
  14   2.0000      -0.386888       -10.5278
  15   0.0000       0.135423         3.6850
  16   0.0000       0.296801         8.0764
  17   0.0000       0.529722        14.4145
  18   0.0000       0.607664        16.5354
  19   0.0000       0.674175        18.3452

MULLIKEN ATOMIC CHARGES
-----------------------
   0 C :    0.167541
   1 O :   -0.356836
   2 C :   -0.149936
   3 C :   -0.238814
   4 H :    0.130549
   5 H :    0.142005
   6 H :    0.159691
   7 H :    0.145799
Sum of atomic charges:    0.0000000

LOEWDIN ATOMIC CHARGES
----------------------
   0 C :    0.143281
   1 O :   -0.249521
   2 C :   -0.121419
   3 C :   -0.133117
   4 H :    0.063735
   5 H :    0.099477
   6 H :    0.100390
   7 H :    0.097173

  Mayer bond orders larger than 0.100000
B(  0-C ,  1-O ) :   1.9177 B(  0-C ,  2-C ) :   1.0066 B(  0-C ,  4-H ) :   0.9242
B(  2-C ,  3-C ) :   1.9516 B(  2-C ,  5-H ) :   0.9573 B(  3-C ,  6-H ) :   0.9629
B(  3-C ,  7-H ) :   0.9645

-----------------------------------------------------------------------------
         ABSORPTION SPECTRUM VIA TRANSITION ELECTRIC DIPOLE MOMENTS
-----------------------------------------------------------------------------
State   Energy    Wavelength  fosc         T2        TX        TY        TZ
        (cm-1)      (nm)                 (au**2)    (au)      (au)      (au)
-----------------------------------------------------------------------------
   1   33872.3    295.2   0.000372886   0.00362  -0.05979  -0.00597  -0.00376

Dispersion correction           -0.025615578
FINAL SINGLE POINT ENERGY      -189.311204406696

DIPOLE MOMENT
-------------
                                X             Y             Z
Electronic contribution:     -1.99300      -1.87462      -0.23080
Nuclear contribution   :      2.25556       2.85467       0.30759
                        -----------------------------------------
Total Dipole Moment    :      0.26257       0.98005       0.07679
                        -----------------------------------------
Magnitude (a.u.)       :      1.01751
Magnitude (Debye)      :      2.58631

Rotational constants in cm-1:     0.753886     0.210527     0.165267
Rotational constants in MHz : 22600.926843  6311.448504  4954.568890

                             ****ORCA TERMINATED NORMALLY****
TOTAL RUN TIME: 0 days 0 hours 0 minutes 16 seconds 41 msec
