                         Program Version 5.0.3 -  RELEASE  -
|  1> ! B3LYP cc-pVDZ
|  2> !TightSCF
|  3> %scf
|  4>  ConvForced true
|  5>  convergence tight
|  6>  MaxIter 500
|  7> end
|  8>
|  9> %tddft
| 10>  nroots 1
| 11> end
| 12>
| 13> # 	361
| 14> * xyz 0 1
| 15> 		C   -1.235932  -0.303828   0.002595
| 16> 		O   -1.208058  -1.443997  -0.189738
| 17> 		C   -0.048228   0.579752  -0.105159
| 18> 		C    1.112815  -0.025202  -0.024644
| 19> 		H   -2.080783   0.279072   0.329111
| 20> 		H   -0.136842   1.573395  -0.226232
| 21> 		H    1.354362  -1.148098   0.143679
| 22> 		H    2.215613   0.515322   0.084237
| 23> *
| 24>
| 25>                          ****END OF INPUT****

CARTESIAN COORDINATES (ANGSTROEM)
---------------------------------
  C     -1.235932   -0.303828    0.002595
  O     -1.208058   -1.443997   -0.189738
  C     -0.048228    0.579752   -0.105159
  C      1.112815   -0.025202   -0.024644
  H     -2.080783    0.279072    0.329111
  H     -0.136842    1.573395   -0.226232
  H      1.354362   -1.148098    0.143679
  H      2.215613    0.515322    0.084237

 Total Charge           Charge          ....    0
 Multiplicity           Mult            ....    1
 Number of Electrons    NEL             ....   30
 Basis Dimension        Dim             ....   76

ORBITAL ENERGIES
----------------

  NO   OCC          E(Eh)            E(eV)
   0   2.0000     -19.137891      -520.7685
   1   2.0000     -10.268160      -279.4108
   2   2.0000     -10.221967      -278.1539
   3   2.0000     -10.189658      -277.2747
   4   2.0000      -1.078026       -29.3346
   5   2.0000      -0.797083       -21.6897
   6   2.0000      -0.648153       -17.6371
   7   2.0000      -0.549216       -14.9449
   8   2.0000      -0.510802       -13.8996
   9   2.0000      -0.454763       -12.3747
  10   2.0000      -0.436001       -11.8642
  11   2.0000      -0.410098       -11.1593
  12   2.0000      -0.356192        -9.6925
  13   2.0000      -0.290757        -7.9119
  14   2.0000      -0.254238        -6.9182
  15   0.0000      -0.054002        -1.4695
  16   0.0000       0.053039         1.4433
  17   0.0000       0.073306         1.9948
  18   0.0000       0.081663         2.2222
  19   0.0000       0.126320         3.4373

MULLIKEN ATOMIC CHARGES
-----------------------
   0 C :    0.199096
   1 O :   -0.144297
   2 C :   -0.031024
   3 C :   -0.034094
   4 H :   -0.042147
   5 H :   -0.043898
   6 H :    0.055949
   7 H :    0.040416
Sum of atomic charges:   -0.0000000

LOEWDIN ATOMIC CHARGES
----------------------
   0 C :   -0.058777
   1 O :    0.054551
   2 C :   -0.077868
   3 C :    0.004699
   4 H :   -0.017123
   5 H :    0.007723
   6 H :    0.044041
   7 H :    0.042753

  Mayer bond orders larger than 0.100000
B(  0-C ,  1-O ) :   2.2748 B(  0-C ,  2-C ) :   1.0265 B(  0-C ,  4-H ) :   0.9137
B(  2-C ,  3-C ) :   1.9537 B(  2-C ,  5-H ) :   0.9446 B(  3-C ,  6-H ) :   0.9415
B(  3-C ,  7-H ) :   0.9480

-----------------------------------------------------------------------------
         ABSORPTION SPECTRUM VIA TRANSITION ELECTRIC DIPOLE MOMENTS
-----------------------------------------------------------------------------
State   Energy    Wavelength  fosc         T2        TX        TY        TZ
        (cm-1)      (nm)                 (au**2)    (au)      (au)      (au)
-----------------------------------------------------------------------------
   1   31152.7    321.0   0.000043937   0.00046   0.00957  -0.01062  -0.01613

FINAL SINGLE POINT ENERGY      -191.633919047015

DIPOLE MOMENT
-------------
                                X             Y             Z
Electronic contribution:     -2.30522      -1.61565      -0.43297
Nuclear contribution   :      2.59639       2.39043       0.59180
                        -----------------------------------------
Total Dipole Moment    :      0.29117       0.77478       0.15883
                        -----------------------------------------
Magnitude (a.u.)       :      0.84279
Magnitude (Debye)      :      2.14221

Rotational constants in cm-1:     0.756446     0.222530     0.173678
Rotational constants in MHz : 22677.666311  6671.267335  5206.741852

                             ****ORCA TERMINATED NORMALLY****
TOTAL RUN TIME: 0 days 0 hours 2 minutes 57 seconds 546 msec
