                         Program Version 5.0.3 -  RELEASE  -
|  1> ! B3LYP cc-pVDZ
|  2> !TightSCF
|  3> %scf
|  4>  ConvForced true
|  5>  convergence tight
|  6>  MaxIter 500
|  7> end
|  8>
|  9> %tddft
| 10>  nroots 1
| 11> end
| 12>
| 13> # 	13399
| 14> * xyz 0 1
| 15> 		C   -1.196728  -0.334279   0.100833
| 16> 		O   -2.220781  -0.170866   0.679837
| 17> 		C    0.091959   0.344114   0.435798
| 18> 		C    1.253465   0.040552  -0.266284
| 19> 		H   -1.153785  -1.168216  -0.874472
| 20> 		H    0.062245   1.141124   1.341217
| 21> 		H    1.243881  -0.635782  -1.133738
| 22> 		H    1.995275   0.752392  -0.282010
| 23> *
| 24>
| 25>                          ****END OF INPUT****

CARTESIAN COORDINATES (ANGSTROEM)
---------------------------------
  C     -1.196728   -0.334279    0.100833
  O     -2.220781   -0.170866    0.679837
  C      0.091959    0.344114    0.435798
  C      1.253465    0.040552   -0.266284
  H     -1.153785   -1.168216   -0.874472
  H      0.062245    1.141124    1.341217
  H      1.243881   -0.635782   -1.133738
  H      1.995275    0.752392   -0.282010

 Total Charge           Charge          ....    0
 Multiplicity           Mult            ....    1
 Number of Electrons    NEL             ....   30
 Basis Dimension        Dim             ....   76

ORBITAL ENERGIES
----------------

  NO   OCC          E(Eh)            E(eV)
   0   2.0000     -19.145867      -520.9855
   1   2.0000     -10.289104      -279.9808
   2   2.0000     -10.231073      -278.4016
   3   2.0000     -10.221276      -278.1351
   4   2.0000      -1.064215       -28.9588
   5   2.0000      -0.791438       -21.5361
   6   2.0000      -0.646804       -17.6004
   7   2.0000      -0.544384       -14.8134
   8   2.0000      -0.473515       -12.8850
   9   2.0000      -0.467940       -12.7333
  10   2.0000      -0.419176       -11.4064
  11   2.0000      -0.407299       -11.0832
  12   2.0000      -0.390545       -10.6273
  13   2.0000      -0.289695        -7.8830
  14   2.0000      -0.256787        -6.9875
  15   0.0000      -0.075421        -2.0523
  16   0.0000       0.045987         1.2514
  17   0.0000       0.050079         1.3627
  18   0.0000       0.078722         2.1421
  19   0.0000       0.101396         2.7591

MULLIKEN ATOMIC CHARGES
-----------------------
   0 C :    0.131484
   1 O :   -0.160248
   2 C :   -0.128163
   3 C :    0.064263
   4 H :   -0.022691
   5 H :    0.047506
   6 H :    0.039339
   7 H :    0.028510
Sum of atomic charges:    0.0000000

LOEWDIN ATOMIC CHARGES
----------------------
   0 C :   -0.070036
   1 O :    0.024762
   2 C :   -0.059929
   3 C :    0.008926
   4 H :   -0.009238
   5 H :    0.054826
   6 H :    0.033326
   7 H :    0.017364

  Mayer bond orders larger than 0.100000
B(  0-C ,  1-O ) :   2.1939 B(  0-C ,  2-C ) :   1.0439 B(  0-C ,  4-H ) :   0.8741
B(  2-C ,  3-C ) :   1.9124 B(  2-C ,  5-H ) :   0.9335 B(  3-C ,  6-H ) :   0.9475
B(  3-C ,  7-H ) :   0.9460

-----------------------------------------------------------------------------
         ABSORPTION SPECTRUM VIA TRANSITION ELECTRIC DIPOLE MOMENTS
-----------------------------------------------------------------------------
State   Energy    Wavelength  fosc         T2        TX        TY        TZ
        (cm-1)      (nm)                 (au**2)    (au)      (au)      (au)
-----------------------------------------------------------------------------
   1   28036.6    356.7   0.000334492   0.00393   0.04163  -0.04554  -0.01098

FINAL SINGLE POINT ENERGY      -191.654885108399

DIPOLE MOMENT
-------------
                                X             Y             Z
Electronic contribution:     -3.09984      -0.08160       1.40339
Nuclear contribution   :      4.10414       0.21843      -1.76512
                        -----------------------------------------
Total Dipole Moment    :      1.00430       0.13682      -0.36172
                        -----------------------------------------
Magnitude (a.u.)       :      1.07619
Magnitude (Debye)      :      2.73545

Rotational constants in cm-1:     1.430612     0.151991     0.137676
Rotational constants in MHz : 42888.679796  4556.575112  4127.413030

                             ****ORCA TERMINATED NORMALLY****
TOTAL RUN TIME: 0 days 0 hours 3 minutes 26 seconds 363 msec
