                         Program Version 5.0.3 -  RELEASE  -
|  1> ! B3LYP cc-pVDZ
|  2> !TightSCF
|  3> %scf
|  4>  ConvForced true
|  5>  convergence tight
|  6>  MaxIter 500
|  7> end
|  8>
|  9> %tddft
| 10>  nroots 1
| 11> end
| 12>
| 13> # 	12368
| 14> * xyz 0 1
| 15> 		C   -1.132925  -0.341500  -0.017957
| 16> 		O   -1.767063  -0.953146  -0.893158
| 17> 		C    0.029427   0.498958  -0.189243
| 18> 		C    1.163839   0.077192   0.163569
| 19> 		H   -1.617717  -0.462794   0.916458
| 20> 		H   -0.172975   1.547838  -0.683530
| 21> 		H    1.377992  -0.973977   0.604179
| 22> 		H    2.107732   0.641729   0.096113
| 23> *
| 24>
| 25>                          ****END OF INPUT****

CARTESIAN COORDINATES (ANGSTROEM)
---------------------------------
  C     -1.132925   -0.341500   -0.017957
  O     -1.767063   -0.953146   -0.893158
  C      0.029427    0.498958   -0.189243
  C      1.163839    0.077192    0.163569
  H     -1.617717   -0.462794    0.916458
  H     -0.172975    1.547838   -0.683530
  H      1.377992   -0.973977    0.604179
  H      2.107732    0.641729    0.096113

 Total Charge           Charge          ....    0
 Multiplicity           Mult            ....    1
 Number of Electrons    NEL             ....   30
 Basis Dimension        Dim             ....   76

ORBITAL ENERGIES
----------------

  NO   OCC          E(Eh)            E(eV)
   0   2.0000     -19.136231      -520.7233
   1   2.0000     -10.272054      -279.5168
   2   2.0000     -10.209939      -277.8266
   3   2.0000     -10.207900      -277.7711
   4   2.0000      -1.029911       -28.0253
   5   2.0000      -0.817901       -22.2562
   6   2.0000      -0.652821       -17.7642
   7   2.0000      -0.558827       -15.2065
   8   2.0000      -0.493512       -13.4291
   9   2.0000      -0.475650       -12.9431
  10   2.0000      -0.432860       -11.7787
  11   2.0000      -0.372642       -10.1401
  12   2.0000      -0.361787        -9.8447
  13   2.0000      -0.303244        -8.2517
  14   2.0000      -0.249248        -6.7824
  15   0.0000      -0.044412        -1.2085
  16   0.0000       0.005423         0.1476
  17   0.0000       0.066465         1.8086
  18   0.0000       0.083938         2.2841
  19   0.0000       0.112990         3.0746

MULLIKEN ATOMIC CHARGES
-----------------------
   0 C :    0.182454
   1 O :   -0.216819
   2 C :   -0.079405
   3 C :    0.017724
   4 H :   -0.014291
   5 H :    0.045377
   6 H :    0.035531
   7 H :    0.029430
Sum of atomic charges:   -0.0000000

LOEWDIN ATOMIC CHARGES
----------------------
   0 C :   -0.000352
   1 O :   -0.025765
   2 C :   -0.076852
   3 C :   -0.031595
   4 H :   -0.005761
   5 H :    0.062838
   6 H :    0.043411
   7 H :    0.034075

  Mayer bond orders larger than 0.100000
B(  0-C ,  1-O ) :   2.1917 B(  0-C ,  2-C ) :   0.9981 B(  0-C ,  4-H ) :   0.9457
B(  2-C ,  3-C ) :   2.0434 B(  2-C ,  5-H ) :   0.9200 B(  3-C ,  6-H ) :   0.9395
B(  3-C ,  7-H ) :   0.9384

-----------------------------------------------------------------------------
         ABSORPTION SPECTRUM VIA TRANSITION ELECTRIC DIPOLE MOMENTS
-----------------------------------------------------------------------------
State   Energy    Wavelength  fosc         T2        TX        TY        TZ
        (cm-1)      (nm)                 (au**2)    (au)      (au)      (au)
-----------------------------------------------------------------------------
   1   29862.3    334.9   0.000157296   0.00173  -0.03852  -0.01510   0.00472

FINAL SINGLE POINT ENERGY      -191.639102560640

DIPOLE MOMENT
-------------
                                X             Y             Z
Electronic contribution:     -2.61658      -0.91470      -1.19959
Nuclear contribution   :      3.30041       1.47653       1.79458
                        -----------------------------------------
Total Dipole Moment    :      0.68383       0.56182       0.59499
                        -----------------------------------------
Magnitude (a.u.)       :      1.06643
Magnitude (Debye)      :      2.71065

Rotational constants in cm-1:     1.112911     0.165685     0.159913
Rotational constants in MHz : 33364.246069  4967.096422  4794.066657

                             ****ORCA TERMINATED NORMALLY****
TOTAL RUN TIME: 0 days 0 hours 3 minutes 23 seconds 327 msec
