                         Program Version 5.0.3 -  RELEASE  -
|  1> ! HF-3c
|  2> !TightSCF
|  3> %scf
|  4>  ConvForced true
|  5>  convergence tight
|  6>  MaxIter 500
|  7> end
|  8>
|  9> %tddft
| 10>  nroots 1
| 11> end
| 12>
| 13> # 	19689
| 14> * xyz 0 1
| 15> 		C   -1.201960  -0.331718  -0.007168
| 16> 		O   -1.804310  -0.923268   0.918745
| 17> 		C    0.014613   0.492565   0.215182
| 18> 		C    1.198994   0.026434  -0.154950
| 19> 		H   -1.487541  -0.523282  -1.038514
| 20> 		H   -0.130262   1.445574   0.928294
| 21> 		H    1.170012  -0.906351  -0.858803
| 22> 		H    2.175772   0.681767   0.008856
| 23> *
| 24>
| 25>                          ****END OF INPUT****

CARTESIAN COORDINATES (ANGSTROEM)
---------------------------------
  C     -1.201960   -0.331718   -0.007168
  O     -1.804310   -0.923268    0.918745
  C      0.014613    0.492565    0.215182
  C      1.198994    0.026434   -0.154950
  H     -1.487541   -0.523282   -1.038514
  H     -0.130262    1.445574    0.928294
  H      1.170012   -0.906351   -0.858803
  H      2.175772    0.681767    0.008856

 Total Charge           Charge          ....    0
 Multiplicity           Mult            ....    1
 Number of Electrons    NEL             ....   30
 Basis Dimension        Dim             ....   24

ORBITAL ENERGIES
----------------

  NO   OCC          E(Eh)            E(eV)
   0   2.0000     -20.359385      -554.0070
   1   2.0000     -11.286703      -307.1268
   2   2.0000     -11.183721      -304.3245
   3   2.0000     -11.177402      -304.1526
   4   2.0000      -1.372485       -37.3472
   5   2.0000      -1.071653       -29.1612
   6   2.0000      -0.867784       -23.6136
   7   2.0000      -0.750362       -20.4184
   8   2.0000      -0.651718       -17.7341
   9   2.0000      -0.618618       -16.8334
  10   2.0000      -0.580814       -15.8048
  11   2.0000      -0.519967       -14.1490
  12   2.0000      -0.483645       -13.1607
  13   2.0000      -0.410826       -11.1791
  14   2.0000      -0.395000       -10.7485
  15   0.0000       0.161076         4.3831
  16   0.0000       0.242411         6.5963
  17   0.0000       0.517481        14.0814
  18   0.0000       0.541338        14.7306
  19   0.0000       0.565061        15.3761

MULLIKEN ATOMIC CHARGES
-----------------------
   0 C :    0.148275
   1 O :   -0.337415
   2 C :   -0.164529
   3 C :   -0.226616
   4 H :    0.139487
   5 H :    0.153742
   6 H :    0.138513
   7 H :    0.148543
Sum of atomic charges:   -0.0000000

LOEWDIN ATOMIC CHARGES
----------------------
   0 C :    0.143968
   1 O :   -0.255311
   2 C :   -0.126497
   3 C :   -0.148618
   4 H :    0.075645
   5 H :    0.109219
   6 H :    0.095998
   7 H :    0.105597

  Mayer bond orders larger than 0.100000
B(  0-C ,  1-O ) :   1.9322 B(  0-C ,  2-C ) :   1.0015 B(  0-C ,  4-H ) :   0.9285
B(  2-C ,  3-C ) :   1.9875 B(  2-C ,  5-H ) :   0.9427 B(  3-C ,  6-H ) :   0.9589
B(  3-C ,  7-H ) :   0.9564

-----------------------------------------------------------------------------
         ABSORPTION SPECTRUM VIA TRANSITION ELECTRIC DIPOLE MOMENTS
-----------------------------------------------------------------------------
State   Energy    Wavelength  fosc         T2        TX        TY        TZ
        (cm-1)      (nm)                 (au**2)    (au)      (au)      (au)
-----------------------------------------------------------------------------
   1   31671.9    315.7   0.000011682   0.00012   0.00787  -0.00053  -0.00770

Dispersion correction           -0.024976245
FINAL SINGLE POINT ENERGY      -189.315608810386

DIPOLE MOMENT
-------------
                                X             Y             Z
Electronic contribution:     -2.72919      -0.92705       1.15852
Nuclear contribution   :      3.40789       1.43513      -1.85278
                        -----------------------------------------
Total Dipole Moment    :      0.67870       0.50808      -0.69426
                        -----------------------------------------
Magnitude (a.u.)       :      1.09580
Magnitude (Debye)      :      2.78530

Rotational constants in cm-1:     1.023673     0.160638     0.156527
Rotational constants in MHz : 30688.943077  4815.807525  4692.574608

                             ****ORCA TERMINATED NORMALLY****
TOTAL RUN TIME: 0 days 0 hours 0 minutes 16 seconds 10 msec
