                         Program Version 5.0.3 -  RELEASE  -
|  1> ! HF-3c
|  2> !TightSCF
|  3> %scf
|  4>  ConvForced true
|  5>  convergence tight
|  6>  MaxIter 500
|  7> end
|  8>
|  9> %tddft
| 10>  nroots 1
| 11> end
| 12>
| 13> # 	25091
| 14> * xyz 0 1
| 15> 		C   -0.595705  -0.423738  -0.008950
| 16> 		O   -0.592024  -1.638942   0.003787
| 17> 		C    0.611814   0.430020  -0.000997
| 18> 		C    1.881055  -0.141039   0.033219
| 19> 		H   -1.443578   0.038935  -0.005857
| 20> 		H    0.542535   1.354630  -0.013654
| 21> 		H    2.081716  -1.261923  -0.181491
| 22> 		H    2.589904   0.733570  -0.141847
| 23> *
| 24>
| 25>                          ****END OF INPUT****

CARTESIAN COORDINATES (ANGSTROEM)
---------------------------------
  C     -0.595705   -0.423738   -0.008950
  O     -0.592024   -1.638942    0.003787
  C      0.611814    0.430020   -0.000997
  C      1.881055   -0.141039    0.033219
  H     -1.443578    0.038935   -0.005857
  H      0.542535    1.354630   -0.013654
  H      2.081716   -1.261923   -0.181491
  H      2.589904    0.733570   -0.141847

 Total Charge           Charge          ....    0
 Multiplicity           Mult            ....    1
 Number of Electrons    NEL             ....   30
 Basis Dimension        Dim             ....   24

ORBITAL ENERGIES
----------------

  NO   OCC          E(Eh)            E(eV)
   0   2.0000     -20.361898      -554.0754
   1   2.0000     -11.296544      -307.3946
   2   2.0000     -11.193669      -304.5952
   3   2.0000     -11.182445      -304.2898
   4   2.0000      -1.398268       -38.0488
   5   2.0000      -1.074645       -29.2426
   6   2.0000      -0.904293       -24.6071
   7   2.0000      -0.775940       -21.1144
   8   2.0000      -0.724148       -19.7051
   9   2.0000      -0.609372       -16.5819
  10   2.0000      -0.572381       -15.5753
  11   2.0000      -0.550365       -14.9762
  12   2.0000      -0.538783       -14.6610
  13   2.0000      -0.419900       -11.4261
  14   2.0000      -0.380742       -10.3605
  15   0.0000       0.117403         3.1947
  16   0.0000       0.290935         7.9168
  17   0.0000       0.542347        14.7580
  18   0.0000       0.598937        16.2979
  19   0.0000       0.680902        18.5283

MULLIKEN ATOMIC CHARGES
-----------------------
   0 C :    0.141596
   1 O :   -0.347906
   2 C :   -0.206763
   3 C :   -0.181830
   4 H :    0.136569
   5 H :    0.135210
   6 H :    0.173288
   7 H :    0.149837
Sum of atomic charges:    0.0000000

LOEWDIN ATOMIC CHARGES
----------------------
   0 C :    0.139682
   1 O :   -0.256244
   2 C :   -0.156305
   3 C :   -0.088353
   4 H :    0.061681
   5 H :    0.073034
   6 H :    0.123056
   7 H :    0.103449

  Mayer bond orders larger than 0.100000
B(  0-C ,  1-O ) :   1.8947 B(  0-C ,  2-C ) :   1.0389 B(  0-C ,  4-H ) :   0.9411
B(  2-C ,  3-C ) :   1.9137 B(  2-C ,  5-H ) :   0.9701 B(  3-C ,  6-H ) :   0.9551
B(  3-C ,  7-H ) :   0.9619

-----------------------------------------------------------------------------
         ABSORPTION SPECTRUM VIA TRANSITION ELECTRIC DIPOLE MOMENTS
-----------------------------------------------------------------------------
State   Energy    Wavelength  fosc         T2        TX        TY        TZ
        (cm-1)      (nm)                 (au**2)    (au)      (au)      (au)
-----------------------------------------------------------------------------
   1   31604.2    316.4   0.000014453   0.00015   0.00909  -0.00072   0.00821

Dispersion correction           -0.025886461
FINAL SINGLE POINT ENERGY      -189.282807425402

DIPOLE MOMENT
-------------
                                X             Y             Z
Electronic contribution:     -1.88244      -1.76825       0.22363
Nuclear contribution   :      2.37853       2.59972      -0.32123
                        -----------------------------------------
Total Dipole Moment    :      0.49609       0.83147      -0.09760
                        -----------------------------------------
Magnitude (a.u.)       :      0.97313
Magnitude (Debye)      :      2.47350

Rotational constants in cm-1:     0.761708     0.206108     0.162428
Rotational constants in MHz : 22835.441021  6178.969358  4869.468926

                             ****ORCA TERMINATED NORMALLY****
TOTAL RUN TIME: 0 days 0 hours 0 minutes 11 seconds 525 msec
