                         Program Version 5.0.3 -  RELEASE  -
|  1> ! HF-3c
|  2> !TightSCF
|  3> %scf
|  4>  ConvForced true
|  5>  convergence tight
|  6>  MaxIter 500
|  7> end
|  8>
|  9> %tddft
| 10>  nroots 1
| 11> end
| 12>
| 13> # 	19000
| 14> * xyz 0 1
| 15> 		C   -1.289932  -0.348509   0.026166
| 16> 		O   -1.176238  -1.535043   0.026530
| 17> 		C    0.086301   0.480211   0.102623
| 18> 		C    1.206440  -0.029383   0.061410
| 19> 		H   -2.172332   0.349126   0.016374
| 20> 		H   -0.117491   1.506225  -0.221385
| 21> 		H    1.382363  -1.106273   0.154684
| 22> 		H    2.024396   0.709022  -0.254912
| 23> *
| 24>
| 25>                          ****END OF INPUT****

CARTESIAN COORDINATES (ANGSTROEM)
---------------------------------
  C     -1.289932   -0.348509    0.026166
  O     -1.176238   -1.535043    0.026530
  C      0.086301    0.480211    0.102623
  C      1.206440   -0.029383    0.061410
  H     -2.172332    0.349126    0.016374
  H     -0.117491    1.506225   -0.221385
  H      1.382363   -1.106273    0.154684
  H      2.024396    0.709022   -0.254912

 Total Charge           Charge          ....    0
 Multiplicity           Mult            ....    1
 Number of Electrons    NEL             ....   30
 Basis Dimension        Dim             ....   24

ORBITAL ENERGIES
----------------

  NO   OCC          E(Eh)            E(eV)
   0   2.0000     -20.383283      -554.6573
   1   2.0000     -11.301717      -307.5354
   2   2.0000     -11.179343      -304.2054
   3   2.0000     -11.173954      -304.0587
   4   2.0000      -1.420634       -38.6574
   5   2.0000      -1.088968       -29.6323
   6   2.0000      -0.869194       -23.6520
   7   2.0000      -0.733364       -19.9559
   8   2.0000      -0.695947       -18.9377
   9   2.0000      -0.619859       -16.8672
  10   2.0000      -0.599158       -16.3039
  11   2.0000      -0.545838       -14.8530
  12   2.0000      -0.523119       -14.2348
  13   2.0000      -0.419138       -11.4053
  14   2.0000      -0.391910       -10.6644
  15   0.0000       0.162847         4.4313
  16   0.0000       0.311826         8.4852
  17   0.0000       0.475460        12.9379
  18   0.0000       0.601621        16.3709
  19   0.0000       0.607119        16.5206

MULLIKEN ATOMIC CHARGES
-----------------------
   0 C :    0.189551
   1 O :   -0.352836
   2 C :   -0.174286
   3 C :   -0.250469
   4 H :    0.147789
   5 H :    0.128506
   6 H :    0.161632
   7 H :    0.150114
Sum of atomic charges:   -0.0000000

LOEWDIN ATOMIC CHARGES
----------------------
   0 C :    0.160036
   1 O :   -0.247894
   2 C :   -0.134006
   3 C :   -0.155252
   4 H :    0.084494
   5 H :    0.079851
   6 H :    0.108100
   7 H :    0.104671

  Mayer bond orders larger than 0.100000
B(  0-C ,  1-O ) :   1.9557 B(  0-C ,  2-C ) :   0.9476 B(  0-C ,  4-H ) :   0.9161
B(  2-C ,  3-C ) :   2.0106 B(  2-C ,  5-H ) :   0.9571 B(  3-C ,  6-H ) :   0.9504
B(  3-C ,  7-H ) :   0.9506

-----------------------------------------------------------------------------
         ABSORPTION SPECTRUM VIA TRANSITION ELECTRIC DIPOLE MOMENTS
-----------------------------------------------------------------------------
State   Energy    Wavelength  fosc         T2        TX        TY        TZ
        (cm-1)      (nm)                 (au**2)    (au)      (au)      (au)
-----------------------------------------------------------------------------
   1   34093.1    293.3   0.000315572   0.00305  -0.05393  -0.00410  -0.01106

Dispersion correction           -0.025734336
FINAL SINGLE POINT ENERGY      -189.306910077857

DIPOLE MOMENT
-------------
                                X             Y             Z
Electronic contribution:     -2.17566      -1.90516       0.31355
Nuclear contribution   :      2.21717       2.81427      -0.44734
                        -----------------------------------------
Total Dipole Moment    :      0.04151       0.90911      -0.13378
                        -----------------------------------------
Magnitude (a.u.)       :      0.91984
Magnitude (Debye)      :      2.33805

Rotational constants in cm-1:     0.776398     0.207454     0.164421
Rotational constants in MHz : 23275.819864  6219.309062  4929.203430

                             ****ORCA TERMINATED NORMALLY****
TOTAL RUN TIME: 0 days 0 hours 0 minutes 12 seconds 324 msec
