                         Program Version 5.0.3 -  RELEASE  -
|  1> ! B3LYP cc-pVDZ
|  2> !TightSCF
|  3> %scf
|  4>  ConvForced true
|  5>  convergence tight
|  6>  MaxIter 500
|  7> end
|  8>
|  9> %tddft
| 10>  nroots 1
| 11> end
| 12>
| 13> # 	15305
| 14> * xyz 0 1
| 15> 		C   -1.231140  -0.360877   0.084812
| 16> 		O   -1.347731  -1.436161   0.515289
| 17> 		C    0.069192   0.471178   0.197597
| 18> 		C    1.211556   0.009458  -0.122488
| 19> 		H   -1.984135   0.296562  -0.701572
| 20> 		H   -0.053446   1.572906   0.562047
| 21> 		H    1.119849  -1.063447  -0.473797
| 22> 		H    2.251456   0.532802  -0.116558
| 23> *
| 24>
| 25>                          ****END OF INPUT****

CARTESIAN COORDINATES (ANGSTROEM)
---------------------------------
  C     -1.231140   -0.360877    0.084812
  O     -1.347731   -1.436161    0.515289
  C      0.069192    0.471178    0.197597
  C      1.211556    0.009458   -0.122488
  H     -1.984135    0.296562   -0.701572
  H     -0.053446    1.572906    0.562047
  H      1.119849   -1.063447   -0.473797
  H      2.251456    0.532802   -0.116558

 Total Charge           Charge          ....    0
 Multiplicity           Mult            ....    1
 Number of Electrons    NEL             ....   30
 Basis Dimension        Dim             ....   76

ORBITAL ENERGIES
----------------

  NO   OCC          E(Eh)            E(eV)
   0   2.0000     -19.161938      -521.4228
   1   2.0000     -10.298375      -280.2330
   2   2.0000     -10.206175      -277.7242
   3   2.0000     -10.203640      -277.6551
   4   2.0000      -1.089627       -29.6503
   5   2.0000      -0.798540       -21.7294
   6   2.0000      -0.632772       -17.2186
   7   2.0000      -0.527304       -14.3487
   8   2.0000      -0.493695       -13.4341
   9   2.0000      -0.461181       -12.5494
  10   2.0000      -0.448503       -12.2044
  11   2.0000      -0.407170       -11.0797
  12   2.0000      -0.365062        -9.9338
  13   2.0000      -0.296919        -8.0796
  14   2.0000      -0.260525        -7.0893
  15   0.0000      -0.040857        -1.1118
  16   0.0000       0.026578         0.7232
  17   0.0000       0.062901         1.7116
  18   0.0000       0.073366         1.9964
  19   0.0000       0.095101         2.5878

MULLIKEN ATOMIC CHARGES
-----------------------
   0 C :    0.128349
   1 O :   -0.120952
   2 C :   -0.116870
   3 C :    0.024832
   4 H :   -0.008581
   5 H :    0.015279
   6 H :    0.027984
   7 H :    0.049959
Sum of atomic charges:    0.0000000

LOEWDIN ATOMIC CHARGES
----------------------
   0 C :   -0.052029
   1 O :    0.064853
   2 C :   -0.091179
   3 C :   -0.041261
   4 H :   -0.005656
   5 H :    0.038554
   6 H :    0.038580
   7 H :    0.048137

  Mayer bond orders larger than 0.100000
B(  0-C ,  1-O ) :   2.2787 B(  0-C ,  2-C ) :   0.9519 B(  0-C ,  4-H ) :   0.8580
B(  2-C ,  3-C ) :   2.0369 B(  2-C ,  5-H ) :   0.9282 B(  3-C ,  6-H ) :   0.9184
B(  3-C ,  7-H ) :   0.9404

-----------------------------------------------------------------------------
         ABSORPTION SPECTRUM VIA TRANSITION ELECTRIC DIPOLE MOMENTS
-----------------------------------------------------------------------------
State   Energy    Wavelength  fosc         T2        TX        TY        TZ
        (cm-1)      (nm)                 (au**2)    (au)      (au)      (au)
-----------------------------------------------------------------------------
   1   34419.2    290.5   0.000504718   0.00483   0.01023  -0.03550   0.05884

FINAL SINGLE POINT ENERGY      -191.616516326424

DIPOLE MOMENT
-------------
                                X             Y             Z
Electronic contribution:     -2.19807      -1.91886       1.07029
Nuclear contribution   :      2.54994       2.59152      -1.31078
                        -----------------------------------------
Total Dipole Moment    :      0.35187       0.67266      -0.24049
                        -----------------------------------------
Magnitude (a.u.)       :      0.79631
Magnitude (Debye)      :      2.02407

Rotational constants in cm-1:     0.839770     0.188490     0.161790
Rotational constants in MHz : 25175.676332  5650.785961  4850.340305

                             ****ORCA TERMINATED NORMALLY****
TOTAL RUN TIME: 0 days 0 hours 3 minutes 21 seconds 317 msec
