                         Program Version 5.0.3 -  RELEASE  -
|  1> ! HF-3c
|  2> !TightSCF
|  3> %scf
|  4>  ConvForced true
|  5>  convergence tight
|  6>  MaxIter 500
|  7> end
|  8>
|  9> %tddft
| 10>  nroots 1
| 11> end
| 12>
| 13> # 	18705
| 14> * xyz 0 1
| 15> 		C   -1.195186  -0.299657   0.019404
| 16> 		O   -1.310826  -1.465770   0.388583
| 17> 		C    0.018027   0.480736   0.167127
| 18> 		C    1.224740  -0.001377  -0.096867
| 19> 		H   -2.023666   0.271416  -0.586467
| 20> 		H   -0.088092   1.544228   0.297128
| 21> 		H    1.220036  -1.082414  -0.082734
| 22> 		H    2.153584   0.529409  -0.094704
| 23> *
| 24>
| 25>                          ****END OF INPUT****

CARTESIAN COORDINATES (ANGSTROEM)
---------------------------------
  C     -1.195186   -0.299657    0.019404
  O     -1.310826   -1.465770    0.388583
  C      0.018027    0.480736    0.167127
  C      1.224740   -0.001377   -0.096867
  H     -2.023666    0.271416   -0.586467
  H     -0.088092    1.544228    0.297128
  H      1.220036   -1.082414   -0.082734
  H      2.153584    0.529409   -0.094704

 Total Charge           Charge          ....    0
 Multiplicity           Mult            ....    1
 Number of Electrons    NEL             ....   30
 Basis Dimension        Dim             ....   24

ORBITAL ENERGIES
----------------

  NO   OCC          E(Eh)            E(eV)
   0   2.0000     -20.363884      -554.1295
   1   2.0000     -11.296180      -307.3847
   2   2.0000     -11.190851      -304.5185
   3   2.0000     -11.188715      -304.4604
   4   2.0000      -1.390345       -37.8332
   5   2.0000      -1.089517       -29.6473
   6   2.0000      -0.896097       -24.3840
   7   2.0000      -0.741776       -20.1847
   8   2.0000      -0.703192       -19.1348
   9   2.0000      -0.621447       -16.9104
  10   2.0000      -0.603178       -16.4133
  11   2.0000      -0.542462       -14.7611
  12   2.0000      -0.508494       -13.8368
  13   2.0000      -0.414934       -11.2909
  14   2.0000      -0.398030       -10.8310
  15   0.0000       0.139310         3.7908
  16   0.0000       0.273559         7.4439
  17   0.0000       0.548741        14.9320
  18   0.0000       0.643368        17.5069
  19   0.0000       0.651534        17.7292

MULLIKEN ATOMIC CHARGES
-----------------------
   0 C :    0.169573
   1 O :   -0.349340
   2 C :   -0.176901
   3 C :   -0.230365
   4 H :    0.140040
   5 H :    0.141718
   6 H :    0.154861
   7 H :    0.150414
Sum of atomic charges:    0.0000000

LOEWDIN ATOMIC CHARGES
----------------------
   0 C :    0.150877
   1 O :   -0.260702
   2 C :   -0.130420
   3 C :   -0.130604
   4 H :    0.082665
   5 H :    0.089161
   6 H :    0.101411
   7 H :    0.097611

  Mayer bond orders larger than 0.100000
B(  0-C ,  1-O ) :   1.9152 B(  0-C ,  2-C ) :   1.0298 B(  0-C ,  4-H ) :   0.9125
B(  2-C ,  3-C ) :   1.9509 B(  2-C ,  5-H ) :   0.9556 B(  3-C ,  6-H ) :   0.9590
B(  3-C ,  7-H ) :   0.9644

-----------------------------------------------------------------------------
         ABSORPTION SPECTRUM VIA TRANSITION ELECTRIC DIPOLE MOMENTS
-----------------------------------------------------------------------------
State   Energy    Wavelength  fosc         T2        TX        TY        TZ
        (cm-1)      (nm)                 (au**2)    (au)      (au)      (au)
-----------------------------------------------------------------------------
   1   32818.5    304.7   0.000018231   0.00018   0.01185   0.00179  -0.00627

Dispersion correction           -0.025874193
FINAL SINGLE POINT ENERGY      -189.331681665377

DIPOLE MOMENT
-------------
                                X             Y             Z
Electronic contribution:     -2.12306      -1.59824       0.55152
Nuclear contribution   :      2.44989       2.50822      -0.89070
                        -----------------------------------------
Total Dipole Moment    :      0.32683       0.90998      -0.33918
                        -----------------------------------------
Magnitude (a.u.)       :      1.02466
Magnitude (Debye)      :      2.60448

Rotational constants in cm-1:     0.813075     0.198966     0.164518
Rotational constants in MHz : 24375.381644  5964.853166  4932.115992

                             ****ORCA TERMINATED NORMALLY****
TOTAL RUN TIME: 0 days 0 hours 0 minutes 11 seconds 390 msec
