                         Program Version 5.0.3 -  RELEASE  -
|  1> ! HF-3c
|  2> !TightSCF
|  3> %scf
|  4>  ConvForced true
|  5>  convergence tight
|  6>  MaxIter 500
|  7> end
|  8>
|  9> %tddft
| 10>  nroots 1
| 11> end
| 12>
| 13> # 	123
| 14> * xyz 0 1
| 15> 		C   -1.200033  -0.262765   0.033835
| 16> 		O   -1.333728  -1.432066   0.455901
| 17> 		C   -0.053036   0.489803   0.077179
| 18> 		C    1.199023   0.031077  -0.067911
| 19> 		H   -2.004689   0.034963  -0.561385
| 20> 		H   -0.083472   1.556339   0.324593
| 21> 		H    1.334939  -1.034663  -0.261477
| 22> 		H    2.092521   0.618156   0.025767
| 23> *
| 24>
| 25>                          ****END OF INPUT****

CARTESIAN COORDINATES (ANGSTROEM)
---------------------------------
  C     -1.200033   -0.262765    0.033835
  O     -1.333728   -1.432066    0.455901
  C     -0.053036    0.489803    0.077179
  C      1.199023    0.031077   -0.067911
  H     -2.004689    0.034963   -0.561385
  H     -0.083472    1.556339    0.324593
  H      1.334939   -1.034663   -0.261477
  H      2.092521    0.618156    0.025767

 Total Charge           Charge          ....    0
 Multiplicity           Mult            ....    1
 Number of Electrons    NEL             ....   30
 Basis Dimension        Dim             ....   24

ORBITAL ENERGIES
----------------

  NO   OCC          E(Eh)            E(eV)
   0   2.0000     -20.356421      -553.9264
   1   2.0000     -11.292014      -307.2713
   2   2.0000     -11.197802      -304.7077
   3   2.0000     -11.196371      -304.6687
   4   2.0000      -1.378374       -37.5075
   5   2.0000      -1.095251       -29.8033
   6   2.0000      -0.917597       -24.9691
   7   2.0000      -0.763522       -20.7765
   8   2.0000      -0.712427       -19.3861
   9   2.0000      -0.630132       -17.1468
  10   2.0000      -0.602211       -16.3870
  11   2.0000      -0.543625       -14.7928
  12   2.0000      -0.494923       -13.4675
  13   2.0000      -0.426801       -11.6139
  14   2.0000      -0.394323       -10.7301
  15   0.0000       0.124506         3.3880
  16   0.0000       0.269807         7.3418
  17   0.0000       0.600138        16.3306
  18   0.0000       0.657869        17.9015
  19   0.0000       0.669806        18.2263

MULLIKEN ATOMIC CHARGES
-----------------------
   0 C :    0.124129
   1 O :   -0.329116
   2 C :   -0.189007
   3 C :   -0.204566
   4 H :    0.146242
   5 H :    0.153825
   6 H :    0.150305
   7 H :    0.148187
Sum of atomic charges:   -0.0000000

LOEWDIN ATOMIC CHARGES
----------------------
   0 C :    0.126540
   1 O :   -0.249999
   2 C :   -0.141292
   3 C :   -0.107084
   4 H :    0.077469
   5 H :    0.101528
   6 H :    0.097433
   7 H :    0.095406

  Mayer bond orders larger than 0.100000
B(  0-C ,  1-O ) :   1.8828 B(  0-C ,  2-C ) :   1.0743 B(  0-C ,  4-H ) :   0.9327
B(  2-C ,  3-C ) :   1.9282 B(  2-C ,  5-H ) :   0.9464 B(  3-C ,  6-H ) :   0.9629
B(  3-C ,  7-H ) :   0.9662

-----------------------------------------------------------------------------
         ABSORPTION SPECTRUM VIA TRANSITION ELECTRIC DIPOLE MOMENTS
-----------------------------------------------------------------------------
State   Energy    Wavelength  fosc         T2        TX        TY        TZ
        (cm-1)      (nm)                 (au**2)    (au)      (au)      (au)
-----------------------------------------------------------------------------
   1   29194.0    342.5   0.000014911   0.00017  -0.00590   0.00088  -0.01151

Dispersion correction           -0.025900119
FINAL SINGLE POINT ENERGY      -189.333364631811

DIPOLE MOMENT
-------------
                                X             Y             Z
Electronic contribution:     -2.15415      -1.47263       0.59346
Nuclear contribution   :      2.62361       2.33273      -0.92949
                        -----------------------------------------
Total Dipole Moment    :      0.46946       0.86011      -0.33602
                        -----------------------------------------
Magnitude (a.u.)       :      1.03590
Magnitude (Debye)      :      2.63304

Rotational constants in cm-1:     0.836346     0.200032     0.166037
Rotational constants in MHz : 25073.037269  5996.815696  4977.657178

                             ****ORCA TERMINATED NORMALLY****
TOTAL RUN TIME: 0 days 0 hours 0 minutes 8 seconds 948 msec
