                         Program Version 5.0.3 -  RELEASE  -
|  1> ! B3LYP cc-pVDZ
|  2> !TightSCF
|  3> %scf
|  4>  ConvForced true
|  5>  convergence tight
|  6>  MaxIter 500
|  7> end
|  8>
|  9> %tddft
| 10>  nroots 1
| 11> end
| 12>
| 13> # 	17869
| 14> * xyz 0 1
| 15> 		C   -1.184008  -0.394297  -0.036202
| 16> 		O   -1.549345  -1.246186  -0.763625
| 17> 		C   -0.030195   0.469475  -0.214509
| 18> 		C    1.212987   0.037707   0.042517
| 19> 		H   -1.835475  -0.007407   0.897317
| 20> 		H   -0.090107   1.547083  -0.457054
| 21> 		H    1.434736  -0.957552   0.404985
| 22> 		H    2.048698   0.589990   0.098675
| 23> *
| 24>
| 25>                          ****END OF INPUT****

CARTESIAN COORDINATES (ANGSTROEM)
---------------------------------
  C     -1.184008   -0.394297   -0.036202
  O     -1.549345   -1.246186   -0.763625
  C     -0.030195    0.469475   -0.214509
  C      1.212987    0.037707    0.042517
  H     -1.835475   -0.007407    0.897317
  H     -0.090107    1.547083   -0.457054
  H      1.434736   -0.957552    0.404985
  H      2.048698    0.589990    0.098675

 Total Charge           Charge          ....    0
 Multiplicity           Mult            ....    1
 Number of Electrons    NEL             ....   30
 Basis Dimension        Dim             ....   76

ORBITAL ENERGIES
----------------

  NO   OCC          E(Eh)            E(eV)
   0   2.0000     -19.149903      -521.0954
   1   2.0000     -10.286942      -279.9219
   2   2.0000     -10.208152      -277.7780
   3   2.0000     -10.197086      -277.4768
   4   2.0000      -1.073274       -29.2053
   5   2.0000      -0.800710       -21.7884
   6   2.0000      -0.660663       -17.9776
   7   2.0000      -0.551451       -15.0058
   8   2.0000      -0.502370       -13.6702
   9   2.0000      -0.460967       -12.5435
  10   2.0000      -0.454070       -12.3559
  11   2.0000      -0.396567       -10.7911
  12   2.0000      -0.380117       -10.3435
  13   2.0000      -0.285702        -7.7743
  14   2.0000      -0.258999        -7.0477
  15   0.0000      -0.035859        -0.9758
  16   0.0000      -0.005225        -0.1422
  17   0.0000       0.079517         2.1638
  18   0.0000       0.095994         2.6121
  19   0.0000       0.101754         2.7689

MULLIKEN ATOMIC CHARGES
-----------------------
   0 C :    0.156271
   1 O :   -0.143736
   2 C :   -0.086913
   3 C :    0.065068
   4 H :   -0.020149
   5 H :    0.020551
   6 H :    0.013878
   7 H :   -0.004971
Sum of atomic charges:   -0.0000000

LOEWDIN ATOMIC CHARGES
----------------------
   0 C :   -0.053705
   1 O :    0.046249
   2 C :   -0.058272
   3 C :   -0.003805
   4 H :   -0.007254
   5 H :    0.045856
   6 H :    0.025886
   7 H :    0.005045

  Mayer bond orders larger than 0.100000
B(  0-C ,  1-O ) :   2.2710 B(  0-C ,  2-C ) :   0.9871 B(  0-C ,  4-H ) :   0.8813
B(  2-C ,  3-C ) :   2.0266 B(  2-C ,  5-H ) :   0.9313 B(  3-C ,  6-H ) :   0.9573
B(  3-C ,  7-H ) :   0.9519

-----------------------------------------------------------------------------
         ABSORPTION SPECTRUM VIA TRANSITION ELECTRIC DIPOLE MOMENTS
-----------------------------------------------------------------------------
State   Energy    Wavelength  fosc         T2        TX        TY        TZ
        (cm-1)      (nm)                 (au**2)    (au)      (au)      (au)
-----------------------------------------------------------------------------
   1   34631.0    288.8   0.001969129   0.01872  -0.13143   0.00703   0.03734

FINAL SINGLE POINT ENERGY      -191.625077179881

DIPOLE MOMENT
-------------
                                X             Y             Z
Electronic contribution:     -2.47710      -1.57118      -1.34755
Nuclear contribution   :      2.99983       2.25052       1.79937
                        -----------------------------------------
Total Dipole Moment    :      0.52273       0.67934       0.45183
                        -----------------------------------------
Magnitude (a.u.)       :      0.96897
Magnitude (Debye)      :      2.46292

Rotational constants in cm-1:     0.945658     0.177885     0.161739
Rotational constants in MHz : 28350.113481  5332.865043  4848.802105

                             ****ORCA TERMINATED NORMALLY****
TOTAL RUN TIME: 0 days 0 hours 3 minutes 24 seconds 576 msec
