                         Program Version 5.0.3 -  RELEASE  -
|  1> ! B3LYP cc-pVDZ
|  2> !TightSCF
|  3> %scf
|  4>  ConvForced true
|  5>  convergence tight
|  6>  MaxIter 500
|  7> end
|  8>
|  9> %tddft
| 10>  nroots 1
| 11> end
| 12>
| 13> # 	7938
| 14> * xyz 0 1
| 15> 		C   -1.223788  -0.349833  -0.134353
| 16> 		O   -2.160502  -0.270943  -0.853627
| 17> 		C    0.134762   0.304608  -0.337600
| 18> 		C    1.140091   0.143768   0.372334
| 19> 		H   -1.081871  -0.993438   0.815255
| 20> 		H    0.017576   0.946853  -1.215384
| 21> 		H    1.241185  -0.463112   1.159481
| 22> 		H    1.990529   0.705275   0.177522
| 23> *
| 24>
| 25>                          ****END OF INPUT****

CARTESIAN COORDINATES (ANGSTROEM)
---------------------------------
  C     -1.223788   -0.349833   -0.134353
  O     -2.160502   -0.270943   -0.853627
  C      0.134762    0.304608   -0.337600
  C      1.140091    0.143768    0.372334
  H     -1.081871   -0.993438    0.815255
  H      0.017576    0.946853   -1.215384
  H      1.241185   -0.463112    1.159481
  H      1.990529    0.705275    0.177522

 Total Charge           Charge          ....    0
 Multiplicity           Mult            ....    1
 Number of Electrons    NEL             ....   30
 Basis Dimension        Dim             ....   76

ORBITAL ENERGIES
----------------

  NO   OCC          E(Eh)            E(eV)
   0   2.0000     -19.151129      -521.1287
   1   2.0000     -10.280820      -279.7553
   2   2.0000     -10.194551      -277.4078
   3   2.0000     -10.191186      -277.3163
   4   2.0000      -1.068188       -29.0669
   5   2.0000      -0.820855       -22.3366
   6   2.0000      -0.653498       -17.7826
   7   2.0000      -0.569618       -15.5001
   8   2.0000      -0.493181       -13.4201
   9   2.0000      -0.478805       -13.0290
  10   2.0000      -0.436916       -11.8891
  11   2.0000      -0.411276       -11.1914
  12   2.0000      -0.380769       -10.3613
  13   2.0000      -0.310497        -8.4491
  14   2.0000      -0.254931        -6.9370
  15   0.0000      -0.054818        -1.4917
  16   0.0000       0.064890         1.7658
  17   0.0000       0.079713         2.1691
  18   0.0000       0.083663         2.2766
  19   0.0000       0.126915         3.4535

MULLIKEN ATOMIC CHARGES
-----------------------
   0 C :    0.154431
   1 O :   -0.157520
   2 C :   -0.130334
   3 C :    0.197226
   4 H :   -0.039696
   5 H :   -0.016863
   6 H :   -0.019449
   7 H :    0.012205
Sum of atomic charges:    0.0000000

LOEWDIN ATOMIC CHARGES
----------------------
   0 C :   -0.042530
   1 O :    0.036383
   2 C :   -0.061998
   3 C :    0.010940
   4 H :   -0.016765
   5 H :    0.029935
   6 H :    0.010840
   7 H :    0.033195

  Mayer bond orders larger than 0.100000
B(  0-C ,  1-O ) :   2.2277 B(  0-C ,  2-C ) :   1.0470 B(  0-C ,  4-H ) :   0.8928
B(  2-C ,  3-C ) :   2.0148 B(  2-C ,  5-H ) :   0.9422 B(  3-C ,  6-H ) :   0.9165
B(  3-C ,  7-H ) :   0.9099

-----------------------------------------------------------------------------
         ABSORPTION SPECTRUM VIA TRANSITION ELECTRIC DIPOLE MOMENTS
-----------------------------------------------------------------------------
State   Energy    Wavelength  fosc         T2        TX        TY        TZ
        (cm-1)      (nm)                 (au**2)    (au)      (au)      (au)
-----------------------------------------------------------------------------
   1   30768.8    325.0   0.000181147   0.00194   0.01377  -0.04182  -0.00005

FINAL SINGLE POINT ENERGY      -191.640882658700

DIPOLE MOMENT
-------------
                                X             Y             Z
Electronic contribution:     -3.19427      -0.30176      -1.33197
Nuclear contribution   :      4.13626       0.37799       1.80103
                        -----------------------------------------
Total Dipole Moment    :      0.94199       0.07623       0.46907
                        -----------------------------------------
Magnitude (a.u.)       :      1.05507
Magnitude (Debye)      :      2.68178

Rotational constants in cm-1:     1.763603     0.154406     0.142072
Rotational constants in MHz : 52871.494801  4628.963175  4259.219945

                             ****ORCA TERMINATED NORMALLY****
TOTAL RUN TIME: 0 days 0 hours 3 minutes 23 seconds 172 msec
