                         Program Version 5.0.3 -  RELEASE  -
|  1> ! HF-3c
|  2> !TightSCF
|  3> %scf
|  4>  ConvForced true
|  5>  convergence tight
|  6>  MaxIter 500
|  7> end
|  8>
|  9> %tddft
| 10>  nroots 1
| 11> end
| 12>
| 13> # 	7584
| 14> * xyz 0 1
| 15> 		C   -1.218498  -0.363377   0.014433
| 16> 		O   -1.418920  -1.405477  -0.539678
| 17> 		C    0.022489   0.498058  -0.222575
| 18> 		C    1.214661   0.044670   0.121616
| 19> 		H   -1.908440   0.160170   0.800895
| 20> 		H   -0.140771   1.494161  -0.656688
| 21> 		H    1.399051  -0.907515   0.457315
| 22> 		H    2.014981   0.534364  -0.037992
| 23> *
| 24>
| 25>                          ****END OF INPUT****

CARTESIAN COORDINATES (ANGSTROEM)
---------------------------------
  C     -1.218498   -0.363377    0.014433
  O     -1.418920   -1.405477   -0.539678
  C      0.022489    0.498058   -0.222575
  C      1.214661    0.044670    0.121616
  H     -1.908440    0.160170    0.800895
  H     -0.140771    1.494161   -0.656688
  H      1.399051   -0.907515    0.457315
  H      2.014981    0.534364   -0.037992

 Total Charge           Charge          ....    0
 Multiplicity           Mult            ....    1
 Number of Electrons    NEL             ....   30
 Basis Dimension        Dim             ....   24

ORBITAL ENERGIES
----------------

  NO   OCC          E(Eh)            E(eV)
   0   2.0000     -20.388590      -554.8017
   1   2.0000     -11.307715      -307.6986
   2   2.0000     -11.198090      -304.7155
   3   2.0000     -11.185151      -304.3634
   4   2.0000      -1.419946       -38.6387
   5   2.0000      -1.086876       -29.5754
   6   2.0000      -0.896562       -24.3967
   7   2.0000      -0.763896       -20.7867
   8   2.0000      -0.698122       -18.9969
   9   2.0000      -0.643315       -17.5055
  10   2.0000      -0.620701       -16.8901
  11   2.0000      -0.564410       -15.3584
  12   2.0000      -0.521247       -14.1838
  13   2.0000      -0.413158       -11.2426
  14   2.0000      -0.406659       -11.0657
  15   0.0000       0.170576         4.6416
  16   0.0000       0.238366         6.4863
  17   0.0000       0.528607        14.3841
  18   0.0000       0.613778        16.7018
  19   0.0000       0.626164        17.0388

MULLIKEN ATOMIC CHARGES
-----------------------
   0 C :    0.191598
   1 O :   -0.345773
   2 C :   -0.143545
   3 C :   -0.282894
   4 H :    0.138639
   5 H :    0.152044
   6 H :    0.149396
   7 H :    0.140535
Sum of atomic charges:   -0.0000000

LOEWDIN ATOMIC CHARGES
----------------------
   0 C :    0.161704
   1 O :   -0.243573
   2 C :   -0.097228
   3 C :   -0.175288
   4 H :    0.079664
   5 H :    0.100040
   6 H :    0.093621
   7 H :    0.081061

  Mayer bond orders larger than 0.100000
B(  0-C ,  1-O ) :   1.9593 B(  0-C ,  2-C ) :   0.9749 B(  0-C ,  4-H ) :   0.9071
B(  2-C ,  3-C ) :   1.9947 B(  2-C ,  5-H ) :   0.9529 B(  3-C ,  6-H ) :   0.9642
B(  3-C ,  7-H ) :   0.9674

-----------------------------------------------------------------------------
         ABSORPTION SPECTRUM VIA TRANSITION ELECTRIC DIPOLE MOMENTS
-----------------------------------------------------------------------------
State   Energy    Wavelength  fosc         T2        TX        TY        TZ
        (cm-1)      (nm)                 (au**2)    (au)      (au)      (au)
-----------------------------------------------------------------------------
   1   35573.6    281.1   0.000051484   0.00048   0.01965   0.00548  -0.00778

Dispersion correction           -0.025282762
FINAL SINGLE POINT ENERGY      -189.303742856799

DIPOLE MOMENT
-------------
                                X             Y             Z
Electronic contribution:     -2.49880      -1.61585      -0.71130
Nuclear contribution   :      2.67748       2.46071       1.13260
                        -----------------------------------------
Total Dipole Moment    :      0.17868       0.84487       0.42130
                        -----------------------------------------
Magnitude (a.u.)       :      0.96084
Magnitude (Debye)      :      2.44227

Rotational constants in cm-1:     0.850375     0.183736     0.161564
Rotational constants in MHz : 25493.599990  5508.260281  4843.569573

                             ****ORCA TERMINATED NORMALLY****
TOTAL RUN TIME: 0 days 0 hours 0 minutes 16 seconds 119 msec
