                         Program Version 5.0.3 -  RELEASE  -
|  1> ! HF-3c
|  2> !TightSCF
|  3> %scf
|  4>  ConvForced true
|  5>  convergence tight
|  6>  MaxIter 500
|  7> end
|  8>
|  9> %tddft
| 10>  nroots 1
| 11> end
| 12>
| 13> # 	11661
| 14> * xyz 0 1
| 15> 		C   -1.115611  -0.305205  -0.029536
| 16> 		O   -1.154732  -1.467087  -0.054571
| 17> 		C    0.052441   0.608678  -0.038464
| 18> 		C    1.197151   0.009464   0.011367
| 19> 		H   -2.105083   0.212862   0.079194
| 20> 		H   -0.198487   1.589335  -0.053688
| 21> 		H    1.127982  -1.208831  -0.055820
| 22> 		H    2.184459   0.564150   0.123095
| 23> *
| 24>
| 25>                          ****END OF INPUT****

CARTESIAN COORDINATES (ANGSTROEM)
---------------------------------
  C     -1.115611   -0.305205   -0.029536
  O     -1.154732   -1.467087   -0.054571
  C      0.052441    0.608678   -0.038464
  C      1.197151    0.009464    0.011367
  H     -2.105083    0.212862    0.079194
  H     -0.198487    1.589335   -0.053688
  H      1.127982   -1.208831   -0.055820
  H      2.184459    0.564150    0.123095

 Total Charge           Charge          ....    0
 Multiplicity           Mult            ....    1
 Number of Electrons    NEL             ....   30
 Basis Dimension        Dim             ....   24

ORBITAL ENERGIES
----------------

  NO   OCC          E(Eh)            E(eV)
   0   2.0000     -20.370704      -554.3150
   1   2.0000     -11.299512      -307.4754
   2   2.0000     -11.193631      -304.5942
   3   2.0000     -11.184970      -304.3585
   4   2.0000      -1.436180       -39.0804
   5   2.0000      -1.094696       -29.7882
   6   2.0000      -0.878014       -23.8920
   7   2.0000      -0.736892       -20.0518
   8   2.0000      -0.720157       -19.5965
   9   2.0000      -0.614809       -16.7298
  10   2.0000      -0.599266       -16.3068
  11   2.0000      -0.563576       -15.3357
  12   2.0000      -0.520162       -14.1543
  13   2.0000      -0.408668       -11.1204
  14   2.0000      -0.401053       -10.9132
  15   0.0000       0.152809         4.1581
  16   0.0000       0.324324         8.8253
  17   0.0000       0.497706        13.5433
  18   0.0000       0.557730        15.1766
  19   0.0000       0.675745        18.3880

MULLIKEN ATOMIC CHARGES
-----------------------
   0 C :    0.193737
   1 O :   -0.376694
   2 C :   -0.215336
   3 C :   -0.191059
   4 H :    0.121640
   5 H :    0.145364
   6 H :    0.173465
   7 H :    0.148883
Sum of atomic charges:   -0.0000000

LOEWDIN ATOMIC CHARGES
----------------------
   0 C :    0.159598
   1 O :   -0.266119
   2 C :   -0.165286
   3 C :   -0.102496
   4 H :    0.058814
   5 H :    0.087201
   6 H :    0.127487
   7 H :    0.100801

  Mayer bond orders larger than 0.100000
B(  0-C ,  1-O ) :   1.9143 B(  0-C ,  2-C ) :   1.0010 B(  0-C ,  4-H ) :   0.9199
B(  2-C ,  3-C ) :   1.9541 B(  2-C ,  5-H ) :   0.9598 B(  3-C ,  6-H ) :   0.9406
B(  3-C ,  7-H ) :   0.9596

-----------------------------------------------------------------------------
         ABSORPTION SPECTRUM VIA TRANSITION ELECTRIC DIPOLE MOMENTS
-----------------------------------------------------------------------------
State   Energy    Wavelength  fosc         T2        TX        TY        TZ
        (cm-1)      (nm)                 (au**2)    (au)      (au)      (au)
-----------------------------------------------------------------------------
   1   36351.0    275.1   0.000068726   0.00062   0.00553  -0.00230   0.02422

Dispersion correction           -0.026543156
FINAL SINGLE POINT ENERGY      -189.300884255394

DIPOLE MOMENT
-------------
                                X             Y             Z
Electronic contribution:     -1.57828      -1.51744      -0.13802
Nuclear contribution   :      1.99443       2.31058       0.18433
                        -----------------------------------------
Total Dipole Moment    :      0.41615       0.79314       0.04631
                        -----------------------------------------
Magnitude (a.u.)       :      0.89688
Magnitude (Debye)      :      2.27969

Rotational constants in cm-1:     0.792222     0.219690     0.172143
Rotational constants in MHz : 23750.222953  6586.139196  5160.726049

                             ****ORCA TERMINATED NORMALLY****
TOTAL RUN TIME: 0 days 0 hours 0 minutes 16 seconds 111 msec
