                         Program Version 5.0.3 -  RELEASE  -
|  1> ! HF-3c
|  2> !TightSCF
|  3> %scf
|  4>  ConvForced true
|  5>  convergence tight
|  6>  MaxIter 500
|  7> end
|  8>
|  9> %tddft
| 10>  nroots 1
| 11> end
| 12>
| 13> # 	3790
| 14> * xyz 0 1
| 15> 		C   -1.258451  -0.264421   0.074581
| 16> 		O   -1.785323  -0.917039   0.913886
| 17> 		C    0.052114   0.387229   0.321290
| 18> 		C    1.176055   0.080402  -0.174603
| 19> 		H   -1.605019  -0.426509  -1.071095
| 20> 		H    0.118340   1.364248   0.939916
| 21> 		H    1.276004  -0.807777  -0.825071
| 22> 		H    2.069595   0.585219  -0.131411
| 23> *
| 24>
| 25>                          ****END OF INPUT****

CARTESIAN COORDINATES (ANGSTROEM)
---------------------------------
  C     -1.258451   -0.264421    0.074581
  O     -1.785323   -0.917039    0.913886
  C      0.052114    0.387229    0.321290
  C      1.176055    0.080402   -0.174603
  H     -1.605019   -0.426509   -1.071095
  H      0.118340    1.364248    0.939916
  H      1.276004   -0.807777   -0.825071
  H      2.069595    0.585219   -0.131411

 Total Charge           Charge          ....    0
 Multiplicity           Mult            ....    1
 Number of Electrons    NEL             ....   30
 Basis Dimension        Dim             ....   24

ORBITAL ENERGIES
----------------

  NO   OCC          E(Eh)            E(eV)
   0   2.0000     -20.385556      -554.7192
   1   2.0000     -11.309570      -307.7490
   2   2.0000     -11.196773      -304.6797
   3   2.0000     -11.182915      -304.3026
   4   2.0000      -1.428818       -38.8801
   5   2.0000      -1.096962       -29.8498
   6   2.0000      -0.878723       -23.9113
   7   2.0000      -0.756503       -20.5855
   8   2.0000      -0.681540       -18.5456
   9   2.0000      -0.662835       -18.0367
  10   2.0000      -0.607594       -16.5335
  11   2.0000      -0.543084       -14.7781
  12   2.0000      -0.502537       -13.6747
  13   2.0000      -0.421045       -11.4572
  14   2.0000      -0.408160       -11.1066
  15   0.0000       0.171926         4.6783
  16   0.0000       0.256798         6.9878
  17   0.0000       0.513732        13.9793
  18   0.0000       0.560124        15.2417
  19   0.0000       0.649449        17.6724

MULLIKEN ATOMIC CHARGES
-----------------------
   0 C :    0.183883
   1 O :   -0.343464
   2 C :   -0.161707
   3 C :   -0.257213
   4 H :    0.143406
   5 H :    0.157243
   6 H :    0.133644
   7 H :    0.144208
Sum of atomic charges:   -0.0000000

LOEWDIN ATOMIC CHARGES
----------------------
   0 C :    0.149406
   1 O :   -0.238470
   2 C :   -0.117875
   3 C :   -0.163583
   4 H :    0.086768
   5 H :    0.109131
   6 H :    0.085752
   7 H :    0.088871

  Mayer bond orders larger than 0.100000
B(  0-C ,  1-O ) :   1.9473 B(  0-C ,  2-C ) :   0.9874 B(  0-C ,  4-H ) :   0.9043
B(  2-C ,  3-C ) :   2.0072 B(  2-C ,  5-H ) :   0.9382 B(  3-C ,  6-H ) :   0.9603
B(  3-C ,  7-H ) :   0.9629

-----------------------------------------------------------------------------
         ABSORPTION SPECTRUM VIA TRANSITION ELECTRIC DIPOLE MOMENTS
-----------------------------------------------------------------------------
State   Energy    Wavelength  fosc         T2        TX        TY        TZ
        (cm-1)      (nm)                 (au**2)    (au)      (au)      (au)
-----------------------------------------------------------------------------
   1   34546.0    289.5   0.000460014   0.00438  -0.03542  -0.01121  -0.05481

Dispersion correction           -0.025178109
FINAL SINGLE POINT ENERGY      -189.302337405577

DIPOLE MOMENT
-------------
                                X             Y             Z
Electronic contribution:     -3.02151      -0.92396       1.40745
Nuclear contribution   :      3.53557       1.43088      -2.09437
                        -----------------------------------------
Total Dipole Moment    :      0.51406       0.50691      -0.68691
                        -----------------------------------------
Magnitude (a.u.)       :      0.99653
Magnitude (Debye)      :      2.53297

Rotational constants in cm-1:     1.168618     0.162011     0.159260
Rotational constants in MHz : 35034.298265  4856.973411  4774.494701

                             ****ORCA TERMINATED NORMALLY****
TOTAL RUN TIME: 0 days 0 hours 0 minutes 13 seconds 107 msec
