                         Program Version 5.0.3 -  RELEASE  -
|  1> ! B3LYP cc-pVDZ
|  2> !TightSCF
|  3> %scf
|  4>  ConvForced true
|  5>  convergence tight
|  6>  MaxIter 500
|  7> end
|  8>
|  9> %tddft
| 10>  nroots 1
| 11> end
| 12>
| 13> # 	31992
| 14> * xyz 0 1
| 15> 		C   -0.637529  -0.463791  -0.042944
| 16> 		O   -0.577889  -1.618606   0.019433
| 17> 		C    0.627471   0.429455   0.087521
| 18> 		C    1.908136  -0.115494  -0.035914
| 19> 		H   -1.677635   0.125972  -0.196413
| 20> 		H    0.290348   1.368545  -0.131022
| 21> 		H    2.091563  -1.209473  -0.043184
| 22> 		H    2.755279   0.457013  -0.045014
| 23> *
| 24>
| 25>                          ****END OF INPUT****

CARTESIAN COORDINATES (ANGSTROEM)
---------------------------------
  C     -0.637529   -0.463791   -0.042944
  O     -0.577889   -1.618606    0.019433
  C      0.627471    0.429455    0.087521
  C      1.908136   -0.115494   -0.035914
  H     -1.677635    0.125972   -0.196413
  H      0.290348    1.368545   -0.131022
  H      2.091563   -1.209473   -0.043184
  H      2.755279    0.457013   -0.045014

 Total Charge           Charge          ....    0
 Multiplicity           Mult            ....    1
 Number of Electrons    NEL             ....   30
 Basis Dimension        Dim             ....   76

ORBITAL ENERGIES
----------------

  NO   OCC          E(Eh)            E(eV)
   0   2.0000     -19.141652      -520.8708
   1   2.0000     -10.279657      -279.7237
   2   2.0000     -10.217729      -278.0386
   3   2.0000     -10.206736      -277.7394
   4   2.0000      -1.078346       -29.3433
   5   2.0000      -0.777054       -21.1447
   6   2.0000      -0.653638       -17.7864
   7   2.0000      -0.538701       -14.6588
   8   2.0000      -0.498450       -13.5635
   9   2.0000      -0.452158       -12.3038
  10   2.0000      -0.434575       -11.8254
  11   2.0000      -0.413395       -11.2491
  12   2.0000      -0.389377       -10.5955
  13   2.0000      -0.280776        -7.6403
  14   2.0000      -0.251643        -6.8476
  15   0.0000      -0.067216        -1.8290
  16   0.0000       0.049374         1.3435
  17   0.0000       0.068621         1.8673
  18   0.0000       0.092531         2.5179
  19   0.0000       0.121848         3.3156

MULLIKEN ATOMIC CHARGES
-----------------------
   0 C :    0.112526
   1 O :   -0.133640
   2 C :   -0.075301
   3 C :    0.074267
   4 H :   -0.019885
   5 H :   -0.027693
   6 H :    0.050312
   7 H :    0.019413
Sum of atomic charges:    0.0000000

LOEWDIN ATOMIC CHARGES
----------------------
   0 C :   -0.069182
   1 O :    0.049516
   2 C :   -0.062753
   3 C :    0.036612
   4 H :   -0.007809
   5 H :    0.003106
   6 H :    0.039550
   7 H :    0.010959

  Mayer bond orders larger than 0.100000
B(  0-C ,  1-O ) :   2.2601 B(  0-C ,  2-C ) :   1.0075 B(  0-C ,  4-H ) :   0.8809
B(  2-C ,  3-C ) :   1.9499 B(  2-C ,  5-H ) :   0.9510 B(  3-C ,  6-H ) :   0.9464
B(  3-C ,  7-H ) :   0.9545

-----------------------------------------------------------------------------
         ABSORPTION SPECTRUM VIA TRANSITION ELECTRIC DIPOLE MOMENTS
-----------------------------------------------------------------------------
State   Energy    Wavelength  fosc         T2        TX        TY        TZ
        (cm-1)      (nm)                 (au**2)    (au)      (au)      (au)
-----------------------------------------------------------------------------
   1   28648.1    349.1   0.001229113   0.01412  -0.11582  -0.02120   0.01614

FINAL SINGLE POINT ENERGY      -191.649005915844

DIPOLE MOMENT
-------------
                                X             Y             Z
Electronic contribution:     -1.72121      -1.76674       0.28543
Nuclear contribution   :      2.09208       2.48312      -0.38938
                        -----------------------------------------
Total Dipole Moment    :      0.37087       0.71638      -0.10395
                        -----------------------------------------
Magnitude (a.u.)       :      0.81336
Magnitude (Debye)      :      2.06740

Rotational constants in cm-1:     0.740756     0.201560     0.159032
Rotational constants in MHz : 22207.316575  6042.629038  4767.656426

                             ****ORCA TERMINATED NORMALLY****
TOTAL RUN TIME: 0 days 0 hours 3 minutes 23 seconds 34 msec
