                         Program Version 5.0.3 -  RELEASE  -
|  1> ! B3LYP cc-pVDZ
|  2> !TightSCF
|  3> %scf
|  4>  ConvForced true
|  5>  convergence tight
|  6>  MaxIter 500
|  7> end
|  8>
|  9> %tddft
| 10>  nroots 1
| 11> end
| 12>
| 13> # 	32482
| 14> * xyz 0 1
| 15> 		C   -0.583952  -0.425885  -0.025383
| 16> 		O   -0.587061  -1.627930   0.013636
| 17> 		C    0.628906   0.399513  -0.001221
| 18> 		C    1.823447  -0.127099  -0.007653
| 19> 		H   -1.387905   0.063662   0.065233
| 20> 		H    0.656699   1.391785   0.073210
| 21> 		H    1.991644  -1.068139  -0.045451
| 22> 		H    2.762627   0.519089   0.107698
| 23> *
| 24>
| 25>                          ****END OF INPUT****

CARTESIAN COORDINATES (ANGSTROEM)
---------------------------------
  C     -0.583952   -0.425885   -0.025383
  O     -0.587061   -1.627930    0.013636
  C      0.628906    0.399513   -0.001221
  C      1.823447   -0.127099   -0.007653
  H     -1.387905    0.063662    0.065233
  H      0.656699    1.391785    0.073210
  H      1.991644   -1.068139   -0.045451
  H      2.762627    0.519089    0.107698

 Total Charge           Charge          ....    0
 Multiplicity           Mult            ....    1
 Number of Electrons    NEL             ....   30
 Basis Dimension        Dim             ....   76

ORBITAL ENERGIES
----------------

  NO   OCC          E(Eh)            E(eV)
   0   2.0000     -19.133741      -520.6556
   1   2.0000     -10.258038      -279.1354
   2   2.0000     -10.196617      -277.4640
   3   2.0000     -10.184811      -277.1428
   4   2.0000      -1.048538       -28.5322
   5   2.0000      -0.806696       -21.9513
   6   2.0000      -0.675073       -18.3697
   7   2.0000      -0.576803       -15.6956
   8   2.0000      -0.525535       -14.3005
   9   2.0000      -0.448923       -12.2158
  10   2.0000      -0.423578       -11.5261
  11   2.0000      -0.400738       -10.9046
  12   2.0000      -0.386148       -10.5076
  13   2.0000      -0.290099        -7.8940
  14   2.0000      -0.255563        -6.9542
  15   0.0000      -0.065923        -1.7938
  16   0.0000       0.067594         1.8393
  17   0.0000       0.071680         1.9505
  18   0.0000       0.110616         3.0100
  19   0.0000       0.140767         3.8305

MULLIKEN ATOMIC CHARGES
-----------------------
   0 C :    0.298710
   1 O :   -0.195473
   2 C :   -0.084964
   3 C :    0.129446
   4 H :   -0.076335
   5 H :   -0.064893
   6 H :   -0.037943
   7 H :    0.031452
Sum of atomic charges:   -0.0000000

LOEWDIN ATOMIC CHARGES
----------------------
   0 C :   -0.010398
   1 O :    0.009760
   2 C :   -0.060918
   3 C :    0.061493
   4 H :   -0.037687
   5 H :    0.007434
   6 H :   -0.014715
   7 H :    0.045030

  Mayer bond orders larger than 0.100000
B(  0-C ,  1-O ) :   2.2051 B(  0-C ,  2-C ) :   1.0556 B(  0-C ,  4-H ) :   0.9373
B(  2-C ,  3-C ) :   1.9921 B(  2-C ,  5-H ) :   0.9365 B(  3-C ,  6-H ) :   0.9378
B(  3-C ,  7-H ) :   0.9459

-----------------------------------------------------------------------------
         ABSORPTION SPECTRUM VIA TRANSITION ELECTRIC DIPOLE MOMENTS
-----------------------------------------------------------------------------
State   Energy    Wavelength  fosc         T2        TX        TY        TZ
        (cm-1)      (nm)                 (au**2)    (au)      (au)      (au)
-----------------------------------------------------------------------------
   1   28256.3    353.9   0.000019586   0.00023  -0.01024  -0.00449  -0.01015

FINAL SINGLE POINT ENERGY      -191.626449055014

DIPOLE MOMENT
-------------
                                X             Y             Z
Electronic contribution:     -2.27809      -1.72074      -0.17081
Nuclear contribution   :      2.61626       2.63900       0.18788
                        -----------------------------------------
Total Dipole Moment    :      0.33817       0.91826       0.01707
                        -----------------------------------------
Magnitude (a.u.)       :      0.97870
Magnitude (Debye)      :      2.48765

Rotational constants in cm-1:     0.830984     0.210672     0.168181
Rotational constants in MHz : 24912.272659  6315.791332  5041.944747

                             ****ORCA TERMINATED NORMALLY****
TOTAL RUN TIME: 0 days 0 hours 3 minutes 16 seconds 721 msec
