                         Program Version 5.0.3 -  RELEASE  -
|  1> ! B3LYP cc-pVDZ
|  2> !TightSCF
|  3> %scf
|  4>  ConvForced true
|  5>  convergence tight
|  6>  MaxIter 500
|  7> end
|  8>
|  9> %tddft
| 10>  nroots 1
| 11> end
| 12>
| 13> # 	14360
| 14> * xyz 0 1
| 15> 		C   -1.163771  -0.405760  -0.071117
| 16> 		O   -1.236203  -1.588569  -0.014966
| 17> 		C   -0.026279   0.490572  -0.008930
| 18> 		C    1.198389  -0.035995  -0.006181
| 19> 		H   -2.216368   0.188031   0.089114
| 20> 		H   -0.090717   1.714526   0.092075
| 21> 		H    1.411279  -1.077304  -0.142069
| 22> 		H    2.135058   0.665838  -0.002027
| 23> *
| 24>
| 25>                          ****END OF INPUT****

CARTESIAN COORDINATES (ANGSTROEM)
---------------------------------
  C     -1.163771   -0.405760   -0.071117
  O     -1.236203   -1.588569   -0.014966
  C     -0.026279    0.490572   -0.008930
  C      1.198389   -0.035995   -0.006181
  H     -2.216368    0.188031    0.089114
  H     -0.090717    1.714526    0.092075
  H      1.411279   -1.077304   -0.142069
  H      2.135058    0.665838   -0.002027

 Total Charge           Charge          ....    0
 Multiplicity           Mult            ....    1
 Number of Electrons    NEL             ....   30
 Basis Dimension        Dim             ....   76

ORBITAL ENERGIES
----------------

  NO   OCC          E(Eh)            E(eV)
   0   2.0000     -19.142780      -520.9015
   1   2.0000     -10.281070      -279.7621
   2   2.0000     -10.223080      -278.1841
   3   2.0000     -10.219726      -278.0929
   4   2.0000      -1.062918       -28.9235
   5   2.0000      -0.802092       -21.8260
   6   2.0000      -0.651776       -17.7357
   7   2.0000      -0.531142       -14.4531
   8   2.0000      -0.500445       -13.6178
   9   2.0000      -0.453867       -12.3504
  10   2.0000      -0.413290       -11.2462
  11   2.0000      -0.408293       -11.1102
  12   2.0000      -0.378242       -10.2925
  13   2.0000      -0.295963        -8.0536
  14   2.0000      -0.252009        -6.8575
  15   0.0000      -0.071787        -1.9534
  16   0.0000       0.038677         1.0525
  17   0.0000       0.063828         1.7369
  18   0.0000       0.087806         2.3893
  19   0.0000       0.109321         2.9748

MULLIKEN ATOMIC CHARGES
-----------------------
   0 C :    0.163626
   1 O :   -0.160107
   2 C :   -0.149580
   3 C :    0.057958
   4 H :   -0.038847
   5 H :    0.042794
   6 H :    0.036448
   7 H :    0.047707
Sum of atomic charges:    0.0000000

LOEWDIN ATOMIC CHARGES
----------------------
   0 C :   -0.066759
   1 O :    0.022198
   2 C :   -0.102674
   3 C :    0.029229
   4 H :   -0.016846
   5 H :    0.061127
   6 H :    0.026787
   7 H :    0.046938

  Mayer bond orders larger than 0.100000
B(  0-C ,  1-O ) :   2.2254 B(  0-C ,  2-C ) :   1.0402 B(  0-C ,  4-H ) :   0.8943
B(  2-C ,  3-C ) :   1.9409 B(  2-C ,  5-H ) :   0.9332 B(  3-C ,  6-H ) :   0.9431
B(  3-C ,  7-H ) :   0.9422

-----------------------------------------------------------------------------
         ABSORPTION SPECTRUM VIA TRANSITION ELECTRIC DIPOLE MOMENTS
-----------------------------------------------------------------------------
State   Energy    Wavelength  fosc         T2        TX        TY        TZ
        (cm-1)      (nm)                 (au**2)    (au)      (au)      (au)
-----------------------------------------------------------------------------
   1   27252.8    366.9   0.000241112   0.00291   0.00242  -0.00620  -0.05356

FINAL SINGLE POINT ENERGY      -191.659874359497

DIPOLE MOMENT
-------------
                                X             Y             Z
Electronic contribution:     -1.76378      -2.12284      -0.15054
Nuclear contribution   :      2.38276       2.94293       0.11775
                        -----------------------------------------
Total Dipole Moment    :      0.61898       0.82009      -0.03279
                        -----------------------------------------
Magnitude (a.u.)       :      1.02799
Magnitude (Debye)      :      2.61293

Rotational constants in cm-1:     0.784153     0.204846     0.162634
Rotational constants in MHz : 23508.314140  6141.114690  4875.649457

                             ****ORCA TERMINATED NORMALLY****
TOTAL RUN TIME: 0 days 0 hours 3 minutes 15 seconds 424 msec
