                         Program Version 5.0.3 -  RELEASE  -
|  1> ! HF-3c
|  2> !TightSCF
|  3> %scf
|  4>  ConvForced true
|  5>  convergence tight
|  6>  MaxIter 500
|  7> end
|  8>
|  9> %tddft
| 10>  nroots 1
| 11> end
| 12>
| 13> # 	19080
| 14> * xyz 0 1
| 15> 		C   -1.140473  -0.361210  -0.073136
| 16> 		O   -1.230608  -1.578224   0.019426
| 17> 		C   -0.038911   0.585607   0.103844
| 18> 		C    1.186407  -0.066187  -0.033795
| 19> 		H   -2.036203   0.273733   0.049570
| 20> 		H   -0.164612   1.693224  -0.132404
| 21> 		H    1.392928  -1.092428   0.012144
| 22> 		H    2.054344   0.586534   0.090214
| 23> *
| 24>
| 25>                          ****END OF INPUT****

CARTESIAN COORDINATES (ANGSTROEM)
---------------------------------
  C     -1.140473   -0.361210   -0.073136
  O     -1.230608   -1.578224    0.019426
  C     -0.038911    0.585607    0.103844
  C      1.186407   -0.066187   -0.033795
  H     -2.036203    0.273733    0.049570
  H     -0.164612    1.693224   -0.132404
  H      1.392928   -1.092428    0.012144
  H      2.054344    0.586534    0.090214

 Total Charge           Charge          ....    0
 Multiplicity           Mult            ....    1
 Number of Electrons    NEL             ....   30
 Basis Dimension        Dim             ....   24

ORBITAL ENERGIES
----------------

  NO   OCC          E(Eh)            E(eV)
   0   2.0000     -20.352990      -553.8330
   1   2.0000     -11.282307      -307.0072
   2   2.0000     -11.197415      -304.6971
   3   2.0000     -11.185543      -304.3741
   4   2.0000      -1.382178       -37.6110
   5   2.0000      -1.075434       -29.2640
   6   2.0000      -0.896975       -24.4079
   7   2.0000      -0.743364       -20.2280
   8   2.0000      -0.692542       -18.8450
   9   2.0000      -0.613662       -16.6986
  10   2.0000      -0.564935       -15.3727
  11   2.0000      -0.550469       -14.9790
  12   2.0000      -0.528517       -14.3817
  13   2.0000      -0.394654       -10.7391
  14   2.0000      -0.380841       -10.3632
  15   0.0000       0.113516         3.0889
  16   0.0000       0.284017         7.7285
  17   0.0000       0.543905        14.8004
  18   0.0000       0.593369        16.1464
  19   0.0000       0.665432        18.1073

MULLIKEN ATOMIC CHARGES
-----------------------
   0 C :    0.160423
   1 O :   -0.360322
   2 C :   -0.174762
   3 C :   -0.197902
   4 H :    0.117601
   5 H :    0.155468
   6 H :    0.160876
   7 H :    0.138618
Sum of atomic charges:    0.0000000

LOEWDIN ATOMIC CHARGES
----------------------
   0 C :    0.146758
   1 O :   -0.271470
   2 C :   -0.140815
   3 C :   -0.088392
   4 H :    0.056446
   5 H :    0.106698
   6 H :    0.101995
   7 H :    0.088781

  Mayer bond orders larger than 0.100000
B(  0-C ,  1-O ) :   1.8891 B(  0-C ,  2-C ) :   1.0470 B(  0-C ,  4-H ) :   0.9256
B(  2-C ,  3-C ) :   1.9004 B(  2-C ,  5-H ) :   0.9569 B(  3-C ,  6-H ) :   0.9630
B(  3-C ,  7-H ) :   0.9686

-----------------------------------------------------------------------------
         ABSORPTION SPECTRUM VIA TRANSITION ELECTRIC DIPOLE MOMENTS
-----------------------------------------------------------------------------
State   Energy    Wavelength  fosc         T2        TX        TY        TZ
        (cm-1)      (nm)                 (au**2)    (au)      (au)      (au)
-----------------------------------------------------------------------------
   1   30216.8    330.9   0.000659150   0.00718   0.08415   0.00394  -0.00917

Dispersion correction           -0.025735409
FINAL SINGLE POINT ENERGY      -189.315813414027

DIPOLE MOMENT
-------------
                                X             Y             Z
Electronic contribution:     -1.84171      -1.79225      -0.08403
Nuclear contribution   :      2.38416       2.81753      -0.00111
                        -----------------------------------------
Total Dipole Moment    :      0.54245       1.02527      -0.08514
                        -----------------------------------------
Magnitude (a.u.)       :      1.16305
Magnitude (Debye)      :      2.95624

Rotational constants in cm-1:     0.721241     0.211100     0.164046
Rotational constants in MHz : 21622.256024  6328.626591  4917.975971

                             ****ORCA TERMINATED NORMALLY****
TOTAL RUN TIME: 0 days 0 hours 0 minutes 12 seconds 279 msec
