                         Program Version 5.0.3 -  RELEASE  -
|  1> ! HF-3c
|  2> !TightSCF
|  3> %scf
|  4>  ConvForced true
|  5>  convergence tight
|  6>  MaxIter 500
|  7> end
|  8>
|  9> %tddft
| 10>  nroots 1
| 11> end
| 12>
| 13> # 	8435
| 14> * xyz 0 1
| 15> 		C   -1.239473  -0.369009   0.018037
| 16> 		O   -1.939527  -0.773467   0.869459
| 17> 		C    0.003394   0.411446   0.334162
| 18> 		C    1.196659   0.058344  -0.231694
| 19> 		H   -1.296780  -0.499807  -0.978777
| 20> 		H   -0.264861   1.362470   0.963032
| 21> 		H    1.391662  -0.812482  -0.884879
| 22> 		H    2.154322   0.608001  -0.059697
| 23> *
| 24>
| 25>                          ****END OF INPUT****

CARTESIAN COORDINATES (ANGSTROEM)
---------------------------------
  C     -1.239473   -0.369009    0.018037
  O     -1.939527   -0.773467    0.869459
  C      0.003394    0.411446    0.334162
  C      1.196659    0.058344   -0.231694
  H     -1.296780   -0.499807   -0.978777
  H     -0.264861    1.362470    0.963032
  H      1.391662   -0.812482   -0.884879
  H      2.154322    0.608001   -0.059697

 Total Charge           Charge          ....    0
 Multiplicity           Mult            ....    1
 Number of Electrons    NEL             ....   30
 Basis Dimension        Dim             ....   24

ORBITAL ENERGIES
----------------

  NO   OCC          E(Eh)            E(eV)
   0   2.0000     -20.391878      -554.8912
   1   2.0000     -11.311952      -307.8139
   2   2.0000     -11.181059      -304.2521
   3   2.0000     -11.176019      -304.1149
   4   2.0000      -1.438358       -39.1397
   5   2.0000      -1.060484       -28.8572
   6   2.0000      -0.887393       -24.1472
   7   2.0000      -0.784405       -21.3447
   8   2.0000      -0.669369       -18.2144
   9   2.0000      -0.637870       -17.3573
  10   2.0000      -0.609687       -16.5904
  11   2.0000      -0.545612       -14.8469
  12   2.0000      -0.523198       -14.2369
  13   2.0000      -0.409020       -11.1300
  14   2.0000      -0.386303       -10.5119
  15   0.0000       0.159106         4.3295
  16   0.0000       0.257786         7.0147
  17   0.0000       0.515173        14.0186
  18   0.0000       0.593789        16.1578
  19   0.0000       0.668071        18.1791

MULLIKEN ATOMIC CHARGES
-----------------------
   0 C :    0.164692
   1 O :   -0.344038
   2 C :   -0.149619
   3 C :   -0.241651
   4 H :    0.141972
   5 H :    0.155064
   6 H :    0.136603
   7 H :    0.136977
Sum of atomic charges:    0.0000000

LOEWDIN ATOMIC CHARGES
----------------------
   0 C :    0.147936
   1 O :   -0.235644
   2 C :   -0.115298
   3 C :   -0.152686
   4 H :    0.067611
   5 H :    0.108743
   6 H :    0.089258
   7 H :    0.090079

  Mayer bond orders larger than 0.100000
B(  0-C ,  1-O ) :   1.9405 B(  0-C ,  2-C ) :   0.9868 B(  0-C ,  4-H ) :   0.9252
B(  2-C ,  3-C ) :   1.9840 B(  2-C ,  5-H ) :   0.9496 B(  3-C ,  6-H ) :   0.9655
B(  3-C ,  7-H ) :   0.9650

-----------------------------------------------------------------------------
         ABSORPTION SPECTRUM VIA TRANSITION ELECTRIC DIPOLE MOMENTS
-----------------------------------------------------------------------------
State   Energy    Wavelength  fosc         T2        TX        TY        TZ
        (cm-1)      (nm)                 (au**2)    (au)      (au)      (au)
-----------------------------------------------------------------------------
   1   35221.2    283.9   0.000046898   0.00044  -0.00450   0.01204  -0.01653

Dispersion correction           -0.025085163
FINAL SINGLE POINT ENERGY      -189.303097962945

DIPOLE MOMENT
-------------
                                X             Y             Z
Electronic contribution:     -3.13372      -0.93302       1.20720
Nuclear contribution   :      3.81563       1.31170      -1.85509
                        -----------------------------------------
Total Dipole Moment    :      0.68191       0.37868      -0.64789
                        -----------------------------------------
Magnitude (a.u.)       :      1.01398
Magnitude (Debye)      :      2.57733

Rotational constants in cm-1:     1.241665     0.158050     0.150118
Rotational constants in MHz : 37224.194986  4738.211425  4500.435520

                             ****ORCA TERMINATED NORMALLY****
TOTAL RUN TIME: 0 days 0 hours 0 minutes 11 seconds 421 msec
