                         Program Version 5.0.3 -  RELEASE  -
|  1> ! HF-3c
|  2> !TightSCF
|  3> %scf
|  4>  ConvForced true
|  5>  convergence tight
|  6>  MaxIter 500
|  7> end
|  8>
|  9> %tddft
| 10>  nroots 1
| 11> end
| 12>
| 13> # 	7045
| 14> * xyz 0 1
| 15> 		C   -1.218076  -0.317339  -0.000627
| 16> 		O   -1.272817  -1.403313   0.396108
| 17> 		C    0.029362   0.564199   0.086834
| 18> 		C    1.238133  -0.024312  -0.008468
| 19> 		H   -2.234196   0.043150  -0.486289
| 20> 		H   -0.087241   1.544326   0.068693
| 21> 		H    1.493153  -1.086779  -0.018701
| 22> 		H    1.989076   0.687192  -0.077847
| 23> *
| 24>
| 25>                          ****END OF INPUT****

CARTESIAN COORDINATES (ANGSTROEM)
---------------------------------
  C     -1.218076   -0.317339   -0.000627
  O     -1.272817   -1.403313    0.396108
  C      0.029362    0.564199    0.086834
  C      1.238133   -0.024312   -0.008468
  H     -2.234196    0.043150   -0.486289
  H     -0.087241    1.544326    0.068693
  H      1.493153   -1.086779   -0.018701
  H      1.989076    0.687192   -0.077847

 Total Charge           Charge          ....    0
 Multiplicity           Mult            ....    1
 Number of Electrons    NEL             ....   30
 Basis Dimension        Dim             ....   24

ORBITAL ENERGIES
----------------

  NO   OCC          E(Eh)            E(eV)
   0   2.0000     -20.373276      -554.3850
   1   2.0000     -11.302315      -307.5516
   2   2.0000     -11.194400      -304.6151
   3   2.0000     -11.192827      -304.5723
   4   2.0000      -1.439708       -39.1765
   5   2.0000      -1.080301       -29.3965
   6   2.0000      -0.876080       -23.8393
   7   2.0000      -0.755676       -20.5630
   8   2.0000      -0.717182       -19.5155
   9   2.0000      -0.620523       -16.8853
  10   2.0000      -0.607818       -16.5396
  11   2.0000      -0.560385       -15.2489
  12   2.0000      -0.549250       -14.9459
  13   2.0000      -0.401855       -10.9350
  14   2.0000      -0.396589       -10.7917
  15   0.0000       0.151957         4.1350
  16   0.0000       0.289424         7.8756
  17   0.0000       0.505734        13.7617
  18   0.0000       0.626926        17.0595
  19   0.0000       0.672370        18.2961

MULLIKEN ATOMIC CHARGES
-----------------------
   0 C :    0.189954
   1 O :   -0.368698
   2 C :   -0.179084
   3 C :   -0.225635
   4 H :    0.132640
   5 H :    0.143217
   6 H :    0.164005
   7 H :    0.143600
Sum of atomic charges:   -0.0000000

LOEWDIN ATOMIC CHARGES
----------------------
   0 C :    0.147747
   1 O :   -0.254887
   2 C :   -0.128916
   3 C :   -0.121384
   4 H :    0.074537
   5 H :    0.083413
   6 H :    0.109710
   7 H :    0.089779

  Mayer bond orders larger than 0.100000
B(  0-C ,  1-O ) :   1.9317 B(  0-C ,  2-C ) :   0.9870 B(  0-C ,  4-H ) :   0.9120
B(  2-C ,  3-C ) :   1.9651 B(  2-C ,  5-H ) :   0.9648 B(  3-C ,  6-H ) :   0.9614
B(  3-C ,  7-H ) :   0.9661

-----------------------------------------------------------------------------
         ABSORPTION SPECTRUM VIA TRANSITION ELECTRIC DIPOLE MOMENTS
-----------------------------------------------------------------------------
State   Energy    Wavelength  fosc         T2        TX        TY        TZ
        (cm-1)      (nm)                 (au**2)    (au)      (au)      (au)
-----------------------------------------------------------------------------
   1   36141.7    276.7   0.000140037   0.00128  -0.03550   0.00365   0.00136

Dispersion correction           -0.025399472
FINAL SINGLE POINT ENERGY      -189.301792500499

DIPOLE MOMENT
-------------
                                X             Y             Z
Electronic contribution:     -1.99379      -1.55853       0.57209
Nuclear contribution   :      2.32013       2.34235      -0.93029
                        -----------------------------------------
Total Dipole Moment    :      0.32634       0.78382      -0.35820
                        -----------------------------------------
Magnitude (a.u.)       :      0.92151
Magnitude (Debye)      :      2.34230

Rotational constants in cm-1:     0.796758     0.201728     0.163973
Rotational constants in MHz : 23886.214935  6047.662376  4915.798154

                             ****ORCA TERMINATED NORMALLY****
TOTAL RUN TIME: 0 days 0 hours 0 minutes 10 seconds 430 msec
