                         Program Version 5.0.3 -  RELEASE  -
|  1> ! HF-3c
|  2> !TightSCF
|  3> %scf
|  4>  ConvForced true
|  5>  convergence tight
|  6>  MaxIter 500
|  7> end
|  8>
|  9> %tddft
| 10>  nroots 1
| 11> end
| 12>
| 13> # 	13580
| 14> * xyz 0 1
| 15> 		C   -1.268099  -0.320073   0.008708
| 16> 		O   -1.136572  -1.505479   0.011813
| 17> 		C    0.047627   0.507582  -0.021933
| 18> 		C    1.264474  -0.047199   0.015897
| 19> 		H   -2.161389   0.251520  -0.001404
| 20> 		H   -0.139719   1.611694  -0.047292
| 21> 		H    1.460829  -1.130671  -0.100400
| 22> 		H    1.943392   0.590630   0.105947
| 23> *
| 24>
| 25>                          ****END OF INPUT****

CARTESIAN COORDINATES (ANGSTROEM)
---------------------------------
  C     -1.268099   -0.320073    0.008708
  O     -1.136572   -1.505479    0.011813
  C      0.047627    0.507582   -0.021933
  C      1.264474   -0.047199    0.015897
  H     -2.161389    0.251520   -0.001404
  H     -0.139719    1.611694   -0.047292
  H      1.460829   -1.130671   -0.100400
  H      1.943392    0.590630    0.105947

 Total Charge           Charge          ....    0
 Multiplicity           Mult            ....    1
 Number of Electrons    NEL             ....   30
 Basis Dimension        Dim             ....   24

ORBITAL ENERGIES
----------------

  NO   OCC          E(Eh)            E(eV)
   0   2.0000     -20.380836      -554.5907
   1   2.0000     -11.303895      -307.5946
   2   2.0000     -11.183794      -304.3265
   3   2.0000     -11.181626      -304.2675
   4   2.0000      -1.421675       -38.6857
   5   2.0000      -1.070177       -29.1210
   6   2.0000      -0.896987       -24.4082
   7   2.0000      -0.765014       -20.8171
   8   2.0000      -0.698592       -19.0097
   9   2.0000      -0.621276       -16.9058
  10   2.0000      -0.609009       -16.5720
  11   2.0000      -0.549881       -14.9630
  12   2.0000      -0.542899       -14.7730
  13   2.0000      -0.412271       -11.2185
  14   2.0000      -0.391751       -10.6601
  15   0.0000       0.138609         3.7718
  16   0.0000       0.296398         8.0654
  17   0.0000       0.534711        14.5502
  18   0.0000       0.601417        16.3654
  19   0.0000       0.687269        18.7015

MULLIKEN ATOMIC CHARGES
-----------------------
   0 C :    0.165653
   1 O :   -0.346468
   2 C :   -0.137477
   3 C :   -0.268730
   4 H :    0.144098
   5 H :    0.133638
   6 H :    0.168908
   7 H :    0.140379
Sum of atomic charges:   -0.0000000

LOEWDIN ATOMIC CHARGES
----------------------
   0 C :    0.145938
   1 O :   -0.243934
   2 C :   -0.099827
   3 C :   -0.160449
   4 H :    0.075851
   5 H :    0.085596
   6 H :    0.116206
   7 H :    0.080620

  Mayer bond orders larger than 0.100000
B(  0-C ,  1-O ) :   1.9321 B(  0-C ,  2-C ) :   0.9891 B(  0-C ,  4-H ) :   0.9265
B(  2-C ,  3-C ) :   1.9708 B(  2-C ,  5-H ) :   0.9632 B(  3-C ,  6-H ) :   0.9568
B(  3-C ,  7-H ) :   0.9694

-----------------------------------------------------------------------------
         ABSORPTION SPECTRUM VIA TRANSITION ELECTRIC DIPOLE MOMENTS
-----------------------------------------------------------------------------
State   Energy    Wavelength  fosc         T2        TX        TY        TZ
        (cm-1)      (nm)                 (au**2)    (au)      (au)      (au)
-----------------------------------------------------------------------------
   1   32916.3    303.8   0.000011243   0.00011  -0.00378   0.00106   0.00985

Dispersion correction           -0.025637946
FINAL SINGLE POINT ENERGY      -189.311718588170

DIPOLE MOMENT
-------------
                                X             Y             Z
Electronic contribution:     -2.11178      -1.76440       0.03302
Nuclear contribution   :      2.12983       2.63481      -0.05224
                        -----------------------------------------
Total Dipole Moment    :      0.01805       0.87041      -0.01922
                        -----------------------------------------
Magnitude (a.u.)       :      0.87081
Magnitude (Debye)      :      2.21343

Rotational constants in cm-1:     0.733330     0.213073     0.165205
Rotational constants in MHz : 21984.667597  6387.758705  4952.725853

                             ****ORCA TERMINATED NORMALLY****
TOTAL RUN TIME: 0 days 0 hours 0 minutes 11 seconds 848 msec
