                         Program Version 5.0.3 -  RELEASE  -
|  1> ! B3LYP cc-pVDZ
|  2> !TightSCF
|  3> %scf
|  4>  ConvForced true
|  5>  convergence tight
|  6>  MaxIter 500
|  7> end
|  8>
|  9> %tddft
| 10>  nroots 1
| 11> end
| 12>
| 13> # 	21500
| 14> * xyz 0 1
| 15> 		C   -0.576272  -0.417866   0.062058
| 16> 		O   -0.574930  -1.661757  -0.036680
| 17> 		C    0.637547   0.444813  -0.046764
| 18> 		C    1.842591  -0.114377   0.032915
| 19> 		H   -1.577964   0.109569   0.244554
| 20> 		H    0.370016   1.472633  -0.330191
| 21> 		H    1.802479  -1.263714  -0.061995
| 22> 		H    2.786628   0.340158   0.145503
| 23> *
| 24>
| 25>                          ****END OF INPUT****

CARTESIAN COORDINATES (ANGSTROEM)
---------------------------------
  C     -0.576272   -0.417866    0.062058
  O     -0.574930   -1.661757   -0.036680
  C      0.637547    0.444813   -0.046764
  C      1.842591   -0.114377    0.032915
  H     -1.577964    0.109569    0.244554
  H      0.370016    1.472633   -0.330191
  H      1.802479   -1.263714   -0.061995
  H      2.786628    0.340158    0.145503

 Total Charge           Charge          ....    0
 Multiplicity           Mult            ....    1
 Number of Electrons    NEL             ....   30
 Basis Dimension        Dim             ....   76

ORBITAL ENERGIES
----------------

  NO   OCC          E(Eh)            E(eV)
   0   2.0000     -19.138824      -520.7939
   1   2.0000     -10.280254      -279.7399
   2   2.0000     -10.215990      -277.9912
   3   2.0000     -10.210230      -277.8345
   4   2.0000      -1.025885       -27.9158
   5   2.0000      -0.796394       -21.6710
   6   2.0000      -0.656449       -17.8629
   7   2.0000      -0.539635       -14.6842
   8   2.0000      -0.504208       -13.7202
   9   2.0000      -0.447036       -12.1645
  10   2.0000      -0.424654       -11.5554
  11   2.0000      -0.392790       -10.6884
  12   2.0000      -0.370022       -10.0688
  13   2.0000      -0.283752        -7.7213
  14   2.0000      -0.255724        -6.9586
  15   0.0000      -0.073299        -1.9946
  16   0.0000       0.039256         1.0682
  17   0.0000       0.074128         2.0171
  18   0.0000       0.090575         2.4647
  19   0.0000       0.116972         3.1830

MULLIKEN ATOMIC CHARGES
-----------------------
   0 C :    0.163758
   1 O :   -0.221200
   2 C :   -0.108810
   3 C :    0.080872
   4 H :    0.000608
   5 H :   -0.000608
   6 H :    0.058621
   7 H :    0.026758
Sum of atomic charges:   -0.0000000

LOEWDIN ATOMIC CHARGES
----------------------
   0 C :   -0.010241
   1 O :   -0.042191
   2 C :   -0.082083
   3 C :    0.028009
   4 H :    0.004929
   5 H :    0.029644
   6 H :    0.051531
   7 H :    0.020402

  Mayer bond orders larger than 0.100000
B(  0-C ,  1-O ) :   2.1377 B(  0-C ,  2-C ) :   1.0548 B(  0-C ,  4-H ) :   0.9157
B(  2-C ,  3-C ) :   1.9480 B(  2-C ,  5-H ) :   0.9542 B(  3-C ,  6-H ) :   0.9172
B(  3-C ,  7-H ) :   0.9514

-----------------------------------------------------------------------------
         ABSORPTION SPECTRUM VIA TRANSITION ELECTRIC DIPOLE MOMENTS
-----------------------------------------------------------------------------
State   Energy    Wavelength  fosc         T2        TX        TY        TZ
        (cm-1)      (nm)                 (au**2)    (au)      (au)      (au)
-----------------------------------------------------------------------------
   1   27144.8    368.4   0.000091402   0.00111  -0.00694  -0.01183   0.03034

FINAL SINGLE POINT ENERGY      -191.672187401828

DIPOLE MOMENT
-------------
                                X             Y             Z
Electronic contribution:     -1.61945      -1.47940       0.01252
Nuclear contribution   :      2.01603       2.40591      -0.00187
                        -----------------------------------------
Total Dipole Moment    :      0.39659       0.92651       0.01064
                        -----------------------------------------
Magnitude (a.u.)       :      1.00788
Magnitude (Debye)      :      2.56182

Rotational constants in cm-1:     0.730701     0.208686     0.163277
Rotational constants in MHz : 21905.878184  6256.249955  4894.922581

                             ****ORCA TERMINATED NORMALLY****
TOTAL RUN TIME: 0 days 0 hours 3 minutes 16 seconds 357 msec
