                         Program Version 5.0.3 -  RELEASE  -
|  1> ! HF-3c
|  2> !TightSCF
|  3> %scf
|  4>  ConvForced true
|  5>  convergence tight
|  6>  MaxIter 500
|  7> end
|  8>
|  9> %tddft
| 10>  nroots 1
| 11> end
| 12>
| 13> # 	19592
| 14> * xyz 0 1
| 15> 		C   -1.192836  -0.287951   0.040669
| 16> 		O   -1.623141  -1.060203   0.882611
| 17> 		C   -0.022138   0.498580   0.173209
| 18> 		C    1.230954   0.033458  -0.242282
| 19> 		H   -1.757781  -0.246784  -0.837521
| 20> 		H    0.018797   1.537301   0.662011
| 21> 		H    1.207743  -0.999286  -0.547288
| 22> 		H    2.159525   0.510122  -0.165096
| 23> *
| 24>
| 25>                          ****END OF INPUT****

CARTESIAN COORDINATES (ANGSTROEM)
---------------------------------
  C     -1.192836   -0.287951    0.040669
  O     -1.623141   -1.060203    0.882611
  C     -0.022138    0.498580    0.173209
  C      1.230954    0.033458   -0.242282
  H     -1.757781   -0.246784   -0.837521
  H      0.018797    1.537301    0.662011
  H      1.207743   -0.999286   -0.547288
  H      2.159525    0.510122   -0.165096

 Total Charge           Charge          ....    0
 Multiplicity           Mult            ....    1
 Number of Electrons    NEL             ....   30
 Basis Dimension        Dim             ....   24

ORBITAL ENERGIES
----------------

  NO   OCC          E(Eh)            E(eV)
   0   2.0000     -20.376343      -554.4685
   1   2.0000     -11.304547      -307.6124
   2   2.0000     -11.191828      -304.5451
   3   2.0000     -11.178864      -304.1923
   4   2.0000      -1.405397       -38.2428
   5   2.0000      -1.072246       -29.1773
   6   2.0000      -0.900391       -24.5009
   7   2.0000      -0.775466       -21.1015
   8   2.0000      -0.690185       -18.7809
   9   2.0000      -0.642077       -17.4718
  10   2.0000      -0.604712       -16.4551
  11   2.0000      -0.549829       -14.9616
  12   2.0000      -0.488113       -13.2822
  13   2.0000      -0.428770       -11.6674
  14   2.0000      -0.384244       -10.4558
  15   0.0000       0.175089         4.7644
  16   0.0000       0.186040         5.0624
  17   0.0000       0.597833        16.2679
  18   0.0000       0.625017        17.0076
  19   0.0000       0.693284        18.8652

MULLIKEN ATOMIC CHARGES
-----------------------
   0 C :    0.137465
   1 O :   -0.327048
   2 C :   -0.157945
   3 C :   -0.238128
   4 H :    0.146526
   5 H :    0.159769
   6 H :    0.135532
   7 H :    0.143829
Sum of atomic charges:   -0.0000000

LOEWDIN ATOMIC CHARGES
----------------------
   0 C :    0.134395
   1 O :   -0.237397
   2 C :   -0.117799
   3 C :   -0.143917
   4 H :    0.076264
   5 H :    0.111393
   6 H :    0.086344
   7 H :    0.090717

  Mayer bond orders larger than 0.100000
B(  0-C ,  1-O ) :   1.9282 B(  0-C ,  2-C ) :   1.0257 B(  0-C ,  4-H ) :   0.9255
B(  2-C ,  3-C ) :   1.9726 B(  2-C ,  5-H ) :   0.9427 B(  3-C ,  6-H ) :   0.9698
B(  3-C ,  7-H ) :   0.9688

-----------------------------------------------------------------------------
         ABSORPTION SPECTRUM VIA TRANSITION ELECTRIC DIPOLE MOMENTS
-----------------------------------------------------------------------------
State   Energy    Wavelength  fosc         T2        TX        TY        TZ
        (cm-1)      (nm)                 (au**2)    (au)      (au)      (au)
-----------------------------------------------------------------------------
   1   32692.1    305.9   0.000051825   0.00052  -0.02112  -0.00867   0.00085

Dispersion correction           -0.025263200
FINAL SINGLE POINT ENERGY      -189.308763465474

DIPOLE MOMENT
-------------
                                X             Y             Z
Electronic contribution:     -2.63000      -1.01888       1.11891
Nuclear contribution   :      3.12551       1.62469      -1.68580
                        -----------------------------------------
Total Dipole Moment    :      0.49550       0.60582      -0.56690
                        -----------------------------------------
Magnitude (a.u.)       :      0.96639
Magnitude (Debye)      :      2.45636

Rotational constants in cm-1:     0.985288     0.169704     0.159765
Rotational constants in MHz : 29538.194980  5087.609768  4789.641395

                             ****ORCA TERMINATED NORMALLY****
TOTAL RUN TIME: 0 days 0 hours 0 minutes 13 seconds 588 msec
