                         Program Version 5.0.3 -  RELEASE  -
|  1> ! HF-3c
|  2> !TightSCF
|  3> %scf
|  4>  ConvForced true
|  5>  convergence tight
|  6>  MaxIter 500
|  7> end
|  8>
|  9> %tddft
| 10>  nroots 1
| 11> end
| 12>
| 13> # 	5182
| 14> * xyz 0 1
| 15> 		C   -1.220608  -0.282409   0.072396
| 16> 		O   -1.242250  -1.482057   0.189104
| 17> 		C   -0.001755   0.543132   0.047344
| 18> 		C    1.209267   0.027476   0.002146
| 19> 		H   -2.123744   0.212617  -0.083483
| 20> 		H   -0.171173   1.726841  -0.118912
| 21> 		H    1.317213  -1.194734  -0.034743
| 22> 		H    2.235339   0.500344  -0.110439
| 23> *
| 24>
| 25>                          ****END OF INPUT****

CARTESIAN COORDINATES (ANGSTROEM)
---------------------------------
  C     -1.220608   -0.282409    0.072396
  O     -1.242250   -1.482057    0.189104
  C     -0.001755    0.543132    0.047344
  C      1.209267    0.027476    0.002146
  H     -2.123744    0.212617   -0.083483
  H     -0.171173    1.726841   -0.118912
  H      1.317213   -1.194734   -0.034743
  H      2.235339    0.500344   -0.110439

 Total Charge           Charge          ....    0
 Multiplicity           Mult            ....    1
 Number of Electrons    NEL             ....   30
 Basis Dimension        Dim             ....   24

ORBITAL ENERGIES
----------------

  NO   OCC          E(Eh)            E(eV)
   0   2.0000     -20.363276      -554.1129
   1   2.0000     -11.296997      -307.4069
   2   2.0000     -11.185452      -304.3716
   3   2.0000     -11.181862      -304.2739
   4   2.0000      -1.404747       -38.2251
   5   2.0000      -1.066561       -29.0226
   6   2.0000      -0.887243       -24.1431
   7   2.0000      -0.743250       -20.2249
   8   2.0000      -0.679337       -18.4857
   9   2.0000      -0.612819       -16.6757
  10   2.0000      -0.584013       -15.8918
  11   2.0000      -0.543117       -14.7790
  12   2.0000      -0.484847       -13.1933
  13   2.0000      -0.415342       -11.3020
  14   2.0000      -0.390549       -10.6274
  15   0.0000       0.138197         3.7605
  16   0.0000       0.319676         8.6988
  17   0.0000       0.467435        12.7195
  18   0.0000       0.573344        15.6015
  19   0.0000       0.579324        15.7642

MULLIKEN ATOMIC CHARGES
-----------------------
   0 C :    0.153349
   1 O :   -0.352746
   2 C :   -0.179657
   3 C :   -0.196992
   4 H :    0.136894
   5 H :    0.140984
   6 H :    0.152024
   7 H :    0.146143
Sum of atomic charges:   -0.0000000

LOEWDIN ATOMIC CHARGES
----------------------
   0 C :    0.141904
   1 O :   -0.257622
   2 C :   -0.147863
   3 C :   -0.110883
   4 H :    0.067879
   5 H :    0.098744
   6 H :    0.109268
   7 H :    0.098573

  Mayer bond orders larger than 0.100000
B(  0-C ,  1-O ) :   1.9014 B(  0-C ,  2-C ) :   1.0262 B(  0-C ,  4-H ) :   0.9326
B(  2-C ,  3-C ) :   1.9495 B(  2-C ,  5-H ) :   0.9506 B(  3-C ,  6-H ) :   0.9507
B(  3-C ,  7-H ) :   0.9619

-----------------------------------------------------------------------------
         ABSORPTION SPECTRUM VIA TRANSITION ELECTRIC DIPOLE MOMENTS
-----------------------------------------------------------------------------
State   Energy    Wavelength  fosc         T2        TX        TY        TZ
        (cm-1)      (nm)                 (au**2)    (au)      (au)      (au)
-----------------------------------------------------------------------------
   1   32922.5    303.7   0.000019647   0.00020  -0.01126  -0.00245   0.00798

Dispersion correction           -0.025357552
FINAL SINGLE POINT ENERGY      -189.314267216780

DIPOLE MOMENT
-------------
                                X             Y             Z
Electronic contribution:     -2.00345      -1.54614       0.41683
Nuclear contribution   :      2.42247       2.42263      -0.60144
                        -----------------------------------------
Total Dipole Moment    :      0.41903       0.87648      -0.18461
                        -----------------------------------------
Magnitude (a.u.)       :      0.98888
Magnitude (Debye)      :      2.51354

Rotational constants in cm-1:     0.766619     0.206414     0.162875
Rotational constants in MHz : 22982.667483  6188.130462  4882.857570

                             ****ORCA TERMINATED NORMALLY****
TOTAL RUN TIME: 0 days 0 hours 0 minutes 10 seconds 146 msec
