                         Program Version 5.0.3 -  RELEASE  -
|  1> ! B3LYP cc-pVDZ
|  2> !TightSCF
|  3> %scf
|  4>  ConvForced true
|  5>  convergence tight
|  6>  MaxIter 500
|  7> end
|  8>
|  9> %tddft
| 10>  nroots 1
| 11> end
| 12>
| 13> # 	16736
| 14> * xyz 0 1
| 15> 		C   -1.221100  -0.319781  -0.018695
| 16> 		O   -2.043361  -0.615286  -0.824024
| 17> 		C    0.080004   0.421938  -0.365104
| 18> 		C    1.191911   0.075708   0.248752
| 19> 		H   -1.315544  -0.775901   1.013318
| 20> 		H    0.049825   1.224112  -1.139832
| 21> 		H    1.231985  -0.557336   0.941807
| 22> 		H    2.019188   0.569999   0.101791
| 23> *
| 24>
| 25>                          ****END OF INPUT****

CARTESIAN COORDINATES (ANGSTROEM)
---------------------------------
  C     -1.221100   -0.319781   -0.018695
  O     -2.043361   -0.615286   -0.824024
  C      0.080004    0.421938   -0.365104
  C      1.191911    0.075708    0.248752
  H     -1.315544   -0.775901    1.013318
  H      0.049825    1.224112   -1.139832
  H      1.231985   -0.557336    0.941807
  H      2.019188    0.569999    0.101791

 Total Charge           Charge          ....    0
 Multiplicity           Mult            ....    1
 Number of Electrons    NEL             ....   30
 Basis Dimension        Dim             ....   76

ORBITAL ENERGIES
----------------

  NO   OCC          E(Eh)            E(eV)
   0   2.0000     -19.140920      -520.8509
   1   2.0000     -10.279257      -279.7128
   2   2.0000     -10.209383      -277.8114
   3   2.0000     -10.183165      -277.0980
   4   2.0000      -1.060768       -28.8650
   5   2.0000      -0.805921       -21.9302
   6   2.0000      -0.649610       -17.6768
   7   2.0000      -0.573272       -15.5995
   8   2.0000      -0.492567       -13.4034
   9   2.0000      -0.477368       -12.9898
  10   2.0000      -0.430646       -11.7185
  11   2.0000      -0.405014       -11.0210
  12   2.0000      -0.393181       -10.6990
  13   2.0000      -0.293985        -7.9997
  14   2.0000      -0.253424        -6.8960
  15   0.0000      -0.052384        -1.4254
  16   0.0000       0.033548         0.9129
  17   0.0000       0.082218         2.2373
  18   0.0000       0.092558         2.5186
  19   0.0000       0.125872         3.4251

MULLIKEN ATOMIC CHARGES
-----------------------
   0 C :    0.159783
   1 O :   -0.167615
   2 C :   -0.144715
   3 C :    0.231526
   4 H :   -0.018449
   5 H :    0.013563
   6 H :   -0.054677
   7 H :   -0.019417
Sum of atomic charges:   -0.0000000

LOEWDIN ATOMIC CHARGES
----------------------
   0 C :   -0.041278
   1 O :    0.023038
   2 C :   -0.038189
   3 C :    0.031690
   4 H :   -0.006145
   5 H :    0.038225
   6 H :   -0.014312
   7 H :    0.006972

  Mayer bond orders larger than 0.100000
B(  0-C ,  1-O ) :   2.2111 B(  0-C ,  2-C ) :   1.0003 B(  0-C ,  4-H ) :   0.9127
B(  2-C ,  3-C ) :   2.0019 B(  2-C ,  5-H ) :   0.9449 B(  3-C ,  6-H ) :   0.9367
B(  3-C ,  7-H ) :   0.9350

-----------------------------------------------------------------------------
         ABSORPTION SPECTRUM VIA TRANSITION ELECTRIC DIPOLE MOMENTS
-----------------------------------------------------------------------------
State   Energy    Wavelength  fosc         T2        TX        TY        TZ
        (cm-1)      (nm)                 (au**2)    (au)      (au)      (au)
-----------------------------------------------------------------------------
   1   30945.4    323.2   0.000451801   0.00481   0.05266  -0.02041   0.04021

FINAL SINGLE POINT ENERGY      -191.628771298933

DIPOLE MOMENT
-------------
                                X             Y             Z
Electronic contribution:     -3.02713      -0.60888      -1.25886
Nuclear contribution   :      3.85386       0.91001       1.78101
                        -----------------------------------------
Total Dipole Moment    :      0.82673       0.30113       0.52216
                        -----------------------------------------
Magnitude (a.u.)       :      1.02314
Magnitude (Debye)      :      2.60061

Rotational constants in cm-1:     1.377960     0.157212     0.146065
Rotational constants in MHz : 41310.212710  4713.083163  4378.925907

                             ****ORCA TERMINATED NORMALLY****
TOTAL RUN TIME: 0 days 0 hours 3 minutes 15 seconds 978 msec
