                         Program Version 5.0.3 -  RELEASE  -
|  1> ! B3LYP cc-pVDZ
|  2> !TightSCF
|  3> %scf
|  4>  ConvForced true
|  5>  convergence tight
|  6>  MaxIter 500
|  7> end
|  8>
|  9> %tddft
| 10>  nroots 1
| 11> end
| 12>
| 13> # 	3747
| 14> * xyz 0 1
| 15> 		C   -1.156490  -0.343097  -0.018663
| 16> 		O   -1.419972  -1.398190  -0.653060
| 17> 		C    0.015374   0.505305  -0.137009
| 18> 		C    1.187992   0.026000   0.178007
| 19> 		H   -2.024354   0.005884   0.694849
| 20> 		H   -0.018323   1.479429  -0.529425
| 21> 		H    1.315521  -0.989179   0.397268
| 22> 		H    2.071154   0.648242   0.039985
| 23> *
| 24>
| 25>                          ****END OF INPUT****

CARTESIAN COORDINATES (ANGSTROEM)
---------------------------------
  C     -1.156490   -0.343097   -0.018663
  O     -1.419972   -1.398190   -0.653060
  C      0.015374    0.505305   -0.137009
  C      1.187992    0.026000    0.178007
  H     -2.024354    0.005884    0.694849
  H     -0.018323    1.479429   -0.529425
  H      1.315521   -0.989179    0.397268
  H      2.071154    0.648242    0.039985

 Total Charge           Charge          ....    0
 Multiplicity           Mult            ....    1
 Number of Electrons    NEL             ....   30
 Basis Dimension        Dim             ....   76

ORBITAL ENERGIES
----------------

  NO   OCC          E(Eh)            E(eV)
   0   2.0000     -19.143967      -520.9338
   1   2.0000     -10.286795      -279.9179
   2   2.0000     -10.203804      -277.6596
   3   2.0000     -10.201519      -277.5975
   4   2.0000      -1.023795       -27.8589
   5   2.0000      -0.813974       -22.1494
   6   2.0000      -0.657534       -17.8924
   7   2.0000      -0.557948       -15.1825
   8   2.0000      -0.505758       -13.7624
   9   2.0000      -0.450131       -12.2487
  10   2.0000      -0.435966       -11.8632
  11   2.0000      -0.395237       -10.7549
  12   2.0000      -0.365125        -9.9356
  13   2.0000      -0.294724        -8.0199
  14   2.0000      -0.254374        -6.9219
  15   0.0000      -0.052242        -1.4216
  16   0.0000       0.000017         0.0005
  17   0.0000       0.077257         2.1023
  18   0.0000       0.093427         2.5423
  19   0.0000       0.109319         2.9747

MULLIKEN ATOMIC CHARGES
-----------------------
   0 C :    0.148909
   1 O :   -0.217027
   2 C :   -0.039731
   3 C :    0.072608
   4 H :    0.003227
   5 H :   -0.003187
   6 H :    0.010968
   7 H :    0.024233
Sum of atomic charges:   -0.0000000

LOEWDIN ATOMIC CHARGES
----------------------
   0 C :    0.002948
   1 O :   -0.040681
   2 C :   -0.060806
   3 C :    0.006906
   4 H :    0.005029
   5 H :    0.032688
   6 H :    0.020399
   7 H :    0.033518

  Mayer bond orders larger than 0.100000
B(  0-C ,  1-O ) :   2.1745 B(  0-C ,  2-C ) :   0.9991 B(  0-C ,  4-H ) :   0.9117
B(  2-C ,  3-C ) :   2.0336 B(  2-C ,  5-H ) :   0.9364 B(  3-C ,  6-H ) :   0.9438
B(  3-C ,  7-H ) :   0.9420

-----------------------------------------------------------------------------
         ABSORPTION SPECTRUM VIA TRANSITION ELECTRIC DIPOLE MOMENTS
-----------------------------------------------------------------------------
State   Energy    Wavelength  fosc         T2        TX        TY        TZ
        (cm-1)      (nm)                 (au**2)    (au)      (au)      (au)
-----------------------------------------------------------------------------
   1   29612.7    337.7   0.000295344   0.00328  -0.05161   0.02390  -0.00700

FINAL SINGLE POINT ENERGY      -191.652147268210

DIPOLE MOMENT
-------------
                                X             Y             Z
Electronic contribution:     -2.12157      -1.48308      -0.84527
Nuclear contribution   :      2.63769       2.32676       1.19903
                        -----------------------------------------
Total Dipole Moment    :      0.51612       0.84367       0.35377
                        -----------------------------------------
Magnitude (a.u.)       :      1.05039
Magnitude (Debye)      :      2.66988

Rotational constants in cm-1:     0.877454     0.184161     0.161821
Rotational constants in MHz : 26305.414201  5521.003683  4851.266873

                             ****ORCA TERMINATED NORMALLY****
TOTAL RUN TIME: 0 days 0 hours 3 minutes 15 seconds 856 msec
