                         Program Version 5.0.3 -  RELEASE  -
|  1> ! B3LYP cc-pVDZ
|  2> !TightSCF
|  3> %scf
|  4>  ConvForced true
|  5>  convergence tight
|  6>  MaxIter 500
|  7> end
|  8>
|  9> %tddft
| 10>  nroots 1
| 11> end
| 12>
| 13> # 	14128
| 14> * xyz 0 1
| 15> 		C   -1.279784  -0.336764   0.063749
| 16> 		O   -1.526644  -1.349681   0.587202
| 17> 		C    0.000381   0.509397   0.266343
| 18> 		C    1.238479   0.063911  -0.112116
| 19> 		H   -1.775542   0.006216  -0.872183
| 20> 		H   -0.262500   1.390703   0.514915
| 21> 		H    1.387697  -0.941739  -0.410894
| 22> 		H    2.268491   0.625600   0.012916
| 23> *
| 24>
| 25>                          ****END OF INPUT****

CARTESIAN COORDINATES (ANGSTROEM)
---------------------------------
  C     -1.279784   -0.336764    0.063749
  O     -1.526644   -1.349681    0.587202
  C      0.000381    0.509397    0.266343
  C      1.238479    0.063911   -0.112116
  H     -1.775542    0.006216   -0.872183
  H     -0.262500    1.390703    0.514915
  H      1.387697   -0.941739   -0.410894
  H      2.268491    0.625600    0.012916

 Total Charge           Charge          ....    0
 Multiplicity           Mult            ....    1
 Number of Electrons    NEL             ....   30
 Basis Dimension        Dim             ....   76

ORBITAL ENERGIES
----------------

  NO   OCC          E(Eh)            E(eV)
   0   2.0000     -19.149847      -521.0938
   1   2.0000     -10.280937      -279.7585
   2   2.0000     -10.215052      -277.9657
   3   2.0000     -10.198899      -277.5262
   4   2.0000      -1.078766       -29.3547
   5   2.0000      -0.785239       -21.3674
   6   2.0000      -0.651412       -17.7258
   7   2.0000      -0.564992       -15.3742
   8   2.0000      -0.490832       -13.3562
   9   2.0000      -0.460493       -12.5306
  10   2.0000      -0.452990       -12.3265
  11   2.0000      -0.397013       -10.8033
  12   2.0000      -0.387034       -10.5317
  13   2.0000      -0.280974        -7.6457
  14   2.0000      -0.253210        -6.8902
  15   0.0000      -0.039026        -1.0620
  16   0.0000      -0.003110        -0.0846
  17   0.0000       0.076845         2.0911
  18   0.0000       0.097590         2.6556
  19   0.0000       0.119159         3.2425

MULLIKEN ATOMIC CHARGES
-----------------------
   0 C :    0.138946
   1 O :   -0.136848
   2 C :   -0.003957
   3 C :   -0.003825
   4 H :   -0.012454
   5 H :   -0.056639
   6 H :    0.022400
   7 H :    0.052376
Sum of atomic charges:    0.0000000

LOEWDIN ATOMIC CHARGES
----------------------
   0 C :   -0.042524
   1 O :    0.056222
   2 C :   -0.030891
   3 C :   -0.022399
   4 H :   -0.007801
   5 H :   -0.017683
   6 H :    0.018776
   7 H :    0.046301

  Mayer bond orders larger than 0.100000
B(  0-C ,  1-O ) :   2.2788 B(  0-C ,  2-C ) :   0.9678 B(  0-C ,  4-H ) :   0.8977
B(  2-C ,  3-C ) :   2.0149 B(  2-C ,  5-H ) :   0.9490 B(  3-C ,  6-H ) :   0.9444
B(  3-C ,  7-H ) :   0.9536

-----------------------------------------------------------------------------
         ABSORPTION SPECTRUM VIA TRANSITION ELECTRIC DIPOLE MOMENTS
-----------------------------------------------------------------------------
State   Energy    Wavelength  fosc         T2        TX        TY        TZ
        (cm-1)      (nm)                 (au**2)    (au)      (au)      (au)
-----------------------------------------------------------------------------
   1   33161.2    301.6   0.000381179   0.00378   0.01386   0.02571   0.05414

FINAL SINGLE POINT ENERGY      -191.613710054654

DIPOLE MOMENT
-------------
                                X             Y             Z
Electronic contribution:     -2.72116      -1.51484       1.11607
Nuclear contribution   :      3.06029       2.18095      -1.45597
                        -----------------------------------------
Total Dipole Moment    :      0.33913       0.66611      -0.33990
                        -----------------------------------------
Magnitude (a.u.)       :      0.82112
Magnitude (Debye)      :      2.08713

Rotational constants in cm-1:     0.905171     0.172341     0.154013
Rotational constants in MHz : 27136.354658  5166.656840  4617.184416

                             ****ORCA TERMINATED NORMALLY****
TOTAL RUN TIME: 0 days 0 hours 2 minutes 58 seconds 396 msec
