                         Program Version 5.0.3 -  RELEASE  -
|  1> ! B3LYP cc-pVDZ
|  2> !TightSCF
|  3> %scf
|  4>  ConvForced true
|  5>  convergence tight
|  6>  MaxIter 500
|  7> end
|  8>
|  9> %tddft
| 10>  nroots 1
| 11> end
| 12>
| 13> # 	19854
| 14> * xyz 0 1
| 15> 		C   -1.186374  -0.328896  -0.036303
| 16> 		O   -1.909212  -0.683242  -0.904512
| 17> 		C    0.068682   0.506111  -0.252090
| 18> 		C    1.213768   0.106524   0.309682
| 19> 		H   -1.457579  -0.747140   1.004672
| 20> 		H   -0.024408   1.297765  -0.932791
| 21> 		H    1.231860  -0.821717   0.881629
| 22> 		H    2.105065   0.614878  -0.066397
| 23> *
| 24>
| 25>                          ****END OF INPUT****

CARTESIAN COORDINATES (ANGSTROEM)
---------------------------------
  C     -1.186374   -0.328896   -0.036303
  O     -1.909212   -0.683242   -0.904512
  C      0.068682    0.506111   -0.252090
  C      1.213768    0.106524    0.309682
  H     -1.457579   -0.747140    1.004672
  H     -0.024408    1.297765   -0.932791
  H      1.231860   -0.821717    0.881629
  H      2.105065    0.614878   -0.066397

 Total Charge           Charge          ....    0
 Multiplicity           Mult            ....    1
 Number of Electrons    NEL             ....   30
 Basis Dimension        Dim             ....   76

ORBITAL ENERGIES
----------------

  NO   OCC          E(Eh)            E(eV)
   0   2.0000     -19.139430      -520.8104
   1   2.0000     -10.278464      -279.6912
   2   2.0000     -10.211701      -277.8745
   3   2.0000     -10.206902      -277.7439
   4   2.0000      -1.063054       -28.9272
   5   2.0000      -0.798536       -21.7293
   6   2.0000      -0.635047       -17.2805
   7   2.0000      -0.566602       -15.4180
   8   2.0000      -0.487824       -13.2744
   9   2.0000      -0.463474       -12.6118
  10   2.0000      -0.430543       -11.7157
  11   2.0000      -0.400203       -10.8901
  12   2.0000      -0.392347       -10.6763
  13   2.0000      -0.291626        -7.9355
  14   2.0000      -0.250999        -6.8300
  15   0.0000      -0.048266        -1.3134
  16   0.0000       0.020464         0.5568
  17   0.0000       0.082820         2.2537
  18   0.0000       0.086223         2.3463
  19   0.0000       0.110129         2.9968

MULLIKEN ATOMIC CHARGES
-----------------------
   0 C :    0.135078
   1 O :   -0.165540
   2 C :   -0.056057
   3 C :    0.047503
   4 H :   -0.019762
   5 H :   -0.004938
   6 H :    0.026966
   7 H :    0.036749
Sum of atomic charges:    0.0000000

LOEWDIN ATOMIC CHARGES
----------------------
   0 C :   -0.046503
   1 O :    0.023214
   2 C :   -0.045378
   3 C :   -0.013170
   4 H :   -0.007219
   5 H :    0.021542
   6 H :    0.031068
   7 H :    0.036445

  Mayer bond orders larger than 0.100000
B(  0-C ,  1-O ) :   2.2177 B(  0-C ,  2-C ) :   0.9995 B(  0-C ,  4-H ) :   0.9107
B(  2-C ,  3-C ) :   1.9860 B(  2-C ,  5-H ) :   0.9486 B(  3-C ,  6-H ) :   0.9414
B(  3-C ,  7-H ) :   0.9393

-----------------------------------------------------------------------------
         ABSORPTION SPECTRUM VIA TRANSITION ELECTRIC DIPOLE MOMENTS
-----------------------------------------------------------------------------
State   Energy    Wavelength  fosc         T2        TX        TY        TZ
        (cm-1)      (nm)                 (au**2)    (au)      (au)      (au)
-----------------------------------------------------------------------------
   1   31580.7    316.6   0.000452200   0.00471   0.06286  -0.00311   0.02744

FINAL SINGLE POINT ENERGY      -191.652522894105

DIPOLE MOMENT
-------------
                                X             Y             Z
Electronic contribution:     -2.81157      -0.48217      -1.26012
Nuclear contribution   :      3.56148       0.79470       1.71409
                        -----------------------------------------
Total Dipole Moment    :      0.74991       0.31253       0.45397
                        -----------------------------------------
Magnitude (a.u.)       :      0.93066
Magnitude (Debye)      :      2.36554

Rotational constants in cm-1:     1.240759     0.158281     0.149238
Rotational constants in MHz : 37197.013975  4745.148918  4474.035342

                             ****ORCA TERMINATED NORMALLY****
TOTAL RUN TIME: 0 days 0 hours 2 minutes 58 seconds 28 msec
