                         Program Version 5.0.3 -  RELEASE  -
|  1> ! HF-3c
|  2> !TightSCF
|  3> %scf
|  4>  ConvForced true
|  5>  convergence tight
|  6>  MaxIter 500
|  7> end
|  8>
|  9> %tddft
| 10>  nroots 1
| 11> end
| 12>
| 13> # 	12486
| 14> * xyz 0 1
| 15> 		C   -1.212765  -0.353472   0.003830
| 16> 		O   -1.317487  -1.465619   0.442412
| 17> 		C    0.035007   0.521883   0.150682
| 18> 		C    1.226094   0.005588  -0.131873
| 19> 		H   -1.966635   0.182614  -0.601901
| 20> 		H   -0.259733   1.548051   0.253133
| 21> 		H    1.327730  -1.055333  -0.209696
| 22> 		H    2.157482   0.554867   0.078114
| 23> *
| 24>
| 25>                          ****END OF INPUT****

CARTESIAN COORDINATES (ANGSTROEM)
---------------------------------
  C     -1.212765   -0.353472    0.003830
  O     -1.317487   -1.465619    0.442412
  C      0.035007    0.521883    0.150682
  C      1.226094    0.005588   -0.131873
  H     -1.966635    0.182614   -0.601901
  H     -0.259733    1.548051    0.253133
  H      1.327730   -1.055333   -0.209696
  H      2.157482    0.554867    0.078114

 Total Charge           Charge          ....    0
 Multiplicity           Mult            ....    1
 Number of Electrons    NEL             ....   30
 Basis Dimension        Dim             ....   24

ORBITAL ENERGIES
----------------

  NO   OCC          E(Eh)            E(eV)
   0   2.0000     -20.379407      -554.5519
   1   2.0000     -11.299610      -307.4780
   2   2.0000     -11.188122      -304.4443
   3   2.0000     -11.184651      -304.3498
   4   2.0000      -1.412643       -38.4400
   5   2.0000      -1.075884       -29.2763
   6   2.0000      -0.889855       -24.2142
   7   2.0000      -0.753227       -20.4964
   8   2.0000      -0.693705       -18.8767
   9   2.0000      -0.620068       -16.8729
  10   2.0000      -0.613580       -16.6964
  11   2.0000      -0.543909       -14.8005
  12   2.0000      -0.526504       -14.3269
  13   2.0000      -0.410037       -11.1577
  14   2.0000      -0.398067       -10.8320
  15   0.0000       0.151537         4.1235
  16   0.0000       0.268049         7.2940
  17   0.0000       0.528874        14.3914
  18   0.0000       0.644594        17.5403
  19   0.0000       0.664486        18.0816

MULLIKEN ATOMIC CHARGES
-----------------------
   0 C :    0.179061
   1 O :   -0.350105
   2 C :   -0.163425
   3 C :   -0.240178
   4 H :    0.134828
   5 H :    0.142286
   6 H :    0.151256
   7 H :    0.146277
Sum of atomic charges:   -0.0000000

LOEWDIN ATOMIC CHARGES
----------------------
   0 C :    0.155577
   1 O :   -0.249513
   2 C :   -0.118086
   3 C :   -0.143802
   4 H :    0.071446
   5 H :    0.089925
   6 H :    0.097561
   7 H :    0.096891

  Mayer bond orders larger than 0.100000
B(  0-C ,  1-O ) :   1.9414 B(  0-C ,  2-C ) :   0.9841 B(  0-C ,  4-H ) :   0.9185
B(  2-C ,  3-C ) :   1.9788 B(  2-C ,  5-H ) :   0.9583 B(  3-C ,  6-H ) :   0.9603
B(  3-C ,  7-H ) :   0.9618

-----------------------------------------------------------------------------
         ABSORPTION SPECTRUM VIA TRANSITION ELECTRIC DIPOLE MOMENTS
-----------------------------------------------------------------------------
State   Energy    Wavelength  fosc         T2        TX        TY        TZ
        (cm-1)      (nm)                 (au**2)    (au)      (au)      (au)
-----------------------------------------------------------------------------
   1   34394.4    290.7   0.000048612   0.00047  -0.02097  -0.00270   0.00428

Dispersion correction           -0.025508221
FINAL SINGLE POINT ENERGY      -189.329078881986

DIPOLE MOMENT
-------------
                                X             Y             Z
Electronic contribution:     -2.19287      -1.61945       0.55895
Nuclear contribution   :      2.45372       2.48443      -0.90550
                        -----------------------------------------
Total Dipole Moment    :      0.26085       0.86498      -0.34655
                        -----------------------------------------
Magnitude (a.u.)       :      0.96764
Magnitude (Debye)      :      2.45954

Rotational constants in cm-1:     0.801025     0.193236     0.161286
Rotational constants in MHz : 24014.121533  5793.082122  4835.232336

                             ****ORCA TERMINATED NORMALLY****
TOTAL RUN TIME: 0 days 0 hours 0 minutes 13 seconds 84 msec
