                         Program Version 5.0.3 -  RELEASE  -
|  1> ! B3LYP cc-pVDZ
|  2> !TightSCF
|  3> %scf
|  4>  ConvForced true
|  5>  convergence tight
|  6>  MaxIter 500
|  7> end
|  8>
|  9> %tddft
| 10>  nroots 1
| 11> end
| 12>
| 13> # 	24174
| 14> * xyz 0 1
| 15> 		C   -0.564746  -0.466458   0.030168
| 16> 		O   -0.594458  -1.612327  -0.019321
| 17> 		C    0.646981   0.417485   0.004147
| 18> 		C    1.824354  -0.108760   0.012975
| 19> 		H   -1.659635   0.117100  -0.102492
| 20> 		H    0.438589   1.342872  -0.043088
| 21> 		H    1.967656  -1.212200   0.138822
| 22> 		H    2.911659   0.466887  -0.267185
| 23> *
| 24>
| 25>                          ****END OF INPUT****

CARTESIAN COORDINATES (ANGSTROEM)
---------------------------------
  C     -0.564746   -0.466458    0.030168
  O     -0.594458   -1.612327   -0.019321
  C      0.646981    0.417485    0.004147
  C      1.824354   -0.108760    0.012975
  H     -1.659635    0.117100   -0.102492
  H      0.438589    1.342872   -0.043088
  H      1.967656   -1.212200    0.138822
  H      2.911659    0.466887   -0.267185

 Total Charge           Charge          ....    0
 Multiplicity           Mult            ....    1
 Number of Electrons    NEL             ....   30
 Basis Dimension        Dim             ....   76

ORBITAL ENERGIES
----------------

  NO   OCC          E(Eh)            E(eV)
   0   2.0000     -19.143686      -520.9262
   1   2.0000     -10.280664      -279.7511
   2   2.0000     -10.224224      -278.2153
   3   2.0000     -10.190815      -277.3062
   4   2.0000      -1.087563       -29.5941
   5   2.0000      -0.807561       -21.9748
   6   2.0000      -0.642512       -17.4836
   7   2.0000      -0.544468       -14.8157
   8   2.0000      -0.503271       -13.6947
   9   2.0000      -0.461236       -12.5509
  10   2.0000      -0.430660       -11.7189
  11   2.0000      -0.422305       -11.4915
  12   2.0000      -0.372790       -10.1441
  13   2.0000      -0.298768        -8.1299
  14   2.0000      -0.252407        -6.8683
  15   0.0000      -0.058033        -1.5792
  16   0.0000       0.045514         1.2385
  17   0.0000       0.071549         1.9469
  18   0.0000       0.081678         2.2226
  19   0.0000       0.124646         3.3918

MULLIKEN ATOMIC CHARGES
-----------------------
   0 C :    0.104420
   1 O :   -0.119457
   2 C :    0.042192
   3 C :   -0.006392
   4 H :   -0.041826
   5 H :   -0.084871
   6 H :    0.045856
   7 H :    0.060079
Sum of atomic charges:   -0.0000000

LOEWDIN ATOMIC CHARGES
----------------------
   0 C :   -0.070266
   1 O :    0.062293
   2 C :   -0.067943
   3 C :    0.012717
   4 H :   -0.018997
   5 H :   -0.011828
   6 H :    0.037603
   7 H :    0.056421

  Mayer bond orders larger than 0.100000
B(  0-C ,  1-O ) :   2.2807 B(  0-C ,  2-C ) :   1.0124 B(  0-C ,  4-H ) :   0.8750
B(  2-C ,  3-C ) :   1.9648 B(  2-C ,  5-H ) :   0.9532 B(  3-C ,  6-H ) :   0.9231
B(  3-C ,  7-H ) :   0.9399

-----------------------------------------------------------------------------
         ABSORPTION SPECTRUM VIA TRANSITION ELECTRIC DIPOLE MOMENTS
-----------------------------------------------------------------------------
State   Energy    Wavelength  fosc         T2        TX        TY        TZ
        (cm-1)      (nm)                 (au**2)    (au)      (au)      (au)
-----------------------------------------------------------------------------
   1   30289.2    330.2   0.000314710   0.00342   0.00674   0.01595  -0.05586

FINAL SINGLE POINT ENERGY      -191.620841732775

DIPOLE MOMENT
-------------
                                X             Y             Z
Electronic contribution:     -1.81493      -1.74869       0.24707
Nuclear contribution   :      2.27575       2.45900      -0.25613
                        -----------------------------------------
Total Dipole Moment    :      0.46082       0.71031      -0.00906
                        -----------------------------------------
Magnitude (a.u.)       :      0.84674
Magnitude (Debye)      :      2.15225

Rotational constants in cm-1:     0.815046     0.207437     0.165753
Rotational constants in MHz : 24434.475122  6218.812762  4969.147431

                             ****ORCA TERMINATED NORMALLY****
TOTAL RUN TIME: 0 days 0 hours 3 minutes 4 seconds 350 msec
