                         Program Version 5.0.3 -  RELEASE  -
|  1> ! HF-3c
|  2> !TightSCF
|  3> %scf
|  4>  ConvForced true
|  5>  convergence tight
|  6>  MaxIter 500
|  7> end
|  8>
|  9> %tddft
| 10>  nroots 1
| 11> end
| 12>
| 13> # 	12277
| 14> * xyz 0 1
| 15> 		C   -1.199950  -0.409051  -0.045614
| 16> 		O   -2.144582  -0.421811  -0.759491
| 17> 		C    0.015485   0.415399  -0.317224
| 18> 		C    1.225801   0.065007   0.257900
| 19> 		H   -1.234033  -0.791033   0.896696
| 20> 		H   -0.063681   1.243897  -1.120205
| 21> 		H    1.221820  -0.668583   1.090143
| 22> 		H    2.129661   0.557927   0.085410
| 23> *
| 24>
| 25>                          ****END OF INPUT****

CARTESIAN COORDINATES (ANGSTROEM)
---------------------------------
  C     -1.199950   -0.409051   -0.045614
  O     -2.144582   -0.421811   -0.759491
  C      0.015485    0.415399   -0.317224
  C      1.225801    0.065007    0.257900
  H     -1.234033   -0.791033    0.896696
  H     -0.063681    1.243897   -1.120205
  H      1.221820   -0.668583    1.090143
  H      2.129661    0.557927    0.085410

 Total Charge           Charge          ....    0
 Multiplicity           Mult            ....    1
 Number of Electrons    NEL             ....   30
 Basis Dimension        Dim             ....   24

ORBITAL ENERGIES
----------------

  NO   OCC          E(Eh)            E(eV)
   0   2.0000     -20.381520      -554.6094
   1   2.0000     -11.309063      -307.7352
   2   2.0000     -11.187085      -304.4161
   3   2.0000     -11.185484      -304.3725
   4   2.0000      -1.428008       -38.8581
   5   2.0000      -1.065729       -29.0000
   6   2.0000      -0.886974       -24.1358
   7   2.0000      -0.790385       -21.5075
   8   2.0000      -0.667076       -18.1521
   9   2.0000      -0.650446       -17.6995
  10   2.0000      -0.592658       -16.1270
  11   2.0000      -0.555392       -15.1130
  12   2.0000      -0.530308       -14.4304
  13   2.0000      -0.418523       -11.3886
  14   2.0000      -0.384326       -10.4580
  15   0.0000       0.130531         3.5519
  16   0.0000       0.282980         7.7003
  17   0.0000       0.557539        15.1714
  18   0.0000       0.588231        16.0066
  19   0.0000       0.665950        18.1214

MULLIKEN ATOMIC CHARGES
-----------------------
   0 C :    0.156598
   1 O :   -0.346184
   2 C :   -0.146925
   3 C :   -0.236994
   4 H :    0.138198
   5 H :    0.154682
   6 H :    0.138438
   7 H :    0.142187
Sum of atomic charges:    0.0000000

LOEWDIN ATOMIC CHARGES
----------------------
   0 C :    0.140691
   1 O :   -0.242330
   2 C :   -0.111509
   3 C :   -0.138780
   4 H :    0.066172
   5 H :    0.105796
   6 H :    0.091261
   7 H :    0.088698

  Mayer bond orders larger than 0.100000
B(  0-C ,  1-O ) :   1.9133 B(  0-C ,  2-C ) :   1.0151 B(  0-C ,  4-H ) :   0.9290
B(  2-C ,  3-C ) :   1.9481 B(  2-C ,  5-H ) :   0.9545 B(  3-C ,  6-H ) :   0.9659
B(  3-C ,  7-H ) :   0.9683

-----------------------------------------------------------------------------
         ABSORPTION SPECTRUM VIA TRANSITION ELECTRIC DIPOLE MOMENTS
-----------------------------------------------------------------------------
State   Energy    Wavelength  fosc         T2        TX        TY        TZ
        (cm-1)      (nm)                 (au**2)    (au)      (au)      (au)
-----------------------------------------------------------------------------
   1   33744.2    296.3   0.000214475   0.00209  -0.03603  -0.02601   0.01085

Dispersion correction           -0.025270010
FINAL SINGLE POINT ENERGY      -189.320268387049

DIPOLE MOMENT
-------------
                                X             Y             Z
Electronic contribution:     -3.11880      -0.57176      -1.16365
Nuclear contribution   :      4.02830       0.68754       1.71872
                        -----------------------------------------
Total Dipole Moment    :      0.90951       0.11578       0.55507
                        -----------------------------------------
Magnitude (a.u.)       :      1.07178
Magnitude (Debye)      :      2.72424

Rotational constants in cm-1:     1.478675     0.154393     0.141809
Rotational constants in MHz : 44329.556002  4628.600071  4251.324343

                             ****ORCA TERMINATED NORMALLY****
TOTAL RUN TIME: 0 days 0 hours 0 minutes 12 seconds 7 msec
