                         Program Version 5.0.3 -  RELEASE  -
|  1> ! HF-3c
|  2> !TightSCF
|  3> %scf
|  4>  ConvForced true
|  5>  convergence tight
|  6>  MaxIter 500
|  7> end
|  8>
|  9> %tddft
| 10>  nroots 1
| 11> end
| 12>
| 13> # 	14209
| 14> * xyz 0 1
| 15> 		C   -1.192963  -0.335209  -0.023619
| 16> 		O   -1.758603  -0.993738   0.847378
| 17> 		C    0.000705   0.502210   0.166921
| 18> 		C    1.213701   0.039901  -0.105923
| 19> 		H   -1.582223  -0.288542  -0.968228
| 20> 		H   -0.187035   1.337258   0.767120
| 21> 		H    1.439396  -0.862203  -0.691980
| 22> 		H    2.004723   0.622304   0.032286
| 23> *
| 24>
| 25>                          ****END OF INPUT****

CARTESIAN COORDINATES (ANGSTROEM)
---------------------------------
  C     -1.192963   -0.335209   -0.023619
  O     -1.758603   -0.993738    0.847378
  C      0.000705    0.502210    0.166921
  C      1.213701    0.039901   -0.105923
  H     -1.582223   -0.288542   -0.968228
  H     -0.187035    1.337258    0.767120
  H      1.439396   -0.862203   -0.691980
  H      2.004723    0.622304    0.032286

 Total Charge           Charge          ....    0
 Multiplicity           Mult            ....    1
 Number of Electrons    NEL             ....   30
 Basis Dimension        Dim             ....   24

ORBITAL ENERGIES
----------------

  NO   OCC          E(Eh)            E(eV)
   0   2.0000     -20.377691      -554.5052
   1   2.0000     -11.300781      -307.5099
   2   2.0000     -11.201691      -304.8135
   3   2.0000     -11.193203      -304.5825
   4   2.0000      -1.397320       -38.0230
   5   2.0000      -1.096192       -29.8289
   6   2.0000      -0.911685       -24.8082
   7   2.0000      -0.793574       -21.5942
   8   2.0000      -0.690872       -18.7996
   9   2.0000      -0.658355       -17.9147
  10   2.0000      -0.612396       -16.6641
  11   2.0000      -0.562125       -15.2962
  12   2.0000      -0.501306       -13.6412
  13   2.0000      -0.422916       -11.5081
  14   2.0000      -0.413188       -11.2434
  15   0.0000       0.168810         4.5936
  16   0.0000       0.211823         5.7640
  17   0.0000       0.568230        15.4623
  18   0.0000       0.658334        17.9142
  19   0.0000       0.759813        20.6756

MULLIKEN ATOMIC CHARGES
-----------------------
   0 C :    0.154613
   1 O :   -0.330732
   2 C :   -0.167312
   3 C :   -0.247149
   4 H :    0.140733
   5 H :    0.159209
   6 H :    0.148860
   7 H :    0.141778
Sum of atomic charges:   -0.0000000

LOEWDIN ATOMIC CHARGES
----------------------
   0 C :    0.149970
   1 O :   -0.242061
   2 C :   -0.114993
   3 C :   -0.147043
   4 H :    0.069832
   5 H :    0.101634
   6 H :    0.098536
   7 H :    0.084124

  Mayer bond orders larger than 0.100000
B(  0-C ,  1-O ) :   1.9460 B(  0-C ,  2-C ) :   0.9946 B(  0-C ,  4-H ) :   0.9306
B(  2-C ,  3-C ) :   1.9920 B(  2-C ,  5-H ) :   0.9483 B(  3-C ,  6-H ) :   0.9639
B(  3-C ,  7-H ) :   0.9665

-----------------------------------------------------------------------------
         ABSORPTION SPECTRUM VIA TRANSITION ELECTRIC DIPOLE MOMENTS
-----------------------------------------------------------------------------
State   Energy    Wavelength  fosc         T2        TX        TY        TZ
        (cm-1)      (nm)                 (au**2)    (au)      (au)      (au)
-----------------------------------------------------------------------------
   1   33082.6    302.3   0.000076466   0.00076   0.02710   0.00461   0.00228

Dispersion correction           -0.025524910
FINAL SINGLE POINT ENERGY      -189.314600185046

DIPOLE MOMENT
-------------
                                X             Y             Z
Electronic contribution:     -2.73732      -1.08325       1.04455
Nuclear contribution   :      3.30528       1.59073      -1.67796
                        -----------------------------------------
Total Dipole Moment    :      0.56796       0.50748      -0.63341
                        -----------------------------------------
Magnitude (a.u.)       :      0.99061
Magnitude (Debye)      :      2.51794

Rotational constants in cm-1:     1.062196     0.164657     0.159322
Rotational constants in MHz : 31843.823058  4936.292021  4776.363355

                             ****ORCA TERMINATED NORMALLY****
TOTAL RUN TIME: 0 days 0 hours 0 minutes 12 seconds 658 msec
