                         Program Version 5.0.3 -  RELEASE  -
|  1> ! HF-3c
|  2> !TightSCF
|  3> %scf
|  4>  ConvForced true
|  5>  convergence tight
|  6>  MaxIter 500
|  7> end
|  8>
|  9> %tddft
| 10>  nroots 1
| 11> end
| 12>
| 13> # 	21904
| 14> * xyz 0 1
| 15> 		C   -0.548447  -0.409771  -0.054499
| 16> 		O   -0.598552  -1.625253   0.019015
| 17> 		C    0.641964   0.381844   0.091128
| 18> 		C    1.832344  -0.119563  -0.029136
| 19> 		H   -1.356991  -0.062213  -0.111663
| 20> 		H    0.499551   1.510814  -0.162158
| 21> 		H    1.795094  -1.158872  -0.029627
| 22> 		H    2.588029   0.479530  -0.097118
| 23> *
| 24>
| 25>                          ****END OF INPUT****

CARTESIAN COORDINATES (ANGSTROEM)
---------------------------------
  C     -0.548447   -0.409771   -0.054499
  O     -0.598552   -1.625253    0.019015
  C      0.641964    0.381844    0.091128
  C      1.832344   -0.119563   -0.029136
  H     -1.356991   -0.062213   -0.111663
  H      0.499551    1.510814   -0.162158
  H      1.795094   -1.158872   -0.029627
  H      2.588029    0.479530   -0.097118

 Total Charge           Charge          ....    0
 Multiplicity           Mult            ....    1
 Number of Electrons    NEL             ....   30
 Basis Dimension        Dim             ....   24

ORBITAL ENERGIES
----------------

  NO   OCC          E(Eh)            E(eV)
   0   2.0000     -20.374688      -554.4235
   1   2.0000     -11.308266      -307.7136
   2   2.0000     -11.202390      -304.8325
   3   2.0000     -11.200612      -304.7841
   4   2.0000      -1.413567       -38.4651
   5   2.0000      -1.113832       -30.3089
   6   2.0000      -0.939619       -25.5683
   7   2.0000      -0.801926       -21.8215
   8   2.0000      -0.725347       -19.7377
   9   2.0000      -0.640946       -17.4410
  10   2.0000      -0.621078       -16.9004
  11   2.0000      -0.557438       -15.1687
  12   2.0000      -0.527898       -14.3648
  13   2.0000      -0.439338       -11.9550
  14   2.0000      -0.409422       -11.1409
  15   0.0000       0.116445         3.1686
  16   0.0000       0.301847         8.2137
  17   0.0000       0.561699        15.2846
  18   0.0000       0.641825        17.4650
  19   0.0000       0.715566        19.4715

MULLIKEN ATOMIC CHARGES
-----------------------
   0 C :    0.107057
   1 O :   -0.325709
   2 C :   -0.144839
   3 C :   -0.257111
   4 H :    0.146341
   5 H :    0.147611
   6 H :    0.172958
   7 H :    0.153691
Sum of atomic charges:    0.0000000

LOEWDIN ATOMIC CHARGES
----------------------
   0 C :    0.114689
   1 O :   -0.236796
   2 C :   -0.106360
   3 C :   -0.139554
   4 H :    0.062987
   5 H :    0.100142
   6 H :    0.112655
   7 H :    0.092237

  Mayer bond orders larger than 0.100000
B(  0-C ,  1-O ) :   1.8890 B(  0-C ,  2-C ) :   1.0435 B(  0-C ,  4-H ) :   0.9506
B(  2-C ,  3-C ) :   1.9407 B(  2-C ,  5-H ) :   0.9529 B(  3-C ,  6-H ) :   0.9528
B(  3-C ,  7-H ) :   0.9654

-----------------------------------------------------------------------------
         ABSORPTION SPECTRUM VIA TRANSITION ELECTRIC DIPOLE MOMENTS
-----------------------------------------------------------------------------
State   Energy    Wavelength  fosc         T2        TX        TY        TZ
        (cm-1)      (nm)                 (au**2)    (au)      (au)      (au)
-----------------------------------------------------------------------------
   1   30136.0    331.8   0.000179671   0.00196   0.04149   0.01050  -0.01143

Dispersion correction           -0.026917668
FINAL SINGLE POINT ENERGY      -189.259867817804

DIPOLE MOMENT
-------------
                                X             Y             Z
Electronic contribution:     -1.84507      -1.63780       0.24383
Nuclear contribution   :      2.14913       2.51196      -0.37488
                        -----------------------------------------
Total Dipole Moment    :      0.30406       0.87417      -0.13105
                        -----------------------------------------
Magnitude (a.u.)       :      0.93477
Magnitude (Debye)      :      2.37599

Rotational constants in cm-1:     0.841399     0.213488     0.170976
Rotational constants in MHz : 25224.493662  6400.217252  5125.736650

                             ****ORCA TERMINATED NORMALLY****
TOTAL RUN TIME: 0 days 0 hours 0 minutes 15 seconds 623 msec
