                         Program Version 5.0.3 -  RELEASE  -
|  1> ! B3LYP cc-pVDZ
|  2> !TightSCF
|  3> %scf
|  4>  ConvForced true
|  5>  convergence tight
|  6>  MaxIter 500
|  7> end
|  8>
|  9> %tddft
| 10>  nroots 1
| 11> end
| 12>
| 13> # 	17294
| 14> * xyz 0 1
| 15> 		C   -1.177060  -0.390456   0.081503
| 16> 		O   -1.925347  -0.878293  -0.791205
| 17> 		C   -0.007600   0.454458  -0.404631
| 18> 		C    1.245078   0.127365   0.074081
| 19> 		H   -1.229655  -0.560511   1.146467
| 20> 		H   -0.277587   1.392190  -0.999687
| 21> 		H    1.336876  -0.876089   0.840521
| 22> 		H    2.062385   0.715316   0.081456
| 23> *
| 24>
| 25>                          ****END OF INPUT****

CARTESIAN COORDINATES (ANGSTROEM)
---------------------------------
  C     -1.177060   -0.390456    0.081503
  O     -1.925347   -0.878293   -0.791205
  C     -0.007600    0.454458   -0.404631
  C      1.245078    0.127365    0.074081
  H     -1.229655   -0.560511    1.146467
  H     -0.277587    1.392190   -0.999687
  H      1.336876   -0.876089    0.840521
  H      2.062385    0.715316    0.081456

 Total Charge           Charge          ....    0
 Multiplicity           Mult            ....    1
 Number of Electrons    NEL             ....   30
 Basis Dimension        Dim             ....   76

ORBITAL ENERGIES
----------------

  NO   OCC          E(Eh)            E(eV)
   0   2.0000     -19.146843      -521.0121
   1   2.0000     -10.285617      -279.8859
   2   2.0000     -10.220551      -278.1153
   3   2.0000     -10.219999      -278.1003
   4   2.0000      -1.031846       -28.0780
   5   2.0000      -0.782932       -21.3047
   6   2.0000      -0.646234       -17.5849
   7   2.0000      -0.568566       -15.4715
   8   2.0000      -0.476234       -12.9590
   9   2.0000      -0.464787       -12.6475
  10   2.0000      -0.429257       -11.6807
  11   2.0000      -0.378705       -10.3051
  12   2.0000      -0.368171       -10.0184
  13   2.0000      -0.283145        -7.7048
  14   2.0000      -0.256007        -6.9663
  15   0.0000      -0.064649        -1.7592
  16   0.0000       0.003381         0.0920
  17   0.0000       0.055754         1.5171
  18   0.0000       0.089464         2.4344
  19   0.0000       0.104385         2.8405

MULLIKEN ATOMIC CHARGES
-----------------------
   0 C :    0.192335
   1 O :   -0.212584
   2 C :   -0.085091
   3 C :    0.000013
   4 H :    0.007739
   5 H :    0.042039
   6 H :    0.044614
   7 H :    0.010935
Sum of atomic charges:   -0.0000000

LOEWDIN ATOMIC CHARGES
----------------------
   0 C :    0.008107
   1 O :   -0.022907
   2 C :   -0.052354
   3 C :   -0.025985
   4 H :   -0.001095
   5 H :    0.046032
   6 H :    0.049111
   7 H :   -0.000908

  Mayer bond orders larger than 0.100000
B(  0-C ,  1-O ) :   2.1551 B(  0-C ,  2-C ) :   1.0099 B(  0-C ,  4-H ) :   0.9255
B(  2-C ,  3-C ) :   1.9610 B(  2-C ,  5-H ) :   0.9455 B(  3-C ,  6-H ) :   0.9447
B(  3-C ,  7-H ) :   0.9543

-----------------------------------------------------------------------------
         ABSORPTION SPECTRUM VIA TRANSITION ELECTRIC DIPOLE MOMENTS
-----------------------------------------------------------------------------
State   Energy    Wavelength  fosc         T2        TX        TY        TZ
        (cm-1)      (nm)                 (au**2)    (au)      (au)      (au)
-----------------------------------------------------------------------------
   1   28500.8    350.9   0.002047696   0.02365   0.14666   0.02313   0.04013

FINAL SINGLE POINT ENERGY      -191.639205825928

DIPOLE MOMENT
-------------
                                X             Y             Z
Electronic contribution:     -2.98004      -0.84528      -1.32796
Nuclear contribution   :      3.63965       1.36081       1.97025
                        -----------------------------------------
Total Dipole Moment    :      0.65960       0.51554       0.64229
                        -----------------------------------------
Magnitude (a.u.)       :      1.05517
Magnitude (Debye)      :      2.68204

Rotational constants in cm-1:     1.082597     0.157695     0.149237
Rotational constants in MHz : 32455.433794  4727.583675  4474.025745

                             ****ORCA TERMINATED NORMALLY****
TOTAL RUN TIME: 0 days 0 hours 3 minutes 22 seconds 314 msec
