                         Program Version 5.0.3 -  RELEASE  -
|  1> ! B3LYP cc-pVDZ
|  2> !TightSCF
|  3> %scf
|  4>  ConvForced true
|  5>  convergence tight
|  6>  MaxIter 500
|  7> end
|  8>
|  9> %tddft
| 10>  nroots 1
| 11> end
| 12>
| 13> # 	9935
| 14> * xyz 0 1
| 15> 		C   -1.212895  -0.192040   0.022378
| 16> 		O   -1.975029  -0.567259   0.907081
| 17> 		C   -0.007741   0.507849   0.261033
| 18> 		C    1.182448   0.020437  -0.181258
| 19> 		H   -1.344471  -0.529640  -0.991421
| 20> 		H   -0.091173   1.243513   0.940538
| 21> 		H    1.265572  -0.889876  -0.887811
| 22> 		H    2.129505   0.464596  -0.139853
| 23> *
| 24>
| 25>                          ****END OF INPUT****

CARTESIAN COORDINATES (ANGSTROEM)
---------------------------------
  C     -1.212895   -0.192040    0.022378
  O     -1.975029   -0.567259    0.907081
  C     -0.007741    0.507849    0.261033
  C      1.182448    0.020437   -0.181258
  H     -1.344471   -0.529640   -0.991421
  H     -0.091173    1.243513    0.940538
  H      1.265572   -0.889876   -0.887811
  H      2.129505    0.464596   -0.139853

 Total Charge           Charge          ....    0
 Multiplicity           Mult            ....    1
 Number of Electrons    NEL             ....   30
 Basis Dimension        Dim             ....   76

ORBITAL ENERGIES
----------------

  NO   OCC          E(Eh)            E(eV)
   0   2.0000     -19.138486      -520.7847
   1   2.0000     -10.269580      -279.4495
   2   2.0000     -10.221342      -278.1369
   3   2.0000     -10.202730      -277.6304
   4   2.0000      -1.038952       -28.2713
   5   2.0000      -0.807292       -21.9675
   6   2.0000      -0.662513       -18.0279
   7   2.0000      -0.582262       -15.8442
   8   2.0000      -0.485950       -13.2234
   9   2.0000      -0.477043       -12.9810
  10   2.0000      -0.433006       -11.7827
  11   2.0000      -0.388533       -10.5725
  12   2.0000      -0.378099       -10.2886
  13   2.0000      -0.287741        -7.8298
  14   2.0000      -0.255403        -6.9499
  15   0.0000      -0.066357        -1.8057
  16   0.0000       0.021257         0.5784
  17   0.0000       0.076445         2.0802
  18   0.0000       0.098107         2.6696
  19   0.0000       0.117373         3.1939

MULLIKEN ATOMIC CHARGES
-----------------------
   0 C :    0.177585
   1 O :   -0.206076
   2 C :    0.009701
   3 C :    0.007599
   4 H :   -0.027499
   5 H :   -0.024250
   6 H :    0.036494
   7 H :    0.026445
Sum of atomic charges:   -0.0000000

LOEWDIN ATOMIC CHARGES
----------------------
   0 C :   -0.023998
   1 O :   -0.009080
   2 C :   -0.038568
   3 C :    0.006041
   4 H :   -0.008136
   5 H :    0.014567
   6 H :    0.040189
   7 H :    0.018987

  Mayer bond orders larger than 0.100000
B(  0-C ,  1-O ) :   2.1676 B(  0-C ,  2-C ) :   1.0776 B(  0-C ,  4-H ) :   0.9263
B(  2-C ,  3-C ) :   1.9462 B(  2-C ,  5-H ) :   0.9434 B(  3-C ,  6-H ) :   0.9516
B(  3-C ,  7-H ) :   0.9560

-----------------------------------------------------------------------------
         ABSORPTION SPECTRUM VIA TRANSITION ELECTRIC DIPOLE MOMENTS
-----------------------------------------------------------------------------
State   Energy    Wavelength  fosc         T2        TX        TY        TZ
        (cm-1)      (nm)                 (au**2)    (au)      (au)      (au)
-----------------------------------------------------------------------------
   1   28585.4    349.8   0.001201666   0.01384   0.10683  -0.00598  -0.04891

FINAL SINGLE POINT ENERGY      -191.653260638814

DIPOLE MOMENT
-------------
                                X             Y             Z
Electronic contribution:     -2.96136      -0.22742       1.38457
Nuclear contribution   :      3.83060       0.58129      -1.98308
                        -----------------------------------------
Total Dipole Moment    :      0.86923       0.35387      -0.59851
                        -----------------------------------------
Magnitude (a.u.)       :      1.11310
Magnitude (Debye)      :      2.82929

Rotational constants in cm-1:     1.258291     0.161868     0.155011
Rotational constants in MHz : 37722.606144  4852.678619  4647.109596

                             ****ORCA TERMINATED NORMALLY****
TOTAL RUN TIME: 0 days 0 hours 3 minutes 20 seconds 78 msec
