                         Program Version 5.0.3 -  RELEASE  -
|  1> ! B3LYP cc-pVDZ
|  2> !TightSCF
|  3> %scf
|  4>  ConvForced true
|  5>  convergence tight
|  6>  MaxIter 500
|  7> end
|  8>
|  9> %tddft
| 10>  nroots 1
| 11> end
| 12>
| 13> # 	18895
| 14> * xyz 0 1
| 15> 		C   -1.243937  -0.349987  -0.016033
| 16> 		O   -2.069366  -0.645079  -0.814612
| 17> 		C   -0.011188   0.371467  -0.333093
| 18> 		C    1.155906   0.149425   0.267090
| 19> 		H   -1.274536  -0.801932   1.089844
| 20> 		H    0.077957   1.146897  -1.291263
| 21> 		H    1.319934  -0.504469   1.059947
| 22> 		H    2.033615   0.630468   0.090005
| 23> *
| 24>
| 25>                          ****END OF INPUT****

CARTESIAN COORDINATES (ANGSTROEM)
---------------------------------
  C     -1.243937   -0.349987   -0.016033
  O     -2.069366   -0.645079   -0.814612
  C     -0.011188    0.371467   -0.333093
  C      1.155906    0.149425    0.267090
  H     -1.274536   -0.801932    1.089844
  H      0.077957    1.146897   -1.291263
  H      1.319934   -0.504469    1.059947
  H      2.033615    0.630468    0.090005

 Total Charge           Charge          ....    0
 Multiplicity           Mult            ....    1
 Number of Electrons    NEL             ....   30
 Basis Dimension        Dim             ....   76

ORBITAL ENERGIES
----------------

  NO   OCC          E(Eh)            E(eV)
   0   2.0000     -19.143804      -520.9294
   1   2.0000     -10.283994      -279.8417
   2   2.0000     -10.219611      -278.0897
   3   2.0000     -10.204496      -277.6784
   4   2.0000      -1.064957       -28.9790
   5   2.0000      -0.802941       -21.8491
   6   2.0000      -0.657369       -17.8879
   7   2.0000      -0.556466       -15.1422
   8   2.0000      -0.486878       -13.2486
   9   2.0000      -0.473292       -12.8789
  10   2.0000      -0.430677       -11.7193
  11   2.0000      -0.405875       -11.0444
  12   2.0000      -0.371907       -10.1201
  13   2.0000      -0.294539        -8.0148
  14   2.0000      -0.258635        -7.0378
  15   0.0000      -0.062671        -1.7054
  16   0.0000       0.039944         1.0869
  17   0.0000       0.061015         1.6603
  18   0.0000       0.084825         2.3082
  19   0.0000       0.114459         3.1146

MULLIKEN ATOMIC CHARGES
-----------------------
   0 C :    0.161376
   1 O :   -0.160499
   2 C :   -0.138388
   3 C :    0.109927
   4 H :   -0.020158
   5 H :    0.039380
   6 H :    0.001990
   7 H :    0.006373
Sum of atomic charges:    0.0000000

LOEWDIN ATOMIC CHARGES
----------------------
   0 C :   -0.063487
   1 O :    0.031096
   2 C :   -0.068540
   3 C :    0.014526
   4 H :   -0.003933
   5 H :    0.058232
   6 H :    0.016548
   7 H :    0.015558

  Mayer bond orders larger than 0.100000
B(  0-C ,  1-O ) :   2.2055 B(  0-C ,  2-C ) :   1.0326 B(  0-C ,  4-H ) :   0.8959
B(  2-C ,  3-C ) :   1.9685 B(  2-C ,  5-H ) :   0.9254 B(  3-C ,  6-H ) :   0.9515
B(  3-C ,  7-H ) :   0.9434

-----------------------------------------------------------------------------
         ABSORPTION SPECTRUM VIA TRANSITION ELECTRIC DIPOLE MOMENTS
-----------------------------------------------------------------------------
State   Energy    Wavelength  fosc         T2        TX        TY        TZ
        (cm-1)      (nm)                 (au**2)    (au)      (au)      (au)
-----------------------------------------------------------------------------
   1   30308.3    329.9   0.000615525   0.00669  -0.07778   0.00618  -0.02444

FINAL SINGLE POINT ENERGY      -191.646197199072

DIPOLE MOMENT
-------------
                                X             Y             Z
Electronic contribution:     -3.22025      -0.65981      -1.27057
Nuclear contribution   :      4.15183       0.95601       1.75562
                        -----------------------------------------
Total Dipole Moment    :      0.93158       0.29620       0.48505
                        -----------------------------------------
Magnitude (a.u.)       :      1.09126
Magnitude (Debye)      :      2.77377

Rotational constants in cm-1:     1.424076     0.156819     0.145256
Rotational constants in MHz : 42692.736780  4701.323590  4354.673349

                             ****ORCA TERMINATED NORMALLY****
TOTAL RUN TIME: 0 days 0 hours 3 minutes 23 seconds 428 msec
