                         Program Version 5.0.3 -  RELEASE  -
|  1> ! B3LYP cc-pVDZ
|  2> !TightSCF
|  3> %scf
|  4>  ConvForced true
|  5>  convergence tight
|  6>  MaxIter 500
|  7> end
|  8>
|  9> %tddft
| 10>  nroots 1
| 11> end
| 12>
| 13> # 	28213
| 14> * xyz 0 1
| 15> 		C   -0.623796  -0.452096   0.004646
| 16> 		O   -0.564001  -1.637058  -0.009017
| 17> 		C    0.646130   0.456712   0.001817
| 18> 		C    1.846395  -0.157266   0.018398
| 19> 		H   -1.455029   0.231935   0.108081
| 20> 		H    0.342577   1.396211  -0.174709
| 21> 		H    1.901066  -1.052346  -0.073791
| 22> 		H    2.814667   0.489990  -0.022047
| 23> *
| 24>
| 25>                          ****END OF INPUT****

CARTESIAN COORDINATES (ANGSTROEM)
---------------------------------
  C     -0.623796   -0.452096    0.004646
  O     -0.564001   -1.637058   -0.009017
  C      0.646130    0.456712    0.001817
  C      1.846395   -0.157266    0.018398
  H     -1.455029    0.231935    0.108081
  H      0.342577    1.396211   -0.174709
  H      1.901066   -1.052346   -0.073791
  H      2.814667    0.489990   -0.022047

 Total Charge           Charge          ....    0
 Multiplicity           Mult            ....    1
 Number of Electrons    NEL             ....   30
 Basis Dimension        Dim             ....   76

ORBITAL ENERGIES
----------------

  NO   OCC          E(Eh)            E(eV)
   0   2.0000     -19.145319      -520.9706
   1   2.0000     -10.274875      -279.5936
   2   2.0000     -10.200352      -277.5657
   3   2.0000     -10.194455      -277.4052
   4   2.0000      -1.062603       -28.9149
   5   2.0000      -0.790599       -21.5133
   6   2.0000      -0.667048       -18.1513
   7   2.0000      -0.560950       -15.2642
   8   2.0000      -0.496349       -13.5063
   9   2.0000      -0.465551       -12.6683
  10   2.0000      -0.432292       -11.7632
  11   2.0000      -0.403791       -10.9877
  12   2.0000      -0.390505       -10.6262
  13   2.0000      -0.283592        -7.7169
  14   2.0000      -0.252303        -6.8655
  15   0.0000      -0.064925        -1.7667
  16   0.0000       0.049952         1.3593
  17   0.0000       0.071711         1.9513
  18   0.0000       0.095870         2.6088
  19   0.0000       0.140823         3.8320

MULLIKEN ATOMIC CHARGES
-----------------------
   0 C :    0.184012
   1 O :   -0.166686
   2 C :   -0.112467
   3 C :    0.193282
   4 H :   -0.023489
   5 H :   -0.051557
   6 H :   -0.065438
   7 H :    0.042342
Sum of atomic charges:   -0.0000000

LOEWDIN ATOMIC CHARGES
----------------------
   0 C :   -0.031762
   1 O :    0.025555
   2 C :   -0.048905
   3 C :    0.062511
   4 H :   -0.013145
   5 H :   -0.002614
   6 H :   -0.040944
   7 H :    0.049306

  Mayer bond orders larger than 0.100000
B(  0-C ,  1-O ) :   2.2299 B(  0-C ,  2-C ) :   1.0319 B(  0-C ,  4-H ) :   0.9110
B(  2-C ,  3-C ) :   1.9736 B(  2-C ,  5-H ) :   0.9589 B(  3-C ,  6-H ) :   0.9179
B(  3-C ,  7-H ) :   0.9540

-----------------------------------------------------------------------------
         ABSORPTION SPECTRUM VIA TRANSITION ELECTRIC DIPOLE MOMENTS
-----------------------------------------------------------------------------
State   Energy    Wavelength  fosc         T2        TX        TY        TZ
        (cm-1)      (nm)                 (au**2)    (au)      (au)      (au)
-----------------------------------------------------------------------------
   1   28444.3    351.6   0.000225115   0.00261   0.04689   0.00945  -0.01782

FINAL SINGLE POINT ENERGY      -191.620719617048

DIPOLE MOMENT
-------------
                                X             Y             Z
Electronic contribution:     -1.99599      -1.95634       0.10218
Nuclear contribution   :      2.22615       2.78676      -0.15192
                        -----------------------------------------
Total Dipole Moment    :      0.23016       0.83042      -0.04975
                        -----------------------------------------
Magnitude (a.u.)       :      0.86316
Magnitude (Debye)      :      2.19397

Rotational constants in cm-1:     0.747022     0.209369     0.163707
Rotational constants in MHz : 22395.166304  6276.720920  4907.805058

                             ****ORCA TERMINATED NORMALLY****
TOTAL RUN TIME: 0 days 0 hours 3 minutes 23 seconds 613 msec
