                         Program Version 5.0.3 -  RELEASE  -
|  1> ! B3LYP cc-pVDZ
|  2> !TightSCF
|  3> %scf
|  4>  ConvForced true
|  5>  convergence tight
|  6>  MaxIter 500
|  7> end
|  8>
|  9> %tddft
| 10>  nroots 1
| 11> end
| 12>
| 13> # 	3284
| 14> * xyz 0 1
| 15> 		C   -1.170580  -0.285384   0.008940
| 16> 		O   -1.391398  -1.380428   0.548747
| 17> 		C    0.005550   0.519557   0.097819
| 18> 		C    1.225722   0.038720  -0.085270
| 19> 		H   -2.033320   0.020556  -0.615677
| 20> 		H   -0.132769   1.440274   0.492368
| 21> 		H    1.408856  -1.036913  -0.414550
| 22> 		H    2.068951   0.654866  -0.055519
| 23> *
| 24>
| 25>                          ****END OF INPUT****

CARTESIAN COORDINATES (ANGSTROEM)
---------------------------------
  C     -1.170580   -0.285384    0.008940
  O     -1.391398   -1.380428    0.548747
  C      0.005550    0.519557    0.097819
  C      1.225722    0.038720   -0.085270
  H     -2.033320    0.020556   -0.615677
  H     -0.132769    1.440274    0.492368
  H      1.408856   -1.036913   -0.414550
  H      2.068951    0.654866   -0.055519

 Total Charge           Charge          ....    0
 Multiplicity           Mult            ....    1
 Number of Electrons    NEL             ....   30
 Basis Dimension        Dim             ....   76

ORBITAL ENERGIES
----------------

  NO   OCC          E(Eh)            E(eV)
   0   2.0000     -19.134746      -520.6829
   1   2.0000     -10.272484      -279.5285
   2   2.0000     -10.211997      -277.8826
   3   2.0000     -10.200027      -277.5568
   4   2.0000      -1.028416       -27.9846
   5   2.0000      -0.809663       -22.0321
   6   2.0000      -0.666106       -18.1257
   7   2.0000      -0.555497       -15.1159
   8   2.0000      -0.513567       -13.9749
   9   2.0000      -0.456889       -12.4326
  10   2.0000      -0.432585       -11.7712
  11   2.0000      -0.392160       -10.6712
  12   2.0000      -0.367015        -9.9870
  13   2.0000      -0.292338        -7.9549
  14   2.0000      -0.248732        -6.7683
  15   0.0000      -0.054743        -1.4896
  16   0.0000       0.011858         0.3227
  17   0.0000       0.083895         2.2829
  18   0.0000       0.089703         2.4409
  19   0.0000       0.112550         3.0626

MULLIKEN ATOMIC CHARGES
-----------------------
   0 C :    0.154031
   1 O :   -0.213141
   2 C :   -0.028391
   3 C :    0.056601
   4 H :   -0.013389
   5 H :   -0.016102
   6 H :    0.042683
   7 H :    0.017708
Sum of atomic charges:    0.0000000

LOEWDIN ATOMIC CHARGES
----------------------
   0 C :   -0.012615
   1 O :   -0.029731
   2 C :   -0.060616
   3 C :    0.017956
   4 H :   -0.000428
   5 H :    0.020701
   6 H :    0.044230
   7 H :    0.020503

  Mayer bond orders larger than 0.100000
B(  0-C ,  1-O ) :   2.1923 B(  0-C ,  2-C ) :   1.0314 B(  0-C ,  4-H ) :   0.9310
B(  2-C ,  3-C ) :   2.0054 B(  2-C ,  5-H ) :   0.9362 B(  3-C ,  6-H ) :   0.9446
B(  3-C ,  7-H ) :   0.9407

-----------------------------------------------------------------------------
         ABSORPTION SPECTRUM VIA TRANSITION ELECTRIC DIPOLE MOMENTS
-----------------------------------------------------------------------------
State   Energy    Wavelength  fosc         T2        TX        TY        TZ
        (cm-1)      (nm)                 (au**2)    (au)      (au)      (au)
-----------------------------------------------------------------------------
   1   28742.4    347.9   0.000067531   0.00077   0.01736  -0.01757  -0.01279

FINAL SINGLE POINT ENERGY      -191.655130209046

DIPOLE MOMENT
-------------
                                X             Y             Z
Electronic contribution:     -2.05612      -1.31230       0.76782
Nuclear contribution   :      2.56814       2.18248      -1.11570
                        -----------------------------------------
Total Dipole Moment    :      0.51202       0.87018      -0.34788
                        -----------------------------------------
Magnitude (a.u.)       :      1.06790
Magnitude (Debye)      :      2.71438

Rotational constants in cm-1:     0.862953     0.189832     0.162687
Rotational constants in MHz : 25870.665347  5691.006182  4877.239418

                             ****ORCA TERMINATED NORMALLY****
TOTAL RUN TIME: 0 days 0 hours 3 minutes 23 seconds 312 msec
