                         Program Version 5.0.3 -  RELEASE  -
|  1> ! HF-3c
|  2> !TightSCF
|  3> %scf
|  4>  ConvForced true
|  5>  convergence tight
|  6>  MaxIter 500
|  7> end
|  8>
|  9> %tddft
| 10>  nroots 1
| 11> end
| 12>
| 13> # 	15523
| 14> * xyz 0 1
| 15> 		C   -1.164375  -0.330774  -0.002241
| 16> 		O   -1.275102  -1.460198   0.455646
| 17> 		C   -0.006648   0.468641   0.181374
| 18> 		C    1.271600  -0.025434  -0.045570
| 19> 		H   -2.047998   0.173848  -0.492006
| 20> 		H   -0.179846   1.606099   0.299244
| 21> 		H    1.293885  -1.027045  -0.293124
| 22> 		H    2.130309   0.590616  -0.087822
| 23> *
| 24>
| 25>                          ****END OF INPUT****

CARTESIAN COORDINATES (ANGSTROEM)
---------------------------------
  C     -1.164375   -0.330774   -0.002241
  O     -1.275102   -1.460198    0.455646
  C     -0.006648    0.468641    0.181374
  C      1.271600   -0.025434   -0.045570
  H     -2.047998    0.173848   -0.492006
  H     -0.179846    1.606099    0.299244
  H      1.293885   -1.027045   -0.293124
  H      2.130309    0.590616   -0.087822

 Total Charge           Charge          ....    0
 Multiplicity           Mult            ....    1
 Number of Electrons    NEL             ....   30
 Basis Dimension        Dim             ....   24

ORBITAL ENERGIES
----------------

  NO   OCC          E(Eh)            E(eV)
   0   2.0000     -20.358228      -553.9755
   1   2.0000     -11.293392      -307.3088
   2   2.0000     -11.191346      -304.5320
   3   2.0000     -11.189605      -304.4846
   4   2.0000      -1.391893       -37.8753
   5   2.0000      -1.074064       -29.2268
   6   2.0000      -0.904673       -24.6174
   7   2.0000      -0.744091       -20.2477
   8   2.0000      -0.698922       -19.0186
   9   2.0000      -0.613514       -16.6946
  10   2.0000      -0.606237       -16.4965
  11   2.0000      -0.547126       -14.8881
  12   2.0000      -0.509736       -13.8706
  13   2.0000      -0.415548       -11.3076
  14   2.0000      -0.380132       -10.3439
  15   0.0000       0.127474         3.4687
  16   0.0000       0.271518         7.3884
  17   0.0000       0.558434        15.1958
  18   0.0000       0.616298        16.7703
  19   0.0000       0.695008        18.9121

MULLIKEN ATOMIC CHARGES
-----------------------
   0 C :    0.149040
   1 O :   -0.347659
   2 C :   -0.154426
   3 C :   -0.231381
   4 H :    0.139001
   5 H :    0.144828
   6 H :    0.151504
   7 H :    0.149094
Sum of atomic charges:   -0.0000000

LOEWDIN ATOMIC CHARGES
----------------------
   0 C :    0.135592
   1 O :   -0.259390
   2 C :   -0.116596
   3 C :   -0.126968
   4 H :    0.078059
   5 H :    0.098512
   6 H :    0.094840
   7 H :    0.095951

  Mayer bond orders larger than 0.100000
B(  0-C ,  1-O ) :   1.8924 B(  0-C ,  2-C ) :   1.0580 B(  0-C ,  4-H ) :   0.9196
B(  2-C ,  3-C ) :   1.9273 B(  2-C ,  5-H ) :   0.9529 B(  3-C ,  6-H ) :   0.9655
B(  3-C ,  7-H ) :   0.9675

-----------------------------------------------------------------------------
         ABSORPTION SPECTRUM VIA TRANSITION ELECTRIC DIPOLE MOMENTS
-----------------------------------------------------------------------------
State   Energy    Wavelength  fosc         T2        TX        TY        TZ
        (cm-1)      (nm)                 (au**2)    (au)      (au)      (au)
-----------------------------------------------------------------------------
   1   31918.0    313.3   0.000064365   0.00066   0.02359   0.00575   0.00862

Dispersion correction           -0.025647086
FINAL SINGLE POINT ENERGY      -189.326026092108

DIPOLE MOMENT
-------------
                                X             Y             Z
Electronic contribution:     -1.98969      -1.66971       0.66290
Nuclear contribution   :      2.31221       2.62701      -1.09032
                        -----------------------------------------
Total Dipole Moment    :      0.32252       0.95730      -0.42742
                        -----------------------------------------
Magnitude (a.u.)       :      1.09687
Magnitude (Debye)      :      2.78802

Rotational constants in cm-1:     0.789231     0.199906     0.165042
Rotational constants in MHz : 23660.546646  5993.018768  4947.837486

                             ****ORCA TERMINATED NORMALLY****
TOTAL RUN TIME: 0 days 0 hours 0 minutes 13 seconds 538 msec
