                         Program Version 5.0.3 -  RELEASE  -
|  1> ! B3LYP cc-pVDZ
|  2> !TightSCF
|  3> %scf
|  4>  ConvForced true
|  5>  convergence tight
|  6>  MaxIter 500
|  7> end
|  8>
|  9> %tddft
| 10>  nroots 1
| 11> end
| 12>
| 13> # 	18426
| 14> * xyz 0 1
| 15> 		C   -1.202722  -0.285928  -0.024188
| 16> 		O   -1.652759  -1.078184  -0.765145
| 17> 		C    0.011032   0.503348  -0.216198
| 18> 		C    1.249477   0.111715   0.115650
| 19> 		H   -1.687700  -0.276215   1.042195
| 20> 		H   -0.115749   1.392153  -0.842141
| 21> 		H    1.416182  -0.830485   0.668460
| 22> 		H    1.991498   0.485230  -0.036225
| 23> *
| 24>
| 25>                          ****END OF INPUT****

CARTESIAN COORDINATES (ANGSTROEM)
---------------------------------
  C     -1.202722   -0.285928   -0.024188
  O     -1.652759   -1.078184   -0.765145
  C      0.011032    0.503348   -0.216198
  C      1.249477    0.111715    0.115650
  H     -1.687700   -0.276215    1.042195
  H     -0.115749    1.392153   -0.842141
  H      1.416182   -0.830485    0.668460
  H      1.991498    0.485230   -0.036225

 Total Charge           Charge          ....    0
 Multiplicity           Mult            ....    1
 Number of Electrons    NEL             ....   30
 Basis Dimension        Dim             ....   76

ORBITAL ENERGIES
----------------

  NO   OCC          E(Eh)            E(eV)
   0   2.0000     -19.145547      -520.9768
   1   2.0000     -10.281904      -279.7848
   2   2.0000     -10.209793      -277.8226
   3   2.0000     -10.188989      -277.2565
   4   2.0000      -1.073898       -29.2222
   5   2.0000      -0.803377       -21.8610
   6   2.0000      -0.676678       -18.4133
   7   2.0000      -0.559321       -15.2199
   8   2.0000      -0.502015       -13.6605
   9   2.0000      -0.484137       -13.1740
  10   2.0000      -0.448771       -12.2117
  11   2.0000      -0.404671       -11.0117
  12   2.0000      -0.377074       -10.2607
  13   2.0000      -0.287414        -7.8209
  14   2.0000      -0.254415        -6.9230
  15   0.0000      -0.031213        -0.8493
  16   0.0000      -0.011598        -0.3156
  17   0.0000       0.089429         2.4335
  18   0.0000       0.096872         2.6360
  19   0.0000       0.099979         2.7206

MULLIKEN ATOMIC CHARGES
-----------------------
   0 C :    0.138638
   1 O :   -0.143679
   2 C :   -0.114478
   3 C :    0.220602
   4 H :   -0.023177
   5 H :    0.021226
   6 H :    0.013819
   7 H :   -0.112952
Sum of atomic charges:    0.0000000

LOEWDIN ATOMIC CHARGES
----------------------
   0 C :   -0.052164
   1 O :    0.046005
   2 C :   -0.041718
   3 C :    0.044555
   4 H :   -0.009721
   5 H :    0.040293
   6 H :    0.040230
   7 H :   -0.067480

  Mayer bond orders larger than 0.100000
B(  0-C ,  1-O ) :   2.2744 B(  0-C ,  2-C ) :   0.9743 B(  0-C ,  4-H ) :   0.9037
B(  2-C ,  3-C ) :   2.0463 B(  2-C ,  5-H ) :   0.9316 B(  3-C ,  6-H ) :   0.9529
B(  3-C ,  7-H ) :   0.9272

-----------------------------------------------------------------------------
         ABSORPTION SPECTRUM VIA TRANSITION ELECTRIC DIPOLE MOMENTS
-----------------------------------------------------------------------------
State   Energy    Wavelength  fosc         T2        TX        TY        TZ
        (cm-1)      (nm)                 (au**2)    (au)      (au)      (au)
-----------------------------------------------------------------------------
   1   34456.1    290.2   0.000624558   0.00597   0.03872   0.00336   0.06676

FINAL SINGLE POINT ENERGY      -191.565268549600

DIPOLE MOMENT
-------------
                                X             Y             Z
Electronic contribution:     -2.54049      -0.97326      -1.27312
Nuclear contribution   :      3.10223       1.54842       1.63645
                        -----------------------------------------
Total Dipole Moment    :      0.56174       0.57516       0.36333
                        -----------------------------------------
Magnitude (a.u.)       :      0.88225
Magnitude (Debye)      :      2.24251

Rotational constants in cm-1:     1.036537     0.168271     0.160688
Rotational constants in MHz : 31074.596879  5044.652199  4817.301236

                             ****ORCA TERMINATED NORMALLY****
TOTAL RUN TIME: 0 days 0 hours 3 minutes 27 seconds 958 msec
