                         Program Version 5.0.3 -  RELEASE  -
|  1> ! HF-3c
|  2> !TightSCF
|  3> %scf
|  4>  ConvForced true
|  5>  convergence tight
|  6>  MaxIter 500
|  7> end
|  8>
|  9> %tddft
| 10>  nroots 1
| 11> end
| 12>
| 13> # 	15969
| 14> * xyz 0 1
| 15> 		C   -1.175258  -0.312639   0.020335
| 16> 		O   -1.697079  -0.921206   0.898397
| 17> 		C    0.019890   0.488167   0.125249
| 18> 		C    1.195374   0.056506  -0.179147
| 19> 		H   -1.687587  -0.436092  -1.038232
| 20> 		H   -0.045688   1.411529   0.912072
| 21> 		H    1.319075  -0.925650  -0.717234
| 22> 		H    2.008891   0.701360   0.005075
| 23> *
| 24>
| 25>                          ****END OF INPUT****

CARTESIAN COORDINATES (ANGSTROEM)
---------------------------------
  C     -1.175258   -0.312639    0.020335
  O     -1.697079   -0.921206    0.898397
  C      0.019890    0.488167    0.125249
  C      1.195374    0.056506   -0.179147
  H     -1.687587   -0.436092   -1.038232
  H     -0.045688    1.411529    0.912072
  H      1.319075   -0.925650   -0.717234
  H      2.008891    0.701360    0.005075

 Total Charge           Charge          ....    0
 Multiplicity           Mult            ....    1
 Number of Electrons    NEL             ....   30
 Basis Dimension        Dim             ....   24

ORBITAL ENERGIES
----------------

  NO   OCC          E(Eh)            E(eV)
   0   2.0000     -20.372171      -554.3549
   1   2.0000     -11.300782      -307.5099
   2   2.0000     -11.193295      -304.5850
   3   2.0000     -11.186575      -304.4022
   4   2.0000      -1.419194       -38.6182
   5   2.0000      -1.097041       -29.8520
   6   2.0000      -0.883622       -24.0446
   7   2.0000      -0.744539       -20.2599
   8   2.0000      -0.675440       -18.3796
   9   2.0000      -0.646681       -17.5971
  10   2.0000      -0.602910       -16.4060
  11   2.0000      -0.543029       -14.7766
  12   2.0000      -0.501454       -13.6453
  13   2.0000      -0.413669       -11.2565
  14   2.0000      -0.401303       -10.9200
  15   0.0000       0.179361         4.8807
  16   0.0000       0.243627         6.6294
  17   0.0000       0.519833        14.1454
  18   0.0000       0.553787        15.0693
  19   0.0000       0.648171        17.6376

MULLIKEN ATOMIC CHARGES
-----------------------
   0 C :    0.177055
   1 O :   -0.353429
   2 C :   -0.163516
   3 C :   -0.246350
   4 H :    0.131516
   5 H :    0.161828
   6 H :    0.146620
   7 H :    0.146277
Sum of atomic charges:   -0.0000000

LOEWDIN ATOMIC CHARGES
----------------------
   0 C :    0.148270
   1 O :   -0.252288
   2 C :   -0.126298
   3 C :   -0.153152
   4 H :    0.073679
   5 H :    0.117918
   6 H :    0.098851
   7 H :    0.093021

  Mayer bond orders larger than 0.100000
B(  0-C ,  1-O ) :   1.9361 B(  0-C ,  2-C ) :   1.0050 B(  0-C ,  4-H ) :   0.9095
B(  2-C ,  3-C ) :   1.9928 B(  2-C ,  5-H ) :   0.9328 B(  3-C ,  6-H ) :   0.9594
B(  3-C ,  7-H ) :   0.9614

-----------------------------------------------------------------------------
         ABSORPTION SPECTRUM VIA TRANSITION ELECTRIC DIPOLE MOMENTS
-----------------------------------------------------------------------------
State   Energy    Wavelength  fosc         T2        TX        TY        TZ
        (cm-1)      (nm)                 (au**2)    (au)      (au)      (au)
-----------------------------------------------------------------------------
   1   35360.2    282.8   0.000072984   0.00068  -0.02567  -0.00419   0.00170

Dispersion correction           -0.025375776
FINAL SINGLE POINT ENERGY      -189.296286997983

DIPOLE MOMENT
-------------
                                X             Y             Z
Electronic contribution:     -2.57511      -0.93118       1.06950
Nuclear contribution   :      3.15527       1.44334      -1.65522
                        -----------------------------------------
Total Dipole Moment    :      0.58016       0.51215      -0.58573
                        -----------------------------------------
Magnitude (a.u.)       :      0.97055
Magnitude (Debye)      :      2.46694

Rotational constants in cm-1:     1.066594     0.168214     0.164773
Rotational constants in MHz : 31975.675109  5042.915077  4939.766331

                             ****ORCA TERMINATED NORMALLY****
TOTAL RUN TIME: 0 days 0 hours 0 minutes 11 seconds 403 msec
