                         Program Version 5.0.3 -  RELEASE  -
|  1> ! B3LYP cc-pVDZ
|  2> !TightSCF
|  3> %scf
|  4>  ConvForced true
|  5>  convergence tight
|  6>  MaxIter 500
|  7> end
|  8>
|  9> %tddft
| 10>  nroots 1
| 11> end
| 12>
| 13> # 	22537
| 14> * xyz 0 1
| 15> 		C   -0.526877  -0.450933   0.024753
| 16> 		O   -0.612099  -1.658175  -0.018257
| 17> 		C    0.646326   0.481255   0.018978
| 18> 		C    1.848255  -0.111786  -0.005244
| 19> 		H   -1.621439  -0.074645  -0.051144
| 20> 		H    0.335182   1.468530  -0.154879
| 21> 		H    1.747865  -1.344135   0.139263
| 22> 		H    2.777787   0.440957  -0.116569
| 23> *
| 24>
| 25>                          ****END OF INPUT****

CARTESIAN COORDINATES (ANGSTROEM)
---------------------------------
  C     -0.526877   -0.450933    0.024753
  O     -0.612099   -1.658175   -0.018257
  C      0.646326    0.481255    0.018978
  C      1.848255   -0.111786   -0.005244
  H     -1.621439   -0.074645   -0.051144
  H      0.335182    1.468530   -0.154879
  H      1.747865   -1.344135    0.139263
  H      2.777787    0.440957   -0.116569

 Total Charge           Charge          ....    0
 Multiplicity           Mult            ....    1
 Number of Electrons    NEL             ....   30
 Basis Dimension        Dim             ....   76

ORBITAL ENERGIES
----------------

  NO   OCC          E(Eh)            E(eV)
   0   2.0000     -19.135416      -520.7011
   1   2.0000     -10.274483      -279.5829
   2   2.0000     -10.230077      -278.3746
   3   2.0000     -10.210529      -277.8426
   4   2.0000      -1.045138       -28.4397
   5   2.0000      -0.799277       -21.7494
   6   2.0000      -0.646811       -17.6006
   7   2.0000      -0.531796       -14.4709
   8   2.0000      -0.513700       -13.9785
   9   2.0000      -0.442425       -12.0390
  10   2.0000      -0.421560       -11.4712
  11   2.0000      -0.396919       -10.8007
  12   2.0000      -0.376498       -10.2450
  13   2.0000      -0.293043        -7.9741
  14   2.0000      -0.245658        -6.6847
  15   0.0000      -0.068527        -1.8647
  16   0.0000       0.055613         1.5133
  17   0.0000       0.068038         1.8514
  18   0.0000       0.070992         1.9318
  19   0.0000       0.119268         3.2454

MULLIKEN ATOMIC CHARGES
-----------------------
   0 C :    0.134322
   1 O :   -0.194665
   2 C :   -0.053560
   3 C :    0.031173
   4 H :   -0.019918
   5 H :   -0.017407
   6 H :    0.081000
   7 H :    0.039055
Sum of atomic charges:   -0.0000000

LOEWDIN ATOMIC CHARGES
----------------------
   0 C :   -0.039727
   1 O :   -0.012838
   2 C :   -0.080243
   3 C :    0.017573
   4 H :   -0.002831
   5 H :    0.020071
   6 H :    0.068856
   7 H :    0.029139

  Mayer bond orders larger than 0.100000
B(  0-C ,  1-O ) :   2.1633 B(  0-C ,  2-C ) :   1.0335 B(  0-C ,  4-H ) :   0.9276
B(  2-C ,  3-C ) :   1.9340 B(  2-C ,  5-H ) :   0.9613 B(  3-C ,  6-H ) :   0.9034
B(  3-C ,  7-H ) :   0.9440

-----------------------------------------------------------------------------
         ABSORPTION SPECTRUM VIA TRANSITION ELECTRIC DIPOLE MOMENTS
-----------------------------------------------------------------------------
State   Energy    Wavelength  fosc         T2        TX        TY        TZ
        (cm-1)      (nm)                 (au**2)    (au)      (au)      (au)
-----------------------------------------------------------------------------
   1   26389.9    378.9   0.000300213   0.00375  -0.02400  -0.00660   0.05591

FINAL SINGLE POINT ENERGY      -191.660384580563

DIPOLE MOMENT
-------------
                                X             Y             Z
Electronic contribution:     -1.40243      -1.35460       0.14340
Nuclear contribution   :      1.88052       2.25112      -0.17128
                        -----------------------------------------
Total Dipole Moment    :      0.47809       0.89651      -0.02788
                        -----------------------------------------
Magnitude (a.u.)       :      1.01641
Magnitude (Debye)      :      2.58350

Rotational constants in cm-1:     0.771274     0.204037     0.161592
Rotational constants in MHz : 23122.205400  6116.885631  4844.396994

                             ****ORCA TERMINATED NORMALLY****
TOTAL RUN TIME: 0 days 0 hours 3 minutes 22 seconds 762 msec
