                         Program Version 5.0.3 -  RELEASE  -
|  1> ! HF-3c
|  2> !TightSCF
|  3> %scf
|  4>  ConvForced true
|  5>  convergence tight
|  6>  MaxIter 500
|  7> end
|  8>
|  9> %tddft
| 10>  nroots 1
| 11> end
| 12>
| 13> # 	715
| 14> * xyz 0 1
| 15> 		C   -1.141834  -0.331667  -0.028869
| 16> 		O   -1.984529  -0.681319   0.798899
| 17> 		C   -0.010342   0.489603   0.239740
| 18> 		C    1.181702   0.090118  -0.155770
| 19> 		H   -1.267473  -0.773570  -1.039548
| 20> 		H   -0.193752   1.330955   0.925422
| 21> 		H    1.270499  -0.792463  -0.814536
| 22> 		H    2.166162   0.712985   0.113196
| 23> *
| 24>
| 25>                          ****END OF INPUT****

CARTESIAN COORDINATES (ANGSTROEM)
---------------------------------
  C     -1.141834   -0.331667   -0.028869
  O     -1.984529   -0.681319    0.798899
  C     -0.010342    0.489603    0.239740
  C      1.181702    0.090118   -0.155770
  H     -1.267473   -0.773570   -1.039548
  H     -0.193752    1.330955    0.925422
  H      1.270499   -0.792463   -0.814536
  H      2.166162    0.712985    0.113196

 Total Charge           Charge          ....    0
 Multiplicity           Mult            ....    1
 Number of Electrons    NEL             ....   30
 Basis Dimension        Dim             ....   24

ORBITAL ENERGIES
----------------

  NO   OCC          E(Eh)            E(eV)
   0   2.0000     -20.353155      -553.8375
   1   2.0000     -11.287697      -307.1539
   2   2.0000     -11.195048      -304.6328
   3   2.0000     -11.193683      -304.5956
   4   2.0000      -1.383660       -37.6513
   5   2.0000      -1.096530       -29.8381
   6   2.0000      -0.876936       -23.8626
   7   2.0000      -0.773009       -21.0347
   8   2.0000      -0.667335       -18.1591
   9   2.0000      -0.635839       -17.3021
  10   2.0000      -0.584229       -15.8977
  11   2.0000      -0.535261       -14.5652
  12   2.0000      -0.510086       -13.8802
  13   2.0000      -0.411090       -11.1863
  14   2.0000      -0.398415       -10.8414
  15   0.0000       0.145263         3.9528
  16   0.0000       0.276468         7.5231
  17   0.0000       0.529236        14.4013
  18   0.0000       0.593544        16.1511
  19   0.0000       0.612848        16.6765

MULLIKEN ATOMIC CHARGES
-----------------------
   0 C :    0.154047
   1 O :   -0.347360
   2 C :   -0.187827
   3 C :   -0.208941
   4 H :    0.135718
   5 H :    0.160599
   6 H :    0.141627
   7 H :    0.152137
Sum of atomic charges:   -0.0000000

LOEWDIN ATOMIC CHARGES
----------------------
   0 C :    0.142167
   1 O :   -0.261572
   2 C :   -0.138904
   3 C :   -0.122513
   4 H :    0.073310
   5 H :    0.106538
   6 H :    0.092698
   7 H :    0.108276

  Mayer bond orders larger than 0.100000
B(  0-C ,  1-O ) :   1.9041 B(  0-C ,  2-C ) :   1.0371 B(  0-C ,  4-H ) :   0.9269
B(  2-C ,  3-C ) :   1.9540 B(  2-C ,  5-H ) :   0.9469 B(  3-C ,  6-H ) :   0.9625
B(  3-C ,  7-H ) :   0.9580

-----------------------------------------------------------------------------
         ABSORPTION SPECTRUM VIA TRANSITION ELECTRIC DIPOLE MOMENTS
-----------------------------------------------------------------------------
State   Energy    Wavelength  fosc         T2        TX        TY        TZ
        (cm-1)      (nm)                 (au**2)    (au)      (au)      (au)
-----------------------------------------------------------------------------
   1   32154.3    311.0   0.000023377   0.00024   0.01045  -0.01041  -0.00465

Dispersion correction           -0.025630843
FINAL SINGLE POINT ENERGY      -189.329217222294

DIPOLE MOMENT
-------------
                                X             Y             Z
Electronic contribution:     -2.83298      -0.62306       0.99307
Nuclear contribution   :      3.79994       0.93821      -1.60139
                        -----------------------------------------
Total Dipole Moment    :      0.96697       0.31514      -0.60832
                        -----------------------------------------
Magnitude (a.u.)       :      1.18507
Magnitude (Debye)      :      3.01221

Rotational constants in cm-1:     1.282954     0.162599     0.153546
Rotational constants in MHz : 38461.986007  4874.581783  4603.188460

                             ****ORCA TERMINATED NORMALLY****
TOTAL RUN TIME: 0 days 0 hours 0 minutes 16 seconds 65 msec
