                         Program Version 5.0.3 -  RELEASE  -
|  1> ! B3LYP cc-pVDZ
|  2> !TightSCF
|  3> %scf
|  4>  ConvForced true
|  5>  convergence tight
|  6>  MaxIter 500
|  7> end
|  8>
|  9> %tddft
| 10>  nroots 1
| 11> end
| 12>
| 13> # 	23814
| 14> * xyz 0 1
| 15> 		C   -0.595343  -0.417425  -0.009665
| 16> 		O   -0.561335  -1.623689   0.008722
| 17> 		C    0.630522   0.402211   0.014556
| 18> 		C    1.840814  -0.135860  -0.020127
| 19> 		H   -1.501306   0.153622   0.041661
| 20> 		H    0.351697   1.491190  -0.137580
| 21> 		H    1.913180  -1.328874  -0.142017
| 22> 		H    2.740896   0.523254   0.292486
| 23> *
| 24>
| 25>                          ****END OF INPUT****

CARTESIAN COORDINATES (ANGSTROEM)
---------------------------------
  C     -0.595343   -0.417425   -0.009665
  O     -0.561335   -1.623689    0.008722
  C      0.630522    0.402211    0.014556
  C      1.840814   -0.135860   -0.020127
  H     -1.501306    0.153622    0.041661
  H      0.351697    1.491190   -0.137580
  H      1.913180   -1.328874   -0.142017
  H      2.740896    0.523254    0.292486

 Total Charge           Charge          ....    0
 Multiplicity           Mult            ....    1
 Number of Electrons    NEL             ....   30
 Basis Dimension        Dim             ....   76

ORBITAL ENERGIES
----------------

  NO   OCC          E(Eh)            E(eV)
   0   2.0000     -19.136457      -520.7295
   1   2.0000     -10.268120      -279.4097
   2   2.0000     -10.225310      -278.2448
   3   2.0000     -10.203106      -277.6406
   4   2.0000      -1.047449       -28.5025
   5   2.0000      -0.791859       -21.5476
   6   2.0000      -0.657884       -17.9019
   7   2.0000      -0.531961       -14.4754
   8   2.0000      -0.498372       -13.5614
   9   2.0000      -0.443954       -12.0806
  10   2.0000      -0.421757       -11.4766
  11   2.0000      -0.402215       -10.9448
  12   2.0000      -0.369496       -10.0545
  13   2.0000      -0.284130        -7.7316
  14   2.0000      -0.255011        -6.9392
  15   0.0000      -0.071230        -1.9383
  16   0.0000       0.050801         1.3824
  17   0.0000       0.072045         1.9605
  18   0.0000       0.072969         1.9856
  19   0.0000       0.125890         3.4256

MULLIKEN ATOMIC CHARGES
-----------------------
   0 C :    0.199750
   1 O :   -0.192878
   2 C :   -0.118395
   3 C :    0.006282
   4 H :   -0.029542
   5 H :    0.003046
   6 H :    0.074281
   7 H :    0.057455
Sum of atomic charges:   -0.0000000

LOEWDIN ATOMIC CHARGES
----------------------
   0 C :   -0.037906
   1 O :    0.000290
   2 C :   -0.096450
   3 C :   -0.000094
   4 H :   -0.009189
   5 H :    0.034746
   6 H :    0.059472
   7 H :    0.049131

  Mayer bond orders larger than 0.100000
B(  0-C ,  1-O ) :   2.1905 B(  0-C ,  2-C ) :   1.0788 B(  0-C ,  4-H ) :   0.9193
B(  2-C ,  3-C ) :   1.9497 B(  2-C ,  5-H ) :   0.9403 B(  3-C ,  6-H ) :   0.9163
B(  3-C ,  7-H ) :   0.9345

-----------------------------------------------------------------------------
         ABSORPTION SPECTRUM VIA TRANSITION ELECTRIC DIPOLE MOMENTS
-----------------------------------------------------------------------------
State   Energy    Wavelength  fosc         T2        TX        TY        TZ
        (cm-1)      (nm)                 (au**2)    (au)      (au)      (au)
-----------------------------------------------------------------------------
   1   27506.7    363.5   0.000283852   0.00340   0.03710   0.01766  -0.04134

FINAL SINGLE POINT ENERGY      -191.664356750714

DIPOLE MOMENT
-------------
                                X             Y             Z
Electronic contribution:     -1.82006      -1.70891      -0.05464
Nuclear contribution   :      2.13145       2.57407       0.05053
                        -----------------------------------------
Total Dipole Moment    :      0.31138       0.86516      -0.00411
                        -----------------------------------------
Magnitude (a.u.)       :      0.91950
Magnitude (Debye)      :      2.33718

Rotational constants in cm-1:     0.745615     0.214205     0.166852
Rotational constants in MHz : 22352.972909  6421.707019  5002.087426

                             ****ORCA TERMINATED NORMALLY****
TOTAL RUN TIME: 0 days 0 hours 3 minutes 17 seconds 431 msec
