                         Program Version 5.0.3 -  RELEASE  -
|  1> ! HF-3c
|  2> !TightSCF
|  3> %scf
|  4>  ConvForced true
|  5>  convergence tight
|  6>  MaxIter 500
|  7> end
|  8>
|  9> %tddft
| 10>  nroots 1
| 11> end
| 12>
| 13> # 	13097
| 14> * xyz 0 1
| 15> 		C   -1.171368  -0.343581   0.068954
| 16> 		O   -2.090749  -0.490626   0.794428
| 17> 		C    0.055441   0.451654   0.350414
| 18> 		C    1.182271   0.163897  -0.301646
| 19> 		H   -1.140471  -0.911386  -0.829442
| 20> 		H   -0.062256   1.101799   1.245841
| 21> 		H    1.239527  -0.616224  -1.191088
| 22> 		H    1.995217   0.614026  -0.116194
| 23> *
| 24>
| 25>                          ****END OF INPUT****

CARTESIAN COORDINATES (ANGSTROEM)
---------------------------------
  C     -1.171368   -0.343581    0.068954
  O     -2.090749   -0.490626    0.794428
  C      0.055441    0.451654    0.350414
  C      1.182271    0.163897   -0.301646
  H     -1.140471   -0.911386   -0.829442
  H     -0.062256    1.101799    1.245841
  H      1.239527   -0.616224   -1.191088
  H      1.995217    0.614026   -0.116194

 Total Charge           Charge          ....    0
 Multiplicity           Mult            ....    1
 Number of Electrons    NEL             ....   30
 Basis Dimension        Dim             ....   24

ORBITAL ENERGIES
----------------

  NO   OCC          E(Eh)            E(eV)
   0   2.0000     -20.378108      -554.5165
   1   2.0000     -11.304291      -307.6054
   2   2.0000     -11.198875      -304.7369
   3   2.0000     -11.197261      -304.6930
   4   2.0000      -1.427977       -38.8572
   5   2.0000      -1.089736       -29.6532
   6   2.0000      -0.893170       -24.3044
   7   2.0000      -0.788929       -21.4679
   8   2.0000      -0.675885       -18.3918
   9   2.0000      -0.660228       -17.9657
  10   2.0000      -0.592707       -16.1284
  11   2.0000      -0.555960       -15.1284
  12   2.0000      -0.545073       -14.8322
  13   2.0000      -0.412988       -11.2380
  14   2.0000      -0.404247       -11.0001
  15   0.0000       0.136229         3.7070
  16   0.0000       0.300146         8.1674
  17   0.0000       0.500522        13.6199
  18   0.0000       0.616696        16.7812
  19   0.0000       0.687233        18.7006

MULLIKEN ATOMIC CHARGES
-----------------------
   0 C :    0.170960
   1 O :   -0.353657
   2 C :   -0.156508
   3 C :   -0.244302
   4 H :    0.130482
   5 H :    0.160519
   6 H :    0.152672
   7 H :    0.139834
Sum of atomic charges:    0.0000000

LOEWDIN ATOMIC CHARGES
----------------------
   0 C :    0.146729
   1 O :   -0.248343
   2 C :   -0.112540
   3 C :   -0.143217
   4 H :    0.062998
   5 H :    0.106673
   6 H :    0.108729
   7 H :    0.078971

  Mayer bond orders larger than 0.100000
B(  0-C ,  1-O ) :   1.9153 B(  0-C ,  2-C ) :   1.0114 B(  0-C ,  4-H ) :   0.9257
B(  2-C ,  3-C ) :   1.9582 B(  2-C ,  5-H ) :   0.9526 B(  3-C ,  6-H ) :   0.9583
B(  3-C ,  7-H ) :   0.9696

-----------------------------------------------------------------------------
         ABSORPTION SPECTRUM VIA TRANSITION ELECTRIC DIPOLE MOMENTS
-----------------------------------------------------------------------------
State   Energy    Wavelength  fosc         T2        TX        TY        TZ
        (cm-1)      (nm)                 (au**2)    (au)      (au)      (au)
-----------------------------------------------------------------------------
   1   34385.4    290.8   0.000032478   0.00031   0.01083  -0.00602  -0.01255

Dispersion correction           -0.025661428
FINAL SINGLE POINT ENERGY      -189.307576628553

DIPOLE MOMENT
-------------
                                X             Y             Z
Electronic contribution:     -3.02986      -0.36576       1.15173
Nuclear contribution   :      3.93211       0.46454      -1.71284
                        -----------------------------------------
Total Dipole Moment    :      0.90225       0.09878      -0.56111
                        -----------------------------------------
Magnitude (a.u.)       :      1.06708
Magnitude (Debye)      :      2.71230

Rotational constants in cm-1:     1.495069     0.158032     0.144672
Rotational constants in MHz : 44821.036955  4737.685152  4337.142697

                             ****ORCA TERMINATED NORMALLY****
TOTAL RUN TIME: 0 days 0 hours 0 minutes 12 seconds 854 msec
