                         Program Version 5.0.3 -  RELEASE  -
|  1> ! HF-3c
|  2> !TightSCF
|  3> %scf
|  4>  ConvForced true
|  5>  convergence tight
|  6>  MaxIter 500
|  7> end
|  8>
|  9> %tddft
| 10>  nroots 1
| 11> end
| 12>
| 13> # 	31452
| 14> * xyz 0 1
| 15> 		C   -0.604834  -0.436238  -0.044826
| 16> 		O   -0.602223  -1.629719   0.017373
| 17> 		C    0.649655   0.375000   0.039794
| 18> 		C    1.866838  -0.076979  -0.015666
| 19> 		H   -1.495919   0.142442   0.000247
| 20> 		H    0.543269   1.243071   0.008289
| 21> 		H    1.992148  -1.203569  -0.004615
| 22> 		H    2.684230   0.571049  -0.033941
| 23> *
| 24>
| 25>                          ****END OF INPUT****

CARTESIAN COORDINATES (ANGSTROEM)
---------------------------------
  C     -0.604834   -0.436238   -0.044826
  O     -0.602223   -1.629719    0.017373
  C      0.649655    0.375000    0.039794
  C      1.866838   -0.076979   -0.015666
  H     -1.495919    0.142442    0.000247
  H      0.543269    1.243071    0.008289
  H      1.992148   -1.203569   -0.004615
  H      2.684230    0.571049   -0.033941

 Total Charge           Charge          ....    0
 Multiplicity           Mult            ....    1
 Number of Electrons    NEL             ....   30
 Basis Dimension        Dim             ....   24

ORBITAL ENERGIES
----------------

  NO   OCC          E(Eh)            E(eV)
   0   2.0000     -20.379184      -554.5458
   1   2.0000     -11.307796      -307.7008
   2   2.0000     -11.202009      -304.8222
   3   2.0000     -11.194415      -304.6155
   4   2.0000      -1.419981       -38.6396
   5   2.0000      -1.106961       -30.1219
   6   2.0000      -0.907822       -24.7031
   7   2.0000      -0.781162       -21.2565
   8   2.0000      -0.734021       -19.9737
   9   2.0000      -0.628435       -17.1006
  10   2.0000      -0.615864       -16.7585
  11   2.0000      -0.554363       -15.0850
  12   2.0000      -0.548821       -14.9342
  13   2.0000      -0.422982       -11.5099
  14   2.0000      -0.412649       -11.2287
  15   0.0000       0.132662         3.6099
  16   0.0000       0.306533         8.3412
  17   0.0000       0.552080        15.0228
  18   0.0000       0.632329        17.2066
  19   0.0000       0.730288        19.8721

MULLIKEN ATOMIC CHARGES
-----------------------
   0 C :    0.177009
   1 O :   -0.347963
   2 C :   -0.223219
   3 C :   -0.202131
   4 H :    0.142236
   5 H :    0.137289
   6 H :    0.165441
   7 H :    0.151338
Sum of atomic charges:    0.0000000

LOEWDIN ATOMIC CHARGES
----------------------
   0 C :    0.157521
   1 O :   -0.247264
   2 C :   -0.164115
   3 C :   -0.099763
   4 H :    0.073584
   5 H :    0.070870
   6 H :    0.113479
   7 H :    0.095687

  Mayer bond orders larger than 0.100000
B(  0-C ,  1-O ) :   1.9209 B(  0-C ,  2-C ) :   1.0072 B(  0-C ,  4-H ) :   0.9273
B(  2-C ,  3-C ) :   1.9545 B(  2-C ,  5-H ) :   0.9663 B(  3-C ,  6-H ) :   0.9555
B(  3-C ,  7-H ) :   0.9641

-----------------------------------------------------------------------------
         ABSORPTION SPECTRUM VIA TRANSITION ELECTRIC DIPOLE MOMENTS
-----------------------------------------------------------------------------
State   Energy    Wavelength  fosc         T2        TX        TY        TZ
        (cm-1)      (nm)                 (au**2)    (au)      (au)      (au)
-----------------------------------------------------------------------------
   1   33364.2    299.7   0.000136408   0.00135   0.03664  -0.00015  -0.00187

Dispersion correction           -0.026260594
FINAL SINGLE POINT ENERGY      -189.284816917148

DIPOLE MOMENT
-------------
                                X             Y             Z
Electronic contribution:     -2.02173      -1.71184      -0.02024
Nuclear contribution   :      2.33687       2.49505      -0.02785
                        -----------------------------------------
Total Dipole Moment    :      0.31513       0.78321      -0.04808
                        -----------------------------------------
Magnitude (a.u.)       :      0.84560
Magnitude (Debye)      :      2.14935

Rotational constants in cm-1:     0.842881     0.203670     0.164200
Rotational constants in MHz : 25268.932684  6105.872675  4922.597727

                             ****ORCA TERMINATED NORMALLY****
TOTAL RUN TIME: 0 days 0 hours 0 minutes 11 seconds 920 msec
