                         Program Version 5.0.3 -  RELEASE  -
|  1> ! HF-3c
|  2> !TightSCF
|  3> %scf
|  4>  ConvForced true
|  5>  convergence tight
|  6>  MaxIter 500
|  7> end
|  8>
|  9> %tddft
| 10>  nroots 1
| 11> end
| 12>
| 13> # 	32177
| 14> * xyz 0 1
| 15> 		C   -0.653478  -0.422840  -0.085358
| 16> 		O   -0.537413  -1.575679   0.039875
| 17> 		C    0.626530   0.342924   0.056626
| 18> 		C    1.855340  -0.116337  -0.016238
| 19> 		H   -1.681891   0.185938  -0.058388
| 20> 		H    0.282406   1.406669   0.156492
| 21> 		H    2.187747  -1.267570  -0.095069
| 22> 		H    2.838282   0.331352  -0.095249
| 23> *
| 24>
| 25>                          ****END OF INPUT****

CARTESIAN COORDINATES (ANGSTROEM)
---------------------------------
  C     -0.653478   -0.422840   -0.085358
  O     -0.537413   -1.575679    0.039875
  C      0.626530    0.342924    0.056626
  C      1.855340   -0.116337   -0.016238
  H     -1.681891    0.185938   -0.058388
  H      0.282406    1.406669    0.156492
  H      2.187747   -1.267570   -0.095069
  H      2.838282    0.331352   -0.095249

 Total Charge           Charge          ....    0
 Multiplicity           Mult            ....    1
 Number of Electrons    NEL             ....   30
 Basis Dimension        Dim             ....   24

ORBITAL ENERGIES
----------------

  NO   OCC          E(Eh)            E(eV)
   0   2.0000     -20.372766      -554.3711
   1   2.0000     -11.300415      -307.4999
   2   2.0000     -11.181318      -304.2591
   3   2.0000     -11.178335      -304.1780
   4   2.0000      -1.436092       -39.0781
   5   2.0000      -1.056005       -28.7353
   6   2.0000      -0.877641       -23.8818
   7   2.0000      -0.739213       -20.1150
   8   2.0000      -0.681288       -18.5388
   9   2.0000      -0.631526       -17.1847
  10   2.0000      -0.586023       -15.9465
  11   2.0000      -0.557453       -15.1691
  12   2.0000      -0.490092       -13.3361
  13   2.0000      -0.402325       -10.9478
  14   2.0000      -0.383159       -10.4263
  15   0.0000       0.150552         4.0967
  16   0.0000       0.320029         8.7084
  17   0.0000       0.443260        12.0617
  18   0.0000       0.558086        15.1863
  19   0.0000       0.636422        17.3179

MULLIKEN ATOMIC CHARGES
-----------------------
   0 C :    0.181772
   1 O :   -0.357771
   2 C :   -0.172195
   3 C :   -0.217246
   4 H :    0.141286
   5 H :    0.131180
   6 H :    0.148662
   7 H :    0.144312
Sum of atomic charges:    0.0000000

LOEWDIN ATOMIC CHARGES
----------------------
   0 C :    0.141698
   1 O :   -0.246707
   2 C :   -0.134613
   3 C :   -0.127762
   4 H :    0.084430
   5 H :    0.084552
   6 H :    0.105020
   7 H :    0.093383

  Mayer bond orders larger than 0.100000
B(  0-C ,  1-O ) :   1.9218 B(  0-C ,  2-C ) :   1.0003 B(  0-C ,  4-H ) :   0.9079
B(  2-C ,  3-C ) :   1.9751 B(  2-C ,  5-H ) :   0.9559 B(  3-C ,  6-H ) :   0.9542
B(  3-C ,  7-H ) :   0.9636

-----------------------------------------------------------------------------
         ABSORPTION SPECTRUM VIA TRANSITION ELECTRIC DIPOLE MOMENTS
-----------------------------------------------------------------------------
State   Energy    Wavelength  fosc         T2        TX        TY        TZ
        (cm-1)      (nm)                 (au**2)    (au)      (au)      (au)
-----------------------------------------------------------------------------
   1   33598.8    297.6   0.000205911   0.00202   0.04232  -0.00711   0.01327

Dispersion correction           -0.025192933
FINAL SINGLE POINT ENERGY      -189.296651532917

DIPOLE MOMENT
-------------
                                X             Y             Z
Electronic contribution:     -2.09269      -1.59062      -0.00453
Nuclear contribution   :      2.25076       2.40051      -0.08625
                        -----------------------------------------
Total Dipole Moment    :      0.15807       0.80989      -0.09078
                        -----------------------------------------
Magnitude (a.u.)       :      0.83015
Magnitude (Debye)      :      2.11006

Rotational constants in cm-1:     0.755565     0.213649     0.167217
Rotational constants in MHz : 22651.263728  6405.023303  5013.035581

                             ****ORCA TERMINATED NORMALLY****
TOTAL RUN TIME: 0 days 0 hours 0 minutes 10 seconds 837 msec
