                         Program Version 5.0.3 -  RELEASE  -
|  1> ! B3LYP cc-pVDZ
|  2> !TightSCF
|  3> %scf
|  4>  ConvForced true
|  5>  convergence tight
|  6>  MaxIter 500
|  7> end
|  8>
|  9> %tddft
| 10>  nroots 1
| 11> end
| 12>
| 13> # 	23486
| 14> * xyz 0 1
| 15> 		C   -0.588831  -0.421105   0.013116
| 16> 		O   -0.596898  -1.641270  -0.005038
| 17> 		C    0.630229   0.408185  -0.010566
| 18> 		C    1.870358  -0.117632  -0.005826
| 19> 		H   -1.383146  -0.045541  -0.034283
| 20> 		H    0.399551   1.556144   0.069514
| 21> 		H    1.959717  -1.168921   0.107279
| 22> 		H    2.680555   0.502799  -0.022938
| 23> *
| 24>
| 25>                          ****END OF INPUT****

CARTESIAN COORDINATES (ANGSTROEM)
---------------------------------
  C     -0.588831   -0.421105    0.013116
  O     -0.596898   -1.641270   -0.005038
  C      0.630229    0.408185   -0.010566
  C      1.870358   -0.117632   -0.005826
  H     -1.383146   -0.045541   -0.034283
  H      0.399551    1.556144    0.069514
  H      1.959717   -1.168921    0.107279
  H      2.680555    0.502799   -0.022938

 Total Charge           Charge          ....    0
 Multiplicity           Mult            ....    1
 Number of Electrons    NEL             ....   30
 Basis Dimension        Dim             ....   76

ORBITAL ENERGIES
----------------

  NO   OCC          E(Eh)            E(eV)
   0   2.0000     -19.130002      -520.5538
   1   2.0000     -10.250183      -278.9217
   2   2.0000     -10.210409      -277.8393
   3   2.0000     -10.205558      -277.7073
   4   2.0000      -1.037627       -28.2353
   5   2.0000      -0.792719       -21.5710
   6   2.0000      -0.681543       -18.5457
   7   2.0000      -0.573458       -15.6046
   8   2.0000      -0.506835       -13.7917
   9   2.0000      -0.443666       -12.0728
  10   2.0000      -0.435038       -11.8380
  11   2.0000      -0.394288       -10.7291
  12   2.0000      -0.378575       -10.3015
  13   2.0000      -0.284393        -7.7387
  14   2.0000      -0.252232        -6.8636
  15   0.0000      -0.072308        -1.9676
  16   0.0000       0.059024         1.6061
  17   0.0000       0.069310         1.8860
  18   0.0000       0.102306         2.7839
  19   0.0000       0.135355         3.6832

MULLIKEN ATOMIC CHARGES
-----------------------
   0 C :    0.350455
   1 O :   -0.217557
   2 C :   -0.214473
   3 C :    0.159407
   4 H :   -0.122570
   5 H :    0.010204
   6 H :    0.025607
   7 H :    0.008927
Sum of atomic charges:   -0.0000000

LOEWDIN ATOMIC CHARGES
----------------------
   0 C :    0.005609
   1 O :   -0.006153
   2 C :   -0.069097
   3 C :    0.047121
   4 H :   -0.061761
   5 H :    0.039586
   6 H :    0.029707
   7 H :    0.014988

  Mayer bond orders larger than 0.100000
B(  0-C ,  1-O ) :   2.1649 B(  0-C ,  2-C ) :   1.0837 B(  0-C ,  4-H ) :   0.9372
B(  2-C ,  3-C ) :   1.9657 B(  2-C ,  5-H ) :   0.9377 B(  3-C ,  6-H ) :   0.9304
B(  3-C ,  7-H ) :   0.9396

-----------------------------------------------------------------------------
         ABSORPTION SPECTRUM VIA TRANSITION ELECTRIC DIPOLE MOMENTS
-----------------------------------------------------------------------------
State   Energy    Wavelength  fosc         T2        TX        TY        TZ
        (cm-1)      (nm)                 (au**2)    (au)      (au)      (au)
-----------------------------------------------------------------------------
   1   26317.1    380.0   0.000035601   0.00045   0.01067   0.01474   0.01069

FINAL SINGLE POINT ENERGY      -191.628422802295

DIPOLE MOMENT
-------------
                                X             Y             Z
Electronic contribution:     -1.92944      -1.65372      -0.06841
Nuclear contribution   :      2.27278       2.58075       0.11207
                        -----------------------------------------
Total Dipole Moment    :      0.34334       0.92703       0.04366
                        -----------------------------------------
Magnitude (a.u.)       :      0.98953
Magnitude (Debye)      :      2.51520

Rotational constants in cm-1:     0.782993     0.206469     0.163457
Rotational constants in MHz : 23473.547285  6189.793619  4900.307954

                             ****ORCA TERMINATED NORMALLY****
TOTAL RUN TIME: 0 days 0 hours 3 minutes 6 seconds 20 msec
