                         Program Version 5.0.3 -  RELEASE  -
|  1> ! B3LYP cc-pVDZ
|  2> !TightSCF
|  3> %scf
|  4>  ConvForced true
|  5>  convergence tight
|  6>  MaxIter 500
|  7> end
|  8>
|  9> %tddft
| 10>  nroots 1
| 11> end
| 12>
| 13> # 	24520
| 14> * xyz 0 1
| 15> 		C   -0.634729  -0.485682   0.020473
| 16> 		O   -0.632983  -1.648194  -0.029281
| 17> 		C    0.707135   0.427172   0.008198
| 18> 		C    1.909134  -0.068743  -0.033894
| 19> 		H   -1.700100   0.008195   0.206246
| 20> 		H    0.397371   1.334703  -0.165585
| 21> 		H    2.096279  -1.114322   0.475509
| 22> 		H    2.599022   0.680631  -0.007027
| 23> *
| 24>
| 25>                          ****END OF INPUT****

CARTESIAN COORDINATES (ANGSTROEM)
---------------------------------
  C     -0.634729   -0.485682    0.020473
  O     -0.632983   -1.648194   -0.029281
  C      0.707135    0.427172    0.008198
  C      1.909134   -0.068743   -0.033894
  H     -1.700100    0.008195    0.206246
  H      0.397371    1.334703   -0.165585
  H      2.096279   -1.114322    0.475509
  H      2.599022    0.680631   -0.007027

 Total Charge           Charge          ....    0
 Multiplicity           Mult            ....    1
 Number of Electrons    NEL             ....   30
 Basis Dimension        Dim             ....   76

ORBITAL ENERGIES
----------------

  NO   OCC          E(Eh)            E(eV)
   0   2.0000     -19.144327      -520.9436
   1   2.0000     -10.281316      -279.7688
   2   2.0000     -10.203269      -277.6451
   3   2.0000     -10.197898      -277.4989
   4   2.0000      -1.076389       -29.2900
   5   2.0000      -0.797582       -21.7033
   6   2.0000      -0.639437       -17.4000
   7   2.0000      -0.539750       -14.6874
   8   2.0000      -0.506537       -13.7836
   9   2.0000      -0.446171       -12.1409
  10   2.0000      -0.436490       -11.8775
  11   2.0000      -0.409515       -11.1435
  12   2.0000      -0.385227       -10.4826
  13   2.0000      -0.296020        -8.0551
  14   2.0000      -0.248050        -6.7498
  15   0.0000      -0.057688        -1.5698
  16   0.0000       0.046275         1.2592
  17   0.0000       0.071535         1.9466
  18   0.0000       0.087734         2.3874
  19   0.0000       0.113836         3.0976

MULLIKEN ATOMIC CHARGES
-----------------------
   0 C :    0.104334
   1 O :   -0.133566
   2 C :   -0.052052
   3 C :    0.074349
   4 H :   -0.017331
   5 H :   -0.055503
   6 H :    0.062415
   7 H :    0.017355
Sum of atomic charges:   -0.0000000

LOEWDIN ATOMIC CHARGES
----------------------
   0 C :   -0.052173
   1 O :    0.044439
   2 C :   -0.044009
   3 C :   -0.008832
   4 H :   -0.007683
   5 H :   -0.011127
   6 H :    0.060984
   7 H :    0.018402

  Mayer bond orders larger than 0.100000
B(  0-C ,  1-O ) :   2.2678 B(  0-C ,  2-C ) :   0.9542 B(  0-C ,  4-H ) :   0.8876
B(  2-C ,  3-C ) :   2.0029 B(  2-C ,  5-H ) :   0.9581 B(  3-C ,  6-H ) :   0.9282
B(  3-C ,  7-H ) :   0.9290

-----------------------------------------------------------------------------
         ABSORPTION SPECTRUM VIA TRANSITION ELECTRIC DIPOLE MOMENTS
-----------------------------------------------------------------------------
State   Energy    Wavelength  fosc         T2        TX        TY        TZ
        (cm-1)      (nm)                 (au**2)    (au)      (au)      (au)
-----------------------------------------------------------------------------
   1   29383.2    340.3   0.001505860   0.01687   0.12804   0.00791  -0.02035

FINAL SINGLE POINT ENERGY      -191.623448216623

DIPOLE MOMENT
-------------
                                X             Y             Z
Electronic contribution:     -1.75879      -1.83892      -0.36330
Nuclear contribution   :      2.02483       2.64177       0.47844
                        -----------------------------------------
Total Dipole Moment    :      0.26603       0.80285       0.11514
                        -----------------------------------------
Magnitude (a.u.)       :      0.85358
Magnitude (Debye)      :      2.16963

Rotational constants in cm-1:     0.818312     0.188842     0.154366
Rotational constants in MHz : 24532.370019  5661.329110  4627.774413

                             ****ORCA TERMINATED NORMALLY****
TOTAL RUN TIME: 0 days 0 hours 3 minutes 26 seconds 269 msec
