                         Program Version 5.0.3 -  RELEASE  -
|  1> ! HF-3c
|  2> !TightSCF
|  3> %scf
|  4>  ConvForced true
|  5>  convergence tight
|  6>  MaxIter 500
|  7> end
|  8>
|  9> %tddft
| 10>  nroots 1
| 11> end
| 12>
| 13> # 	32361
| 14> * xyz 0 1
| 15> 		C   -0.558363  -0.425660  -0.068880
| 16> 		O   -0.600383  -1.674936   0.040150
| 17> 		C    0.660279   0.457299   0.048763
| 18> 		C    1.824623  -0.106541   0.010140
| 19> 		H   -1.573352   0.045963  -0.207561
| 20> 		H    0.504097   1.412158   0.171104
| 21> 		H    1.860945  -1.156251  -0.287720
| 22> 		H    2.750391   0.401196  -0.188898
| 23> *
| 24>
| 25>                          ****END OF INPUT****

CARTESIAN COORDINATES (ANGSTROEM)
---------------------------------
  C     -0.558363   -0.425660   -0.068880
  O     -0.600383   -1.674936    0.040150
  C      0.660279    0.457299    0.048763
  C      1.824623   -0.106541    0.010140
  H     -1.573352    0.045963   -0.207561
  H      0.504097    1.412158    0.171104
  H      1.860945   -1.156251   -0.287720
  H      2.750391    0.401196   -0.188898

 Total Charge           Charge          ....    0
 Multiplicity           Mult            ....    1
 Number of Electrons    NEL             ....   30
 Basis Dimension        Dim             ....   24

ORBITAL ENERGIES
----------------

  NO   OCC          E(Eh)            E(eV)
   0   2.0000     -20.351100      -553.7816
   1   2.0000     -11.283878      -307.0499
   2   2.0000     -11.204918      -304.9013
   3   2.0000     -11.200016      -304.7679
   4   2.0000      -1.368602       -37.2416
   5   2.0000      -1.102640       -30.0044
   6   2.0000      -0.890016       -24.2186
   7   2.0000      -0.766470       -20.8567
   8   2.0000      -0.711570       -19.3628
   9   2.0000      -0.626650       -17.0520
  10   2.0000      -0.584860       -15.9148
  11   2.0000      -0.536760       -14.6060
  12   2.0000      -0.523348       -14.2410
  13   2.0000      -0.414858       -11.2888
  14   2.0000      -0.406408       -11.0589
  15   0.0000       0.128676         3.5015
  16   0.0000       0.289391         7.8747
  17   0.0000       0.514177        13.9915
  18   0.0000       0.644908        17.5488
  19   0.0000       0.686077        18.6691

MULLIKEN ATOMIC CHARGES
-----------------------
   0 C :    0.162492
   1 O :   -0.349868
   2 C :   -0.196562
   3 C :   -0.215192
   4 H :    0.138511
   5 H :    0.147604
   6 H :    0.161432
   7 H :    0.151582
Sum of atomic charges:   -0.0000000

LOEWDIN ATOMIC CHARGES
----------------------
   0 C :    0.150477
   1 O :   -0.268865
   2 C :   -0.136087
   3 C :   -0.113886
   4 H :    0.077994
   5 H :    0.085386
   6 H :    0.106612
   7 H :    0.098370

  Mayer bond orders larger than 0.100000
B(  0-C ,  1-O ) :   1.9117 B(  0-C ,  2-C ) :   1.0128 B(  0-C ,  4-H ) :   0.9322
B(  2-C ,  3-C ) :   1.9563 B(  2-C ,  5-H ) :   0.9603 B(  3-C ,  6-H ) :   0.9552
B(  3-C ,  7-H ) :   0.9619

-----------------------------------------------------------------------------
         ABSORPTION SPECTRUM VIA TRANSITION ELECTRIC DIPOLE MOMENTS
-----------------------------------------------------------------------------
State   Energy    Wavelength  fosc         T2        TX        TY        TZ
        (cm-1)      (nm)                 (au**2)    (au)      (au)      (au)
-----------------------------------------------------------------------------
   1   30688.0    325.9   0.000024194   0.00026  -0.01001   0.00153   0.01253

Dispersion correction           -0.025932463
FINAL SINGLE POINT ENERGY      -189.332513520592

DIPOLE MOMENT
-------------
                                X             Y             Z
Electronic contribution:     -1.82936      -1.54712       0.30689
Nuclear contribution   :      2.16479       2.44844      -0.48112
                        -----------------------------------------
Total Dipole Moment    :      0.33544       0.90131      -0.17423
                        -----------------------------------------
Magnitude (a.u.)       :      0.97736
Magnitude (Debye)      :      2.48426

Rotational constants in cm-1:     0.774480     0.204418     0.162682
Rotational constants in MHz : 23218.318588  6128.294195  4877.088042

                             ****ORCA TERMINATED NORMALLY****
TOTAL RUN TIME: 0 days 0 hours 0 minutes 12 seconds 342 msec
