                         Program Version 5.0.3 -  RELEASE  -
|  1> ! B3LYP cc-pVDZ
|  2> !TightSCF
|  3> %scf
|  4>  ConvForced true
|  5>  convergence tight
|  6>  MaxIter 500
|  7> end
|  8>
|  9> %tddft
| 10>  nroots 1
| 11> end
| 12>
| 13> # 	22832
| 14> * xyz 0 1
| 15> 		C   -0.572102  -0.466390  -0.000967
| 16> 		O   -0.627058  -1.649843   0.008666
| 17> 		C    0.631647   0.388623  -0.019764
| 18> 		C    1.871432  -0.064253  -0.017376
| 19> 		H   -1.515337   0.242041   0.035371
| 20> 		H    0.513385   1.450942   0.077037
| 21> 		H    2.064943  -1.087980  -0.043513
| 22> 		H    2.840480   0.533235   0.265396
| 23> *
| 24>
| 25>                          ****END OF INPUT****

CARTESIAN COORDINATES (ANGSTROEM)
---------------------------------
  C     -0.572102   -0.466390   -0.000967
  O     -0.627058   -1.649843    0.008666
  C      0.631647    0.388623   -0.019764
  C      1.871432   -0.064253   -0.017376
  H     -1.515337    0.242041    0.035371
  H      0.513385    1.450942    0.077037
  H      2.064943   -1.087980   -0.043513
  H      2.840480    0.533235    0.265396

 Total Charge           Charge          ....    0
 Multiplicity           Mult            ....    1
 Number of Electrons    NEL             ....   30
 Basis Dimension        Dim             ....   76

ORBITAL ENERGIES
----------------

  NO   OCC          E(Eh)            E(eV)
   0   2.0000     -19.145497      -520.9755
   1   2.0000     -10.281677      -279.7787
   2   2.0000     -10.214514      -277.9511
   3   2.0000     -10.201385      -277.5938
   4   2.0000      -1.064746       -28.9732
   5   2.0000      -0.800504       -21.7828
   6   2.0000      -0.656886       -17.8748
   7   2.0000      -0.544646       -14.8206
   8   2.0000      -0.502556       -13.6753
   9   2.0000      -0.456133       -12.4120
  10   2.0000      -0.424029       -11.5384
  11   2.0000      -0.409480       -11.1425
  12   2.0000      -0.377887       -10.2828
  13   2.0000      -0.293756        -7.9935
  14   2.0000      -0.258480        -7.0336
  15   0.0000      -0.069596        -1.8938
  16   0.0000       0.055733         1.5166
  17   0.0000       0.069161         1.8820
  18   0.0000       0.089462         2.4344
  19   0.0000       0.126916         3.4536

MULLIKEN ATOMIC CHARGES
-----------------------
   0 C :    0.167373
   1 O :   -0.157602
   2 C :   -0.093557
   3 C :    0.055315
   4 H :   -0.026796
   5 H :   -0.013532
   6 H :    0.017196
   7 H :    0.051604
Sum of atomic charges:   -0.0000000

LOEWDIN ATOMIC CHARGES
----------------------
   0 C :   -0.055945
   1 O :    0.028290
   2 C :   -0.086144
   3 C :    0.027391
   4 H :   -0.008680
   5 H :    0.028199
   6 H :    0.016811
   7 H :    0.050079

  Mayer bond orders larger than 0.100000
B(  0-C ,  1-O ) :   2.2398 B(  0-C ,  2-C ) :   1.0417 B(  0-C ,  4-H ) :   0.8911
B(  2-C ,  3-C ) :   1.9641 B(  2-C ,  5-H ) :   0.9419 B(  3-C ,  6-H ) :   0.9390
B(  3-C ,  7-H ) :   0.9469

-----------------------------------------------------------------------------
         ABSORPTION SPECTRUM VIA TRANSITION ELECTRIC DIPOLE MOMENTS
-----------------------------------------------------------------------------
State   Energy    Wavelength  fosc         T2        TX        TY        TZ
        (cm-1)      (nm)                 (au**2)    (au)      (au)      (au)
-----------------------------------------------------------------------------
   1   28916.1    345.8   0.000178145   0.00203   0.02595   0.00796   0.03594

FINAL SINGLE POINT ENERGY      -191.664030288151

DIPOLE MOMENT
-------------
                                X             Y             Z
Electronic contribution:     -2.00483      -2.04145      -0.24913
Nuclear contribution   :      2.50406       2.85479       0.31255
                        -----------------------------------------
Total Dipole Moment    :      0.49923       0.81335       0.06342
                        -----------------------------------------
Magnitude (a.u.)       :      0.95644
Magnitude (Debye)      :      2.43109

Rotational constants in cm-1:     0.820475     0.197770     0.159629
Rotational constants in MHz : 24597.213677  5929.007826  4785.548441

                             ****ORCA TERMINATED NORMALLY****
TOTAL RUN TIME: 0 days 0 hours 3 minutes 14 seconds 127 msec
