                         Program Version 5.0.3 -  RELEASE  -
|  1> ! HF-3c
|  2> !TightSCF
|  3> %scf
|  4>  ConvForced true
|  5>  convergence tight
|  6>  MaxIter 500
|  7> end
|  8>
|  9> %tddft
| 10>  nroots 1
| 11> end
| 12>
| 13> # 	12349
| 14> * xyz 0 1
| 15> 		C   -1.197097  -0.322536  -0.108213
| 16> 		O   -1.325849  -1.356582  -0.601379
| 17> 		C    0.043350   0.486387  -0.115587
| 18> 		C    1.239402   0.004804   0.115961
| 19> 		H   -1.994525   0.073373   0.557925
| 20> 		H   -0.144661   1.577183  -0.212427
| 21> 		H    1.469596  -1.095493   0.288748
| 22> 		H    1.923855   0.657288   0.082019
| 23> *
| 24>
| 25>                          ****END OF INPUT****

CARTESIAN COORDINATES (ANGSTROEM)
---------------------------------
  C     -1.197097   -0.322536   -0.108213
  O     -1.325849   -1.356582   -0.601379
  C      0.043350    0.486387   -0.115587
  C      1.239402    0.004804    0.115961
  H     -1.994525    0.073373    0.557925
  H     -0.144661    1.577183   -0.212427
  H      1.469596   -1.095493    0.288748
  H      1.923855    0.657288    0.082019

 Total Charge           Charge          ....    0
 Multiplicity           Mult            ....    1
 Number of Electrons    NEL             ....   30
 Basis Dimension        Dim             ....   24

ORBITAL ENERGIES
----------------

  NO   OCC          E(Eh)            E(eV)
   0   2.0000     -20.390453      -554.8524
   1   2.0000     -11.313309      -307.8508
   2   2.0000     -11.193213      -304.5828
   3   2.0000     -11.191062      -304.5243
   4   2.0000      -1.451654       -39.5015
   5   2.0000      -1.093367       -29.7520
   6   2.0000      -0.902903       -24.5692
   7   2.0000      -0.758161       -20.6306
   8   2.0000      -0.709275       -19.3004
   9   2.0000      -0.641285       -17.4503
  10   2.0000      -0.624383       -16.9903
  11   2.0000      -0.563927       -15.3452
  12   2.0000      -0.535087       -14.5604
  13   2.0000      -0.416649       -11.3376
  14   2.0000      -0.405454       -11.0330
  15   0.0000       0.160536         4.3684
  16   0.0000       0.282630         7.6908
  17   0.0000       0.547364        14.8945
  18   0.0000       0.622769        16.9464
  19   0.0000       0.670514        18.2456

MULLIKEN ATOMIC CHARGES
-----------------------
   0 C :    0.184951
   1 O :   -0.354984
   2 C :   -0.153552
   3 C :   -0.259404
   4 H :    0.131590
   5 H :    0.145849
   6 H :    0.163296
   7 H :    0.142254
Sum of atomic charges:   -0.0000000

LOEWDIN ATOMIC CHARGES
----------------------
   0 C :    0.149167
   1 O :   -0.238983
   2 C :   -0.112634
   3 C :   -0.155806
   4 H :    0.067126
   5 H :    0.095515
   6 H :    0.113778
   7 H :    0.081838

  Mayer bond orders larger than 0.100000
B(  0-C ,  1-O ) :   1.9365 B(  0-C ,  2-C ) :   0.9940 B(  0-C ,  4-H ) :   0.9132
B(  2-C ,  3-C ) :   1.9795 B(  2-C ,  5-H ) :   0.9536 B(  3-C ,  6-H ) :   0.9576
B(  3-C ,  7-H ) :   0.9673

-----------------------------------------------------------------------------
         ABSORPTION SPECTRUM VIA TRANSITION ELECTRIC DIPOLE MOMENTS
-----------------------------------------------------------------------------
State   Energy    Wavelength  fosc         T2        TX        TY        TZ
        (cm-1)      (nm)                 (au**2)    (au)      (au)      (au)
-----------------------------------------------------------------------------
   1   36504.6    273.9   0.000023598   0.00021   0.01100   0.00530   0.00798

Dispersion correction           -0.025673470
FINAL SINGLE POINT ENERGY      -189.293825017105

DIPOLE MOMENT
-------------
                                X             Y             Z
Electronic contribution:     -2.17613      -1.58360      -0.90967
Nuclear contribution   :      2.42848       2.35759       1.34817
                        -----------------------------------------
Total Dipole Moment    :      0.25235       0.77399       0.43851
                        -----------------------------------------
Magnitude (a.u.)       :      0.92468
Magnitude (Debye)      :      2.35034

Rotational constants in cm-1:     0.869869     0.195457     0.165231
Rotational constants in MHz : 26078.031420  5859.655311  4953.515175

                             ****ORCA TERMINATED NORMALLY****
TOTAL RUN TIME: 0 days 0 hours 0 minutes 10 seconds 461 msec
