                         Program Version 5.0.3 -  RELEASE  -
|  1> ! HF-3c
|  2> !TightSCF
|  3> %scf
|  4>  ConvForced true
|  5>  convergence tight
|  6>  MaxIter 500
|  7> end
|  8>
|  9> %tddft
| 10>  nroots 1
| 11> end
| 12>
| 13> # 	17563
| 14> * xyz 0 1
| 15> 		C   -1.127121  -0.393245  -0.050851
| 16> 		O   -1.377839  -1.511622   0.343275
| 17> 		C   -0.030352   0.466207   0.142353
| 18> 		C    1.197774   0.017441  -0.041220
| 19> 		H   -1.978053   0.312651  -0.435358
| 20> 		H   -0.116600   1.539661   0.447379
| 21> 		H    1.372777  -0.998200  -0.441402
| 22> 		H    2.056318   0.574690   0.076408
| 23> *
| 24>
| 25>                          ****END OF INPUT****

CARTESIAN COORDINATES (ANGSTROEM)
---------------------------------
  C     -1.127121   -0.393245   -0.050851
  O     -1.377839   -1.511622    0.343275
  C     -0.030352    0.466207    0.142353
  C      1.197774    0.017441   -0.041220
  H     -1.978053    0.312651   -0.435358
  H     -0.116600    1.539661    0.447379
  H      1.372777   -0.998200   -0.441402
  H      2.056318    0.574690    0.076408

 Total Charge           Charge          ....    0
 Multiplicity           Mult            ....    1
 Number of Electrons    NEL             ....   30
 Basis Dimension        Dim             ....   24

ORBITAL ENERGIES
----------------

  NO   OCC          E(Eh)            E(eV)
   0   2.0000     -20.372510      -554.3642
   1   2.0000     -11.298481      -307.4473
   2   2.0000     -11.196703      -304.6778
   3   2.0000     -11.193340      -304.5863
   4   2.0000      -1.400714       -38.1154
   5   2.0000      -1.102453       -29.9993
   6   2.0000      -0.908658       -24.7258
   7   2.0000      -0.742440       -20.2028
   8   2.0000      -0.706790       -19.2327
   9   2.0000      -0.622571       -16.9410
  10   2.0000      -0.610892       -16.6232
  11   2.0000      -0.544073       -14.8050
  12   2.0000      -0.521743       -14.1974
  13   2.0000      -0.413830       -11.2609
  14   2.0000      -0.394834       -10.7440
  15   0.0000       0.135518         3.6876
  16   0.0000       0.282188         7.6787
  17   0.0000       0.555959        15.1284
  18   0.0000       0.620404        16.8820
  19   0.0000       0.631050        17.1717

MULLIKEN ATOMIC CHARGES
-----------------------
   0 C :    0.175661
   1 O :   -0.345968
   2 C :   -0.184987
   3 C :   -0.216508
   4 H :    0.121353
   5 H :    0.159719
   6 H :    0.149635
   7 H :    0.141096
Sum of atomic charges:    0.0000000

LOEWDIN ATOMIC CHARGES
----------------------
   0 C :    0.153573
   1 O :   -0.252571
   2 C :   -0.141385
   3 C :   -0.116718
   4 H :    0.064458
   5 H :    0.108349
   6 H :    0.098385
   7 H :    0.085910

  Mayer bond orders larger than 0.100000
B(  0-C ,  1-O ) :   1.9094 B(  0-C ,  2-C ) :   1.0480 B(  0-C ,  4-H ) :   0.9093
B(  2-C ,  3-C ) :   1.9384 B(  2-C ,  5-H ) :   0.9470 B(  3-C ,  6-H ) :   0.9627
B(  3-C ,  7-H ) :   0.9677

-----------------------------------------------------------------------------
         ABSORPTION SPECTRUM VIA TRANSITION ELECTRIC DIPOLE MOMENTS
-----------------------------------------------------------------------------
State   Energy    Wavelength  fosc         T2        TX        TY        TZ
        (cm-1)      (nm)                 (au**2)    (au)      (au)      (au)
-----------------------------------------------------------------------------
   1   32065.6    311.9   0.001235541   0.01269  -0.11221   0.00840  -0.00476

Dispersion correction           -0.025840044
FINAL SINGLE POINT ENERGY      -189.319883083554

DIPOLE MOMENT
-------------
                                X             Y             Z
Electronic contribution:     -2.10151      -1.82240       0.40874
Nuclear contribution   :      2.59000       2.77355      -0.71181
                        -----------------------------------------
Total Dipole Moment    :      0.48849       0.95116      -0.30307
                        -----------------------------------------
Magnitude (a.u.)       :      1.11139
Magnitude (Debye)      :      2.82492

Rotational constants in cm-1:     0.865231     0.194768     0.164104
Rotational constants in MHz : 25938.977893  5838.993610  4919.705935

                             ****ORCA TERMINATED NORMALLY****
TOTAL RUN TIME: 0 days 0 hours 0 minutes 11 seconds 204 msec
