                         Program Version 5.0.3 -  RELEASE  -
|  1> ! HF-3c
|  2> !TightSCF
|  3> %scf
|  4>  ConvForced true
|  5>  convergence tight
|  6>  MaxIter 500
|  7> end
|  8>
|  9> %tddft
| 10>  nroots 1
| 11> end
| 12>
| 13> # 	20783
| 14> * xyz 0 1
| 15> 		C   -0.533874  -0.428110  -0.049576
| 16> 		O   -0.547421  -1.646122   0.023706
| 17> 		C    0.597189   0.526995   0.058084
| 18> 		C    1.756183  -0.182654  -0.020770
| 19> 		H   -1.583884  -0.153210  -0.174326
| 20> 		H    0.782042   1.601978   0.095652
| 21> 		H    1.879111  -1.327089   0.010167
| 22> 		H    2.949206   0.218325  -0.163292
| 23> *
| 24>
| 25>                          ****END OF INPUT****

CARTESIAN COORDINATES (ANGSTROEM)
---------------------------------
  C     -0.533874   -0.428110   -0.049576
  O     -0.547421   -1.646122    0.023706
  C      0.597189    0.526995    0.058084
  C      1.756183   -0.182654   -0.020770
  H     -1.583884   -0.153210   -0.174326
  H      0.782042    1.601978    0.095652
  H      1.879111   -1.327089    0.010167
  H      2.949206    0.218325   -0.163292

 Total Charge           Charge          ....    0
 Multiplicity           Mult            ....    1
 Number of Electrons    NEL             ....   30
 Basis Dimension        Dim             ....   24

ORBITAL ENERGIES
----------------

  NO   OCC          E(Eh)            E(eV)
   0   2.0000     -20.337452      -553.4102
   1   2.0000     -11.286519      -307.1218
   2   2.0000     -11.186057      -304.3881
   3   2.0000     -11.184188      -304.3372
   4   2.0000      -1.386655       -37.7328
   5   2.0000      -1.068231       -29.0680
   6   2.0000      -0.853947       -23.2371
   7   2.0000      -0.741375       -20.1738
   8   2.0000      -0.703307       -19.1380
   9   2.0000      -0.593595       -16.1526
  10   2.0000      -0.560489       -15.2517
  11   2.0000      -0.530466       -14.4347
  12   2.0000      -0.494497       -13.4559
  13   2.0000      -0.399918       -10.8823
  14   2.0000      -0.378906       -10.3106
  15   0.0000       0.140528         3.8240
  16   0.0000       0.298162         8.1134
  17   0.0000       0.464711        12.6454
  18   0.0000       0.508203        13.8289
  19   0.0000       0.589315        16.0361

MULLIKEN ATOMIC CHARGES
-----------------------
   0 C :    0.155742
   1 O :   -0.367972
   2 C :   -0.220360
   3 C :   -0.158261
   4 H :    0.139248
   5 H :    0.165030
   6 H :    0.151620
   7 H :    0.134952
Sum of atomic charges:   -0.0000000

LOEWDIN ATOMIC CHARGES
----------------------
   0 C :    0.145931
   1 O :   -0.283195
   2 C :   -0.174556
   3 C :   -0.071464
   4 H :    0.073859
   5 H :    0.111493
   6 H :    0.101237
   7 H :    0.096695

  Mayer bond orders larger than 0.100000
B(  0-C ,  1-O ) :   1.8898 B(  0-C ,  2-C ) :   1.0342 B(  0-C ,  4-H ) :   0.9357
B(  2-C ,  3-C ) :   1.9139 B(  2-C ,  5-H ) :   0.9544 B(  3-C ,  6-H ) :   0.9590
B(  3-C ,  7-H ) :   0.9622

-----------------------------------------------------------------------------
         ABSORPTION SPECTRUM VIA TRANSITION ELECTRIC DIPOLE MOMENTS
-----------------------------------------------------------------------------
State   Energy    Wavelength  fosc         T2        TX        TY        TZ
        (cm-1)      (nm)                 (au**2)    (au)      (au)      (au)
-----------------------------------------------------------------------------
   1   32223.8    310.3   0.000215656   0.00220  -0.03895  -0.00203   0.02611

Dispersion correction           -0.025448977
FINAL SINGLE POINT ENERGY      -189.287385056061

DIPOLE MOMENT
-------------
                                X             Y             Z
Electronic contribution:     -2.00763      -1.24533       0.12768
Nuclear contribution   :      2.61667       2.10902      -0.21701
                        -----------------------------------------
Total Dipole Moment    :      0.60904       0.86369      -0.08932
                        -----------------------------------------
Magnitude (a.u.)       :      1.06059
Magnitude (Debye)      :      2.69582

Rotational constants in cm-1:     0.712813     0.218529     0.167752
Rotational constants in MHz : 21369.581680  6551.323753  5029.089918

                             ****ORCA TERMINATED NORMALLY****
TOTAL RUN TIME: 0 days 0 hours 0 minutes 15 seconds 778 msec
