                         Program Version 5.0.3 -  RELEASE  -
|  1> ! HF-3c
|  2> !TightSCF
|  3> %scf
|  4>  ConvForced true
|  5>  convergence tight
|  6>  MaxIter 500
|  7> end
|  8>
|  9> %tddft
| 10>  nroots 1
| 11> end
| 12>
| 13> # 	3805
| 14> * xyz 0 1
| 15> 		C   -1.197873  -0.320736   0.055697
| 16> 		O   -1.364655  -1.328900  -0.498306
| 17> 		C   -0.010005   0.493670  -0.107418
| 18> 		C    1.245337  -0.006707   0.065422
| 19> 		H   -1.992229   0.090279   0.655191
| 20> 		H   -0.157557   1.495085  -0.498797
| 21> 		H    1.258311  -1.042712   0.361071
| 22> 		H    2.207652   0.630742  -0.011508
| 23> *
| 24>
| 25>                          ****END OF INPUT****

CARTESIAN COORDINATES (ANGSTROEM)
---------------------------------
  C     -1.197873   -0.320736    0.055697
  O     -1.364655   -1.328900   -0.498306
  C     -0.010005    0.493670   -0.107418
  C      1.245337   -0.006707    0.065422
  H     -1.992229    0.090279    0.655191
  H     -0.157557    1.495085   -0.498797
  H      1.258311   -1.042712    0.361071
  H      2.207652    0.630742   -0.011508

 Total Charge           Charge          ....    0
 Multiplicity           Mult            ....    1
 Number of Electrons    NEL             ....   30
 Basis Dimension        Dim             ....   24

ORBITAL ENERGIES
----------------

  NO   OCC          E(Eh)            E(eV)
   0   2.0000     -20.384305      -554.6851
   1   2.0000     -11.311305      -307.7963
   2   2.0000     -11.182484      -304.2909
   3   2.0000     -11.180483      -304.2364
   4   2.0000      -1.444812       -39.3153
   5   2.0000      -1.071061       -29.1450
   6   2.0000      -0.889952       -24.2168
   7   2.0000      -0.759928       -20.6787
   8   2.0000      -0.707390       -19.2491
   9   2.0000      -0.621452       -16.9106
  10   2.0000      -0.611051       -16.6276
  11   2.0000      -0.553460       -15.0604
  12   2.0000      -0.524172       -14.2634
  13   2.0000      -0.415602       -11.3091
  14   2.0000      -0.388879       -10.5819
  15   0.0000       0.162540         4.4229
  16   0.0000       0.259411         7.0589
  17   0.0000       0.558125        15.1874
  18   0.0000       0.626141        17.0382
  19   0.0000       0.669975        18.2310

MULLIKEN ATOMIC CHARGES
-----------------------
   0 C :    0.168706
   1 O :   -0.350663
   2 C :   -0.175955
   3 C :   -0.217798
   4 H :    0.136230
   5 H :    0.144553
   6 H :    0.144364
   7 H :    0.150563
Sum of atomic charges:    0.0000000

LOEWDIN ATOMIC CHARGES
----------------------
   0 C :    0.143861
   1 O :   -0.240512
   2 C :   -0.135930
   3 C :   -0.127169
   4 H :    0.068444
   5 H :    0.093521
   6 H :    0.092873
   7 H :    0.104911

  Mayer bond orders larger than 0.100000
B(  0-C ,  1-O ) :   1.9267 B(  0-C ,  2-C ) :   1.0104 B(  0-C ,  4-H ) :   0.9182
B(  2-C ,  3-C ) :   1.9667 B(  2-C ,  5-H ) :   0.9539 B(  3-C ,  6-H ) :   0.9647
B(  3-C ,  7-H ) :   0.9626

-----------------------------------------------------------------------------
         ABSORPTION SPECTRUM VIA TRANSITION ELECTRIC DIPOLE MOMENTS
-----------------------------------------------------------------------------
State   Energy    Wavelength  fosc         T2        TX        TY        TZ
        (cm-1)      (nm)                 (au**2)    (au)      (au)      (au)
-----------------------------------------------------------------------------
   1   36342.8    275.2   0.000020492   0.00019  -0.00105   0.00113  -0.01354

Dispersion correction           -0.025660400
FINAL SINGLE POINT ENERGY      -189.308580861846

DIPOLE MOMENT
-------------
                                X             Y             Z
Electronic contribution:     -2.17504      -1.50901      -0.55797
Nuclear contribution   :      2.56242       2.29629       0.95772
                        -----------------------------------------
Total Dipole Moment    :      0.38737       0.78728       0.39975
                        -----------------------------------------
Magnitude (a.u.)       :      0.96420
Magnitude (Debye)      :      2.45079

Rotational constants in cm-1:     0.858685     0.195191     0.167147
Rotational constants in MHz : 25742.734443  5851.667981  5010.934974

                             ****ORCA TERMINATED NORMALLY****
TOTAL RUN TIME: 0 days 0 hours 0 minutes 11 seconds 619 msec
