                         Program Version 5.0.3 -  RELEASE  -
|  1> ! B3LYP cc-pVDZ
|  2> !TightSCF
|  3> %scf
|  4>  ConvForced true
|  5>  convergence tight
|  6>  MaxIter 500
|  7> end
|  8>
|  9> %tddft
| 10>  nroots 1
| 11> end
| 12>
| 13> # 	5387
| 14> * xyz 0 1
| 15> 		C   -1.198958  -0.236194   0.006138
| 16> 		O   -1.485020  -1.219982   0.631936
| 17> 		C   -0.062015   0.579533   0.287084
| 18> 		C    1.167229  -0.023320  -0.109902
| 19> 		H   -1.619153  -0.135416  -1.026281
| 20> 		H   -0.063584   1.483479   0.634709
| 21> 		H    1.308430  -1.028047  -0.417166
| 22> 		H    2.018157   0.600987   0.011335
| 23> *
| 24>
| 25>                          ****END OF INPUT****

CARTESIAN COORDINATES (ANGSTROEM)
---------------------------------
  C     -1.198958   -0.236194    0.006138
  O     -1.485020   -1.219982    0.631936
  C     -0.062015    0.579533    0.287084
  C      1.167229   -0.023320   -0.109902
  H     -1.619153   -0.135416   -1.026281
  H     -0.063584    1.483479    0.634709
  H      1.308430   -1.028047   -0.417166
  H      2.018157    0.600987    0.011335

 Total Charge           Charge          ....    0
 Multiplicity           Mult            ....    1
 Number of Electrons    NEL             ....   30
 Basis Dimension        Dim             ....   76

ORBITAL ENERGIES
----------------

  NO   OCC          E(Eh)            E(eV)
   0   2.0000     -19.137341      -520.7535
   1   2.0000     -10.273582      -279.5584
   2   2.0000     -10.211681      -277.8740
   3   2.0000     -10.204518      -277.6791
   4   2.0000      -1.053422       -28.6651
   5   2.0000      -0.795919       -21.6580
   6   2.0000      -0.656217       -17.8566
   7   2.0000      -0.574376       -15.6296
   8   2.0000      -0.506389       -13.7795
   9   2.0000      -0.452601       -12.3159
  10   2.0000      -0.441440       -12.0122
  11   2.0000      -0.411138       -11.1876
  12   2.0000      -0.369325       -10.0499
  13   2.0000      -0.273345        -7.4381
  14   2.0000      -0.251986        -6.8569
  15   0.0000      -0.035551        -0.9674
  16   0.0000      -0.025946        -0.7060
  17   0.0000       0.086612         2.3568
  18   0.0000       0.104907         2.8547
  19   0.0000       0.107240         2.9182

MULLIKEN ATOMIC CHARGES
-----------------------
   0 C :    0.162166
   1 O :   -0.181449
   2 C :    0.007983
   3 C :    0.018689
   4 H :   -0.011441
   5 H :   -0.048270
   6 H :    0.028828
   7 H :    0.023495
Sum of atomic charges:    0.0000000

LOEWDIN ATOMIC CHARGES
----------------------
   0 C :   -0.045852
   1 O :    0.013360
   2 C :   -0.013746
   3 C :    0.012049
   4 H :   -0.002491
   5 H :   -0.006340
   6 H :    0.021317
   7 H :    0.021704

  Mayer bond orders larger than 0.100000
B(  0-C ,  1-O ) :   2.2247 B(  0-C ,  2-C ) :   1.0047 B(  0-C ,  4-H ) :   0.9148
B(  2-C ,  3-C ) :   2.0012 B(  2-C ,  5-H ) :   0.9476 B(  3-C ,  6-H ) :   0.9597
B(  3-C ,  7-H ) :   0.9545

-----------------------------------------------------------------------------
         ABSORPTION SPECTRUM VIA TRANSITION ELECTRIC DIPOLE MOMENTS
-----------------------------------------------------------------------------
State   Energy    Wavelength  fosc         T2        TX        TY        TZ
        (cm-1)      (nm)                 (au**2)    (au)      (au)      (au)
-----------------------------------------------------------------------------
   1   33325.8    300.1   0.000493027   0.00487   0.04923   0.03312   0.03674

FINAL SINGLE POINT ENERGY      -191.613673815315

DIPOLE MOMENT
-------------
                                X             Y             Z
Electronic contribution:     -2.59614      -1.09302       1.11672
Nuclear contribution   :      3.08116       1.83698      -1.51212
                        -----------------------------------------
Total Dipole Moment    :      0.48502       0.74396      -0.39541
                        -----------------------------------------
Magnitude (a.u.)       :      0.97215
Magnitude (Debye)      :      2.47100

Rotational constants in cm-1:     0.819581     0.193499     0.171722
Rotational constants in MHz : 24570.425020  5800.939289  5148.085479

                             ****ORCA TERMINATED NORMALLY****
TOTAL RUN TIME: 0 days 0 hours 3 minutes 27 seconds 881 msec
