                         Program Version 5.0.3 -  RELEASE  -
|  1> ! B3LYP cc-pVDZ
|  2> !TightSCF
|  3> %scf
|  4>  ConvForced true
|  5>  convergence tight
|  6>  MaxIter 500
|  7> end
|  8>
|  9> %tddft
| 10>  nroots 1
| 11> end
| 12>
| 13> # 	15842
| 14> * xyz 0 1
| 15> 		C   -1.196041  -0.254337  -0.034794
| 16> 		O   -1.288421  -1.402227   0.316746
| 17> 		C   -0.041035   0.589603   0.075188
| 18> 		C    1.184824   0.002834  -0.105073
| 19> 		H   -2.083986   0.039451  -0.494164
| 20> 		H    0.058567   1.627449   0.231566
| 21> 		H    1.342954  -1.085068   0.031641
| 22> 		H    2.017076   0.514638   0.020929
| 23> *
| 24>
| 25>                          ****END OF INPUT****

CARTESIAN COORDINATES (ANGSTROEM)
---------------------------------
  C     -1.196041   -0.254337   -0.034794
  O     -1.288421   -1.402227    0.316746
  C     -0.041035    0.589603    0.075188
  C      1.184824    0.002834   -0.105073
  H     -2.083986    0.039451   -0.494164
  H      0.058567    1.627449    0.231566
  H      1.342954   -1.085068    0.031641
  H      2.017076    0.514638    0.020929

 Total Charge           Charge          ....    0
 Multiplicity           Mult            ....    1
 Number of Electrons    NEL             ....   30
 Basis Dimension        Dim             ....   76

ORBITAL ENERGIES
----------------

  NO   OCC          E(Eh)            E(eV)
   0   2.0000     -19.130142      -520.5576
   1   2.0000     -10.264816      -279.3198
   2   2.0000     -10.206723      -277.7390
   3   2.0000     -10.204820      -277.6873
   4   2.0000      -1.048013       -28.5179
   5   2.0000      -0.800042       -21.7703
   6   2.0000      -0.664404       -18.0794
   7   2.0000      -0.561129       -15.2691
   8   2.0000      -0.525182       -14.2909
   9   2.0000      -0.444983       -12.1086
  10   2.0000      -0.433238       -11.7890
  11   2.0000      -0.394349       -10.7308
  12   2.0000      -0.378661       -10.3039
  13   2.0000      -0.283793        -7.7224
  14   2.0000      -0.249738        -6.7957
  15   0.0000      -0.066811        -1.8180
  16   0.0000       0.031470         0.8563
  17   0.0000       0.083629         2.2757
  18   0.0000       0.103747         2.8231
  19   0.0000       0.120913         3.2902

MULLIKEN ATOMIC CHARGES
-----------------------
   0 C :    0.216736
   1 O :   -0.195024
   2 C :   -0.077325
   3 C :    0.077088
   4 H :   -0.039288
   5 H :   -0.015114
   6 H :    0.042299
   7 H :   -0.009371
Sum of atomic charges:   -0.0000000

LOEWDIN ATOMIC CHARGES
----------------------
   0 C :   -0.038189
   1 O :    0.001696
   2 C :   -0.054527
   3 C :    0.041579
   4 H :   -0.012622
   5 H :    0.027378
   6 H :    0.038035
   7 H :   -0.003351

  Mayer bond orders larger than 0.100000
B(  0-C ,  1-O ) :   2.1895 B(  0-C ,  2-C ) :   1.0184 B(  0-C ,  4-H ) :   0.9507
B(  2-C ,  3-C ) :   1.9702 B(  2-C ,  5-H ) :   0.9512 B(  3-C ,  6-H ) :   0.9525
B(  3-C ,  7-H ) :   0.9484

-----------------------------------------------------------------------------
         ABSORPTION SPECTRUM VIA TRANSITION ELECTRIC DIPOLE MOMENTS
-----------------------------------------------------------------------------
State   Energy    Wavelength  fosc         T2        TX        TY        TZ
        (cm-1)      (nm)                 (au**2)    (au)      (au)      (au)
-----------------------------------------------------------------------------
   1   27457.1    364.2   0.000263990   0.00317  -0.05600   0.00228   0.00491

FINAL SINGLE POINT ENERGY      -191.648429779103

DIPOLE MOMENT
-------------
                                X             Y             Z
Electronic contribution:     -2.12048      -1.28504       0.30099
Nuclear contribution   :      2.57004       2.16836      -0.46647
                        -----------------------------------------
Total Dipole Moment    :      0.44956       0.88332      -0.16548
                        -----------------------------------------
Magnitude (a.u.)       :      1.00486
Magnitude (Debye)      :      2.55415

Rotational constants in cm-1:     0.791716     0.208892     0.168890
Rotational constants in MHz : 23735.035584  6262.419380  5063.188860

                             ****ORCA TERMINATED NORMALLY****
TOTAL RUN TIME: 0 days 0 hours 3 minutes 6 seconds 791 msec
