                         Program Version 5.0.3 -  RELEASE  -
|  1> ! HF-3c
|  2> !TightSCF
|  3> %scf
|  4>  ConvForced true
|  5>  convergence tight
|  6>  MaxIter 500
|  7> end
|  8>
|  9> %tddft
| 10>  nroots 1
| 11> end
| 12>
| 13> # 	29620
| 14> * xyz 0 1
| 15> 		C   -0.546230  -0.433106   0.003771
| 16> 		O   -0.620352  -1.662248   0.002997
| 17> 		C    0.698390   0.413872  -0.012017
| 18> 		C    1.817615  -0.106524  -0.003980
| 19> 		H   -1.592114   0.128118   0.019361
| 20> 		H    0.445061   1.432741   0.006199
| 21> 		H    1.891057  -1.060725  -0.066548
| 22> 		H    2.614700   0.624725   0.147998
| 23> *
| 24>
| 25>                          ****END OF INPUT****

CARTESIAN COORDINATES (ANGSTROEM)
---------------------------------
  C     -0.546230   -0.433106    0.003771
  O     -0.620352   -1.662248    0.002997
  C      0.698390    0.413872   -0.012017
  C      1.817615   -0.106524   -0.003980
  H     -1.592114    0.128118    0.019361
  H      0.445061    1.432741    0.006199
  H      1.891057   -1.060725   -0.066548
  H      2.614700    0.624725    0.147998

 Total Charge           Charge          ....    0
 Multiplicity           Mult            ....    1
 Number of Electrons    NEL             ....   30
 Basis Dimension        Dim             ....   24

ORBITAL ENERGIES
----------------

  NO   OCC          E(Eh)            E(eV)
   0   2.0000     -20.358567      -553.9848
   1   2.0000     -11.284198      -307.0586
   2   2.0000     -11.207941      -304.9836
   3   2.0000     -11.206853      -304.9540
   4   2.0000      -1.384361       -37.6704
   5   2.0000      -1.129919       -30.7467
   6   2.0000      -0.894493       -24.3404
   7   2.0000      -0.761576       -20.7235
   8   2.0000      -0.711449       -19.3595
   9   2.0000      -0.639412       -17.3993
  10   2.0000      -0.596562       -16.2333
  11   2.0000      -0.546026       -14.8581
  12   2.0000      -0.535560       -14.5733
  13   2.0000      -0.428578       -11.6622
  14   2.0000      -0.404565       -11.0088
  15   0.0000       0.140366         3.8196
  16   0.0000       0.319081         8.6826
  17   0.0000       0.510731        13.8977
  18   0.0000       0.628100        17.0915
  19   0.0000       0.643758        17.5175

MULLIKEN ATOMIC CHARGES
-----------------------
   0 C :    0.175897
   1 O :   -0.354008
   2 C :   -0.169771
   3 C :   -0.263577
   4 H :    0.130069
   5 H :    0.148866
   6 H :    0.166687
   7 H :    0.165837
Sum of atomic charges:   -0.0000000

LOEWDIN ATOMIC CHARGES
----------------------
   0 C :    0.149919
   1 O :   -0.264421
   2 C :   -0.115248
   3 C :   -0.149231
   4 H :    0.074526
   5 H :    0.091542
   6 H :    0.099897
   7 H :    0.113017

  Mayer bond orders larger than 0.100000
B(  0-C ,  1-O ) :   1.9219 B(  0-C ,  2-C ) :   0.9978 B(  0-C ,  4-H ) :   0.9239
B(  2-C ,  3-C ) :   1.9786 B(  2-C ,  5-H ) :   0.9561 B(  3-C ,  6-H ) :   0.9556
B(  3-C ,  7-H ) :   0.9523

-----------------------------------------------------------------------------
         ABSORPTION SPECTRUM VIA TRANSITION ELECTRIC DIPOLE MOMENTS
-----------------------------------------------------------------------------
State   Energy    Wavelength  fosc         T2        TX        TY        TZ
        (cm-1)      (nm)                 (au**2)    (au)      (au)      (au)
-----------------------------------------------------------------------------
   1   31569.2    316.8   0.000036821   0.00038   0.00749  -0.00055   0.01810

Dispersion correction           -0.026257695
FINAL SINGLE POINT ENERGY      -189.311640506021

DIPOLE MOMENT
-------------
                                X             Y             Z
Electronic contribution:     -1.72802      -1.80481      -0.06741
Nuclear contribution   :      1.99145       2.84318       0.09984
                        -----------------------------------------
Total Dipole Moment    :      0.26344       1.03836       0.03243
                        -----------------------------------------
Magnitude (a.u.)       :      1.07175
Magnitude (Debye)      :      2.72417

Rotational constants in cm-1:     0.837028     0.204303     0.164313
Rotational constants in MHz : 25093.471686  6124.841159  4925.983498

                             ****ORCA TERMINATED NORMALLY****
TOTAL RUN TIME: 0 days 0 hours 0 minutes 16 seconds 39 msec
