                         Program Version 5.0.3 -  RELEASE  -
|  1> ! B3LYP cc-pVDZ
|  2> !TightSCF
|  3> %scf
|  4>  ConvForced true
|  5>  convergence tight
|  6>  MaxIter 500
|  7> end
|  8>
|  9> %tddft
| 10>  nroots 1
| 11> end
| 12>
| 13> # 	264
| 14> * xyz 0 1
| 15> 		C   -1.186180  -0.341245   0.029623
| 16> 		O   -1.359612  -1.479646  -0.369416
| 17> 		C    0.006206   0.408312  -0.157714
| 18> 		C    1.260990   0.018233   0.067688
| 19> 		H   -2.029253   0.158970   0.538027
| 20> 		H   -0.247473   1.525167  -0.296831
| 21> 		H    1.532642  -0.979261   0.374050
| 22> 		H    2.075940   0.660709  -0.158684
| 23> *
| 24>
| 25>                          ****END OF INPUT****

CARTESIAN COORDINATES (ANGSTROEM)
---------------------------------
  C     -1.186180   -0.341245    0.029623
  O     -1.359612   -1.479646   -0.369416
  C      0.006206    0.408312   -0.157714
  C      1.260990    0.018233    0.067688
  H     -2.029253    0.158970    0.538027
  H     -0.247473    1.525167   -0.296831
  H      1.532642   -0.979261    0.374050
  H      2.075940    0.660709   -0.158684

 Total Charge           Charge          ....    0
 Multiplicity           Mult            ....    1
 Number of Electrons    NEL             ....   30
 Basis Dimension        Dim             ....   76

ORBITAL ENERGIES
----------------

  NO   OCC          E(Eh)            E(eV)
   0   2.0000     -19.134220      -520.6686
   1   2.0000     -10.269654      -279.4515
   2   2.0000     -10.212793      -277.9042
   3   2.0000     -10.210357      -277.8379
   4   2.0000      -1.039916       -28.2975
   5   2.0000      -0.802086       -21.8259
   6   2.0000      -0.672295       -18.2941
   7   2.0000      -0.544417       -14.8143
   8   2.0000      -0.505038       -13.7428
   9   2.0000      -0.456020       -12.4089
  10   2.0000      -0.437899       -11.9158
  11   2.0000      -0.389838       -10.6080
  12   2.0000      -0.373468       -10.1626
  13   2.0000      -0.290082        -7.8935
  14   2.0000      -0.252302        -6.8655
  15   0.0000      -0.063836        -1.7371
  16   0.0000       0.034979         0.9518
  17   0.0000       0.064084         1.7438
  18   0.0000       0.093509         2.5445
  19   0.0000       0.118285         3.2187

MULLIKEN ATOMIC CHARGES
-----------------------
   0 C :    0.173288
   1 O :   -0.199603
   2 C :   -0.109870
   3 C :    0.083525
   4 H :   -0.023327
   5 H :    0.017385
   6 H :    0.030593
   7 H :    0.028010
Sum of atomic charges:   -0.0000000

LOEWDIN ATOMIC CHARGES
----------------------
   0 C :   -0.043722
   1 O :   -0.008984
   2 C :   -0.072676
   3 C :    0.019829
   4 H :   -0.003174
   5 H :    0.048037
   6 H :    0.031729
   7 H :    0.028961

  Mayer bond orders larger than 0.100000
B(  0-C ,  1-O ) :   2.1909 B(  0-C ,  2-C ) :   1.0738 B(  0-C ,  4-H ) :   0.9172
B(  2-C ,  3-C ) :   1.9889 B(  2-C ,  5-H ) :   0.9181 B(  3-C ,  6-H ) :   0.9451
B(  3-C ,  7-H ) :   0.9388

-----------------------------------------------------------------------------
         ABSORPTION SPECTRUM VIA TRANSITION ELECTRIC DIPOLE MOMENTS
-----------------------------------------------------------------------------
State   Energy    Wavelength  fosc         T2        TX        TY        TZ
        (cm-1)      (nm)                 (au**2)    (au)      (au)      (au)
-----------------------------------------------------------------------------
   1   28238.3    354.1   0.000238428   0.00278  -0.04649  -0.01776  -0.01742

FINAL SINGLE POINT ENERGY      -191.668642792845

DIPOLE MOMENT
-------------
                                X             Y             Z
Electronic contribution:     -2.01868      -1.81753      -0.54544
Nuclear contribution   :      2.53556       2.68874       0.83787
                        -----------------------------------------
Total Dipole Moment    :      0.51688       0.87121       0.29243
                        -----------------------------------------
Magnitude (a.u.)       :      1.05437
Magnitude (Debye)      :      2.68000

Rotational constants in cm-1:     0.860856     0.190662     0.161123
Rotational constants in MHz : 25807.799023  5715.906655  4830.339899

                             ****ORCA TERMINATED NORMALLY****
TOTAL RUN TIME: 0 days 0 hours 3 minutes 15 seconds 194 msec
