                         Program Version 5.0.3 -  RELEASE  -
|  1> ! HF-3c
|  2> !TightSCF
|  3> %scf
|  4>  ConvForced true
|  5>  convergence tight
|  6>  MaxIter 500
|  7> end
|  8>
|  9> %tddft
| 10>  nroots 1
| 11> end
| 12>
| 13> # 	6758
| 14> * xyz 0 1
| 15> 		C   -1.161453  -0.425693   0.110430
| 16> 		O   -2.129051  -0.564863   0.848858
| 17> 		C    0.001241   0.425424   0.397904
| 18> 		C    1.140121   0.151659  -0.278245
| 19> 		H   -1.216149  -0.888929  -0.888753
| 20> 		H   -0.102664   1.421007   0.963073
| 21> 		H    1.227227  -0.748601  -1.106870
| 22> 		H    2.188050   0.659811   0.015014
| 23> *
| 24>
| 25>                          ****END OF INPUT****

CARTESIAN COORDINATES (ANGSTROEM)
---------------------------------
  C     -1.161453   -0.425693    0.110430
  O     -2.129051   -0.564863    0.848858
  C      0.001241    0.425424    0.397904
  C      1.140121    0.151659   -0.278245
  H     -1.216149   -0.888929   -0.888753
  H     -0.102664    1.421007    0.963073
  H      1.227227   -0.748601   -1.106870
  H      2.188050    0.659811    0.015014

 Total Charge           Charge          ....    0
 Multiplicity           Mult            ....    1
 Number of Electrons    NEL             ....   30
 Basis Dimension        Dim             ....   24

ORBITAL ENERGIES
----------------

  NO   OCC          E(Eh)            E(eV)
   0   2.0000     -20.351947      -553.8046
   1   2.0000     -11.287003      -307.1350
   2   2.0000     -11.185156      -304.3636
   3   2.0000     -11.182662      -304.2957
   4   2.0000      -1.383972       -37.6598
   5   2.0000      -1.069271       -29.0963
   6   2.0000      -0.855076       -23.2678
   7   2.0000      -0.757656       -20.6169
   8   2.0000      -0.649549       -17.6751
   9   2.0000      -0.624012       -16.9802
  10   2.0000      -0.566280       -15.4093
  11   2.0000      -0.522436       -14.2162
  12   2.0000      -0.504911       -13.7393
  13   2.0000      -0.410355       -11.1663
  14   2.0000      -0.377894       -10.2830
  15   0.0000       0.141746         3.8571
  16   0.0000       0.276720         7.5299
  17   0.0000       0.496285        13.5046
  18   0.0000       0.532762        14.4972
  19   0.0000       0.579681        15.7739

MULLIKEN ATOMIC CHARGES
-----------------------
   0 C :    0.154586
   1 O :   -0.352235
   2 C :   -0.184754
   3 C :   -0.191506
   4 H :    0.134861
   5 H :    0.160212
   6 H :    0.137430
   7 H :    0.141406
Sum of atomic charges:    0.0000000

LOEWDIN ATOMIC CHARGES
----------------------
   0 C :    0.141028
   1 O :   -0.262907
   2 C :   -0.146167
   3 C :   -0.112736
   4 H :    0.072514
   5 H :    0.111175
   6 H :    0.097825
   7 H :    0.099268

  Mayer bond orders larger than 0.100000
B(  0-C ,  1-O ) :   1.9021 B(  0-C ,  2-C ) :   1.0318 B(  0-C ,  4-H ) :   0.9265
B(  2-C ,  3-C ) :   1.9410 B(  2-C ,  5-H ) :   0.9493 B(  3-C ,  6-H ) :   0.9586
B(  3-C ,  7-H ) :   0.9605

-----------------------------------------------------------------------------
         ABSORPTION SPECTRUM VIA TRANSITION ELECTRIC DIPOLE MOMENTS
-----------------------------------------------------------------------------
State   Energy    Wavelength  fosc         T2        TX        TY        TZ
        (cm-1)      (nm)                 (au**2)    (au)      (au)      (au)
-----------------------------------------------------------------------------
   1   32489.1    307.8   0.000108794   0.00110  -0.02049   0.00581   0.02548

Dispersion correction           -0.024971312
FINAL SINGLE POINT ENERGY      -189.311716548835

DIPOLE MOMENT
-------------
                                X             Y             Z
Electronic contribution:     -3.00316      -0.65168       1.29116
Nuclear contribution   :      4.09858       0.86261      -1.97150
                        -----------------------------------------
Total Dipole Moment    :      1.09542       0.21093      -0.68033
                        -----------------------------------------
Magnitude (a.u.)       :      1.30664
Magnitude (Debye)      :      3.32121

Rotational constants in cm-1:     1.383150     0.155283     0.141994
Rotational constants in MHz : 41465.786817  4655.279500  4256.860590

                             ****ORCA TERMINATED NORMALLY****
TOTAL RUN TIME: 0 days 0 hours 0 minutes 12 seconds 118 msec
