                         Program Version 5.0.3 -  RELEASE  -
|  1> ! HF-3c
|  2> !TightSCF
|  3> %scf
|  4>  ConvForced true
|  5>  convergence tight
|  6>  MaxIter 500
|  7> end
|  8>
|  9> %tddft
| 10>  nroots 1
| 11> end
| 12>
| 13> # 	26427
| 14> * xyz 0 1
| 15> 		C   -0.600117  -0.410751   0.052598
| 16> 		O   -0.522715  -1.596710  -0.030953
| 17> 		C    0.596105   0.422945  -0.023203
| 18> 		C    1.823170  -0.188341   0.036793
| 19> 		H   -1.538636   0.021269   0.057302
| 20> 		H    0.604323   1.509835  -0.230384
| 21> 		H    1.793855  -1.286736  -0.033954
| 22> 		H    2.717984   0.434941  -0.107032
| 23> *
| 24>
| 25>                          ****END OF INPUT****

CARTESIAN COORDINATES (ANGSTROEM)
---------------------------------
  C     -0.600117   -0.410751    0.052598
  O     -0.522715   -1.596710   -0.030953
  C      0.596105    0.422945   -0.023203
  C      1.823170   -0.188341    0.036793
  H     -1.538636    0.021269    0.057302
  H      0.604323    1.509835   -0.230384
  H      1.793855   -1.286736   -0.033954
  H      2.717984    0.434941   -0.107032

 Total Charge           Charge          ....    0
 Multiplicity           Mult            ....    1
 Number of Electrons    NEL             ....   30
 Basis Dimension        Dim             ....   24

ORBITAL ENERGIES
----------------

  NO   OCC          E(Eh)            E(eV)
   0   2.0000     -20.365879      -554.1837
   1   2.0000     -11.302791      -307.5646
   2   2.0000     -11.182620      -304.2946
   3   2.0000     -11.177198      -304.1470
   4   2.0000      -1.420313       -38.6487
   5   2.0000      -1.066627       -29.0244
   6   2.0000      -0.892511       -24.2865
   7   2.0000      -0.756176       -20.5766
   8   2.0000      -0.711575       -19.3629
   9   2.0000      -0.611621       -16.6431
  10   2.0000      -0.586396       -15.9566
  11   2.0000      -0.553608       -15.0644
  12   2.0000      -0.527604       -14.3568
  13   2.0000      -0.421934       -11.4814
  14   2.0000      -0.378844       -10.3089
  15   0.0000       0.128321         3.4918
  16   0.0000       0.303546         8.2599
  17   0.0000       0.591005        16.0821
  18   0.0000       0.612353        16.6630
  19   0.0000       0.633073        17.2268

MULLIKEN ATOMIC CHARGES
-----------------------
   0 C :    0.150428
   1 O :   -0.356127
   2 C :   -0.176532
   3 C :   -0.211992
   4 H :    0.140743
   5 H :    0.142241
   6 H :    0.165479
   7 H :    0.145759
Sum of atomic charges:    0.0000000

LOEWDIN ATOMIC CHARGES
----------------------
   0 C :    0.138922
   1 O :   -0.257734
   2 C :   -0.138333
   3 C :   -0.113112
   4 H :    0.069880
   5 H :    0.092513
   6 H :    0.111257
   7 H :    0.096606

  Mayer bond orders larger than 0.100000
B(  0-C ,  1-O ) :   1.8937 B(  0-C ,  2-C ) :   1.0370 B(  0-C ,  4-H ) :   0.9322
B(  2-C ,  3-C ) :   1.9280 B(  2-C ,  5-H ) :   0.9618 B(  3-C ,  6-H ) :   0.9558
B(  3-C ,  7-H ) :   0.9663

-----------------------------------------------------------------------------
         ABSORPTION SPECTRUM VIA TRANSITION ELECTRIC DIPOLE MOMENTS
-----------------------------------------------------------------------------
State   Energy    Wavelength  fosc         T2        TX        TY        TZ
        (cm-1)      (nm)                 (au**2)    (au)      (au)      (au)
-----------------------------------------------------------------------------
   1   33291.1    300.4   0.000025363   0.00025   0.00947  -0.00064  -0.01267

Dispersion correction           -0.026297230
FINAL SINGLE POINT ENERGY      -189.327190720426

DIPOLE MOMENT
-------------
                                X             Y             Z
Electronic contribution:     -1.90071      -1.55661       0.25008
Nuclear contribution   :      2.19996       2.42653      -0.29398
                        -----------------------------------------
Total Dipole Moment    :      0.29926       0.86992      -0.04390
                        -----------------------------------------
Magnitude (a.u.)       :      0.92100
Magnitude (Debye)      :      2.34100

Rotational constants in cm-1:     0.741242     0.224085     0.172563
Rotational constants in MHz : 22221.876935  6717.889243  5173.305362

                             ****ORCA TERMINATED NORMALLY****
TOTAL RUN TIME: 0 days 0 hours 0 minutes 11 seconds 763 msec
