                         Program Version 5.0.3 -  RELEASE  -
|  1> ! HF-3c
|  2> !TightSCF
|  3> %scf
|  4>  ConvForced true
|  5>  convergence tight
|  6>  MaxIter 500
|  7> end
|  8>
|  9> %tddft
| 10>  nroots 1
| 11> end
| 12>
| 13> # 	7241
| 14> * xyz 0 1
| 15> 		C   -1.163816  -0.252801  -0.046958
| 16> 		O   -1.160567  -1.495207   0.135816
| 17> 		C    0.061335   0.533751   0.077653
| 18> 		C    1.244543  -0.003728  -0.059161
| 19> 		H   -2.230524   0.049530  -0.221831
| 20> 		H   -0.111722   1.581326   0.109127
| 21> 		H    1.264965  -1.020172  -0.143287
| 22> 		H    2.108567   0.631564   0.161697
| 23> *
| 24>
| 25>                          ****END OF INPUT****

CARTESIAN COORDINATES (ANGSTROEM)
---------------------------------
  C     -1.163816   -0.252801   -0.046958
  O     -1.160567   -1.495207    0.135816
  C      0.061335    0.533751    0.077653
  C      1.244543   -0.003728   -0.059161
  H     -2.230524    0.049530   -0.221831
  H     -0.111722    1.581326    0.109127
  H      1.264965   -1.020172   -0.143287
  H      2.108567    0.631564    0.161697

 Total Charge           Charge          ....    0
 Multiplicity           Mult            ....    1
 Number of Electrons    NEL             ....   30
 Basis Dimension        Dim             ....   24

ORBITAL ENERGIES
----------------

  NO   OCC          E(Eh)            E(eV)
   0   2.0000     -20.339261      -553.4594
   1   2.0000     -11.275935      -306.8338
   2   2.0000     -11.200555      -304.7826
   3   2.0000     -11.197802      -304.7077
   4   2.0000      -1.368034       -37.2261
   5   2.0000      -1.097810       -29.8729
   6   2.0000      -0.893124       -24.3031
   7   2.0000      -0.751380       -20.4461
   8   2.0000      -0.716028       -19.4841
   9   2.0000      -0.617778       -16.8106
  10   2.0000      -0.593374       -16.1465
  11   2.0000      -0.531442       -14.4613
  12   2.0000      -0.520462       -14.1625
  13   2.0000      -0.413646       -11.2559
  14   2.0000      -0.398154       -10.8343
  15   0.0000       0.127088         3.4582
  16   0.0000       0.301472         8.2035
  17   0.0000       0.516806        14.0630
  18   0.0000       0.648305        17.6413
  19   0.0000       0.688037        18.7224

MULLIKEN ATOMIC CHARGES
-----------------------
   0 C :    0.133123
   1 O :   -0.347672
   2 C :   -0.172468
   3 C :   -0.234662
   4 H :    0.153072
   5 H :    0.145712
   6 H :    0.164843
   7 H :    0.158052
Sum of atomic charges:   -0.0000000

LOEWDIN ATOMIC CHARGES
----------------------
   0 C :    0.125051
   1 O :   -0.268270
   2 C :   -0.119829
   3 C :   -0.129050
   4 H :    0.091220
   5 H :    0.090724
   6 H :    0.103607
   7 H :    0.106547

  Mayer bond orders larger than 0.100000
B(  0-C ,  1-O ) :   1.8873 B(  0-C ,  2-C ) :   1.0412 B(  0-C ,  4-H ) :   0.9379
B(  2-C ,  3-C ) :   1.9453 B(  2-C ,  5-H ) :   0.9574 B(  3-C ,  6-H ) :   0.9573
B(  3-C ,  7-H ) :   0.9602

-----------------------------------------------------------------------------
         ABSORPTION SPECTRUM VIA TRANSITION ELECTRIC DIPOLE MOMENTS
-----------------------------------------------------------------------------
State   Energy    Wavelength  fosc         T2        TX        TY        TZ
        (cm-1)      (nm)                 (au**2)    (au)      (au)      (au)
-----------------------------------------------------------------------------
   1   28754.0    347.8   0.000060955   0.00070  -0.01713  -0.00088   0.02010

Dispersion correction           -0.026113949
FINAL SINGLE POINT ENERGY      -189.341800134761

DIPOLE MOMENT
-------------
                                X             Y             Z
Electronic contribution:     -1.76607      -1.50436       0.08927
Nuclear contribution   :      2.01361       2.44298      -0.20311
                        -----------------------------------------
Total Dipole Moment    :      0.24753       0.93862      -0.11384
                        -----------------------------------------
Magnitude (a.u.)       :      0.97736
Magnitude (Debye)      :      2.48426

Rotational constants in cm-1:     0.778663     0.211664     0.167809
Rotational constants in MHz : 23343.724482  6345.538870  5030.795278

                             ****ORCA TERMINATED NORMALLY****
TOTAL RUN TIME: 0 days 0 hours 0 minutes 16 seconds 66 msec
