                         Program Version 5.0.3 -  RELEASE  -
|  1> ! B3LYP cc-pVDZ
|  2> !TightSCF
|  3> %scf
|  4>  ConvForced true
|  5>  convergence tight
|  6>  MaxIter 500
|  7> end
|  8>
|  9> %tddft
| 10>  nroots 1
| 11> end
| 12>
| 13> # 	1967
| 14> * xyz 0 1
| 15> 		C   -1.148613  -0.285226  -0.011351
| 16> 		O   -1.476136  -1.383350   0.619074
| 17> 		C    0.012329   0.523575   0.188984
| 18> 		C    1.218187  -0.019156  -0.131608
| 19> 		H   -1.827628   0.185906  -0.873688
| 20> 		H   -0.202694   1.399347   0.731213
| 21> 		H    1.173622  -1.023226  -0.536542
| 22> 		H    2.220480   0.534520   0.095433
| 23> *
| 24>
| 25>                          ****END OF INPUT****

CARTESIAN COORDINATES (ANGSTROEM)
---------------------------------
  C     -1.148613   -0.285226   -0.011351
  O     -1.476136   -1.383350    0.619074
  C      0.012329    0.523575    0.188984
  C      1.218187   -0.019156   -0.131608
  H     -1.827628    0.185906   -0.873688
  H     -0.202694    1.399347    0.731213
  H      1.173622   -1.023226   -0.536542
  H      2.220480    0.534520    0.095433

 Total Charge           Charge          ....    0
 Multiplicity           Mult            ....    1
 Number of Electrons    NEL             ....   30
 Basis Dimension        Dim             ....   76

ORBITAL ENERGIES
----------------

  NO   OCC          E(Eh)            E(eV)
   0   2.0000     -19.149618      -521.0876
   1   2.0000     -10.292046      -280.0608
   2   2.0000     -10.222013      -278.1551
   3   2.0000     -10.211027      -277.8562
   4   2.0000      -1.001963       -27.2648
   5   2.0000      -0.807933       -21.9850
   6   2.0000      -0.662507       -18.0277
   7   2.0000      -0.553688       -15.0666
   8   2.0000      -0.489466       -13.3190
   9   2.0000      -0.445400       -12.1199
  10   2.0000      -0.436052       -11.8656
  11   2.0000      -0.393335       -10.7032
  12   2.0000      -0.350893        -9.5483
  13   2.0000      -0.285220        -7.7612
  14   2.0000      -0.258303        -7.0288
  15   0.0000      -0.060314        -1.6412
  16   0.0000      -0.016672        -0.4537
  17   0.0000       0.071516         1.9460
  18   0.0000       0.082317         2.2400
  19   0.0000       0.098141         2.6705

MULLIKEN ATOMIC CHARGES
-----------------------
   0 C :    0.139695
   1 O :   -0.245243
   2 C :   -0.026711
   3 C :    0.016514
   4 H :    0.015386
   5 H :    0.009975
   6 H :    0.034441
   7 H :    0.055944
Sum of atomic charges:    0.0000000

LOEWDIN ATOMIC CHARGES
----------------------
   0 C :    0.025961
   1 O :   -0.077767
   2 C :   -0.061517
   3 C :   -0.010639
   4 H :    0.011930
   5 H :    0.032419
   6 H :    0.031341
   7 H :    0.048273

  Mayer bond orders larger than 0.100000
B(  0-C ,  1-O ) :   2.1333 B(  0-C ,  2-C ) :   1.0366 B(  0-C ,  4-H ) :   0.8958
B(  2-C ,  3-C ) :   1.9868 B(  2-C ,  5-H ) :   0.9402 B(  3-C ,  6-H ) :   0.9361
B(  3-C ,  7-H ) :   0.9471

-----------------------------------------------------------------------------
         ABSORPTION SPECTRUM VIA TRANSITION ELECTRIC DIPOLE MOMENTS
-----------------------------------------------------------------------------
State   Energy    Wavelength  fosc         T2        TX        TY        TZ
        (cm-1)      (nm)                 (au**2)    (au)      (au)      (au)
-----------------------------------------------------------------------------
   1   28426.9    351.8   0.000068153   0.00079   0.01534  -0.01901  -0.01387

FINAL SINGLE POINT ENERGY      -191.642454831602

DIPOLE MOMENT
-------------
                                X             Y             Z
Electronic contribution:     -2.14520      -1.36965       0.85307
Nuclear contribution   :      2.68619       2.24438      -1.20155
                        -----------------------------------------
Total Dipole Moment    :      0.54099       0.87473      -0.34848
                        -----------------------------------------
Magnitude (a.u.)       :      1.08594
Magnitude (Debye)      :      2.76024

Rotational constants in cm-1:     0.802550     0.182781     0.160637
Rotational constants in MHz : 24059.843306  5479.635354  4815.774694

                             ****ORCA TERMINATED NORMALLY****
TOTAL RUN TIME: 0 days 0 hours 3 minutes 26 seconds 568 msec
