                         Program Version 5.0.3 -  RELEASE  -
|  1> ! HF-3c
|  2> !TightSCF
|  3> %scf
|  4>  ConvForced true
|  5>  convergence tight
|  6>  MaxIter 500
|  7> end
|  8>
|  9> %tddft
| 10>  nroots 1
| 11> end
| 12>
| 13> # 	13547
| 14> * xyz 0 1
| 15> 		C   -1.192355  -0.362306  -0.016369
| 16> 		O   -1.541586  -1.259627  -0.744893
| 17> 		C   -0.031990   0.485280  -0.213221
| 18> 		C    1.202440  -0.007096   0.166468
| 19> 		H   -1.648040  -0.034834   0.885407
| 20> 		H   -0.225702   1.480770  -0.587374
| 21> 		H    1.337640  -1.023987   0.455384
| 22> 		H    2.076471   0.641028   0.060247
| 23> *
| 24>
| 25>                          ****END OF INPUT****

CARTESIAN COORDINATES (ANGSTROEM)
---------------------------------
  C     -1.192355   -0.362306   -0.016369
  O     -1.541586   -1.259627   -0.744893
  C     -0.031990    0.485280   -0.213221
  C      1.202440   -0.007096    0.166468
  H     -1.648040   -0.034834    0.885407
  H     -0.225702    1.480770   -0.587374
  H      1.337640   -1.023987    0.455384
  H      2.076471    0.641028    0.060247

 Total Charge           Charge          ....    0
 Multiplicity           Mult            ....    1
 Number of Electrons    NEL             ....   30
 Basis Dimension        Dim             ....   24

ORBITAL ENERGIES
----------------

  NO   OCC          E(Eh)            E(eV)
   0   2.0000     -20.383682      -554.6682
   1   2.0000     -11.304478      -307.6105
   2   2.0000     -11.186967      -304.4128
   3   2.0000     -11.178003      -304.1689
   4   2.0000      -1.411456       -38.4077
   5   2.0000      -1.075908       -29.2770
   6   2.0000      -0.901157       -24.5217
   7   2.0000      -0.767407       -20.8822
   8   2.0000      -0.691754       -18.8236
   9   2.0000      -0.629869       -17.1396
  10   2.0000      -0.613179       -16.6855
  11   2.0000      -0.561182       -15.2705
  12   2.0000      -0.505988       -13.7686
  13   2.0000      -0.417257       -11.3542
  14   2.0000      -0.386772       -10.5246
  15   0.0000       0.178254         4.8505
  16   0.0000       0.207483         5.6459
  17   0.0000       0.610906        16.6236
  18   0.0000       0.638425        17.3724
  19   0.0000       0.668753        18.1977

MULLIKEN ATOMIC CHARGES
-----------------------
   0 C :    0.163550
   1 O :   -0.336366
   2 C :   -0.164059
   3 C :   -0.239234
   4 H :    0.140336
   5 H :    0.152058
   6 H :    0.142775
   7 H :    0.140941
Sum of atomic charges:   -0.0000000

LOEWDIN ATOMIC CHARGES
----------------------
   0 C :    0.151994
   1 O :   -0.240528
   2 C :   -0.119286
   3 C :   -0.147574
   4 H :    0.072567
   5 H :    0.099633
   6 H :    0.091233
   7 H :    0.091961

  Mayer bond orders larger than 0.100000
B(  0-C ,  1-O ) :   1.9461 B(  0-C ,  2-C ) :   1.0022 B(  0-C ,  4-H ) :   0.9178
B(  2-C ,  3-C ) :   1.9807 B(  2-C ,  5-H ) :   0.9516 B(  3-C ,  6-H ) :   0.9678
B(  3-C ,  7-H ) :   0.9664

-----------------------------------------------------------------------------
         ABSORPTION SPECTRUM VIA TRANSITION ELECTRIC DIPOLE MOMENTS
-----------------------------------------------------------------------------
State   Energy    Wavelength  fosc         T2        TX        TY        TZ
        (cm-1)      (nm)                 (au**2)    (au)      (au)      (au)
-----------------------------------------------------------------------------
   1   34612.3    288.9   0.000009744   0.00009  -0.00852  -0.00445   0.00054

Dispersion correction           -0.025516777
FINAL SINGLE POINT ENERGY      -189.315334015018

DIPOLE MOMENT
-------------
                                X             Y             Z
Electronic contribution:     -2.58266      -1.43490      -0.98412
Nuclear contribution   :      2.99309       2.16736       1.54903
                        -----------------------------------------
Total Dipole Moment    :      0.41042       0.73246       0.56492
                        -----------------------------------------
Magnitude (a.u.)       :      1.01196
Magnitude (Debye)      :      2.57221

Rotational constants in cm-1:     0.901398     0.179261     0.162737
Rotational constants in MHz : 27023.244572  5374.116792  4878.723012

                             ****ORCA TERMINATED NORMALLY****
TOTAL RUN TIME: 0 days 0 hours 0 minutes 11 seconds 272 msec
