                         Program Version 5.0.3 -  RELEASE  -
|  1> ! B3LYP cc-pVDZ
|  2> !TightSCF
|  3> %scf
|  4>  ConvForced true
|  5>  convergence tight
|  6>  MaxIter 500
|  7> end
|  8>
|  9> %tddft
| 10>  nroots 1
| 11> end
| 12>
| 13> # 	11688
| 14> * xyz 0 1
| 15> 		C   -1.198906  -0.256268   0.071023
| 16> 		O   -1.670307  -1.134668   0.841027
| 17> 		C   -0.008087   0.511063   0.271343
| 18> 		C    1.175244   0.000528  -0.075326
| 19> 		H   -1.698277  -0.177881  -1.140100
| 20> 		H   -0.191865   1.423169   0.888308
| 21> 		H    1.233983  -0.897820  -0.765722
| 22> 		H    2.330983   0.529947  -0.097361
| 23> *
| 24>
| 25>                          ****END OF INPUT****

CARTESIAN COORDINATES (ANGSTROEM)
---------------------------------
  C     -1.198906   -0.256268    0.071023
  O     -1.670307   -1.134668    0.841027
  C     -0.008087    0.511063    0.271343
  C      1.175244    0.000528   -0.075326
  H     -1.698277   -0.177881   -1.140100
  H     -0.191865    1.423169    0.888308
  H      1.233983   -0.897820   -0.765722
  H      2.330983    0.529947   -0.097361

 Total Charge           Charge          ....    0
 Multiplicity           Mult            ....    1
 Number of Electrons    NEL             ....   30
 Basis Dimension        Dim             ....   76

ORBITAL ENERGIES
----------------

  NO   OCC          E(Eh)            E(eV)
   0   2.0000     -19.154598      -521.2231
   1   2.0000     -10.300876      -280.3011
   2   2.0000     -10.232316      -278.4355
   3   2.0000     -10.221186      -278.1326
   4   2.0000      -1.031244       -28.0616
   5   2.0000      -0.808743       -22.0070
   6   2.0000      -0.649762       -17.6809
   7   2.0000      -0.545160       -14.8346
   8   2.0000      -0.472326       -12.8526
   9   2.0000      -0.461335       -12.5536
  10   2.0000      -0.442106       -12.0303
  11   2.0000      -0.369243       -10.0476
  12   2.0000      -0.365335        -9.9413
  13   2.0000      -0.291560        -7.9337
  14   2.0000      -0.259345        -7.0571
  15   0.0000      -0.054035        -1.4704
  16   0.0000      -0.023896        -0.6503
  17   0.0000       0.060361         1.6425
  18   0.0000       0.065223         1.7748
  19   0.0000       0.079900         2.1742

MULLIKEN ATOMIC CHARGES
-----------------------
   0 C :    0.108337
   1 O :   -0.200031
   2 C :   -0.005481
   3 C :   -0.058892
   4 H :    0.002776
   5 H :    0.040609
   6 H :    0.045810
   7 H :    0.066872
Sum of atomic charges:    0.0000000

LOEWDIN ATOMIC CHARGES
----------------------
   0 C :   -0.004875
   1 O :   -0.028722
   2 C :   -0.075755
   3 C :   -0.041411
   4 H :    0.003131
   5 H :    0.051019
   6 H :    0.037093
   7 H :    0.059520

  Mayer bond orders larger than 0.100000
B(  0-C ,  1-O ) :   2.1857 B(  0-C ,  2-C ) :   0.9973 B(  0-C ,  4-H ) :   0.8712
B(  2-C ,  3-C ) :   1.9896 B(  2-C ,  5-H ) :   0.9293 B(  3-C ,  6-H ) :   0.9405
B(  3-C ,  7-H ) :   0.9437

-----------------------------------------------------------------------------
         ABSORPTION SPECTRUM VIA TRANSITION ELECTRIC DIPOLE MOMENTS
-----------------------------------------------------------------------------
State   Energy    Wavelength  fosc         T2        TX        TY        TZ
        (cm-1)      (nm)                 (au**2)    (au)      (au)      (au)
-----------------------------------------------------------------------------
   1   30424.6    328.7   0.000757033   0.00819   0.04091   0.02425   0.07700

FINAL SINGLE POINT ENERGY      -191.615710402071

DIPOLE MOMENT
-------------
                                X             Y             Z
Electronic contribution:     -2.63258      -1.07553       1.62175
Nuclear contribution   :      3.25455       1.76079      -2.07774
                        -----------------------------------------
Total Dipole Moment    :      0.62198       0.68526      -0.45600
                        -----------------------------------------
Magnitude (a.u.)       :      1.03168
Magnitude (Debye)      :      2.62233

Rotational constants in cm-1:     0.899029     0.169474     0.160128
Rotational constants in MHz : 26952.207711  5080.715166  4800.502856

                             ****ORCA TERMINATED NORMALLY****
TOTAL RUN TIME: 0 days 0 hours 3 minutes 21 seconds 864 msec
