                         Program Version 5.0.3 -  RELEASE  -
|  1> ! HF-3c
|  2> !TightSCF
|  3> %scf
|  4>  ConvForced true
|  5>  convergence tight
|  6>  MaxIter 500
|  7> end
|  8>
|  9> %tddft
| 10>  nroots 1
| 11> end
| 12>
| 13> # 	7071
| 14> * xyz 0 1
| 15> 		C   -1.231396  -0.371825  -0.049587
| 16> 		O   -1.813759  -1.000181  -0.901397
| 17> 		C   -0.005220   0.397371  -0.284621
| 18> 		C    1.122532  -0.006807   0.223255
| 19> 		H   -1.516284  -0.169223   1.028638
| 20> 		H   -0.059017   1.280973  -0.986945
| 21> 		H    1.323722  -0.750440   0.843391
| 22> 		H    2.160411   0.639236   0.099829
| 23> *
| 24>
| 25>                          ****END OF INPUT****

CARTESIAN COORDINATES (ANGSTROEM)
---------------------------------
  C     -1.231396   -0.371825   -0.049587
  O     -1.813759   -1.000181   -0.901397
  C     -0.005220    0.397371   -0.284621
  C      1.122532   -0.006807    0.223255
  H     -1.516284   -0.169223    1.028638
  H     -0.059017    1.280973   -0.986945
  H      1.323722   -0.750440    0.843391
  H      2.160411    0.639236    0.099829

 Total Charge           Charge          ....    0
 Multiplicity           Mult            ....    1
 Number of Electrons    NEL             ....   30
 Basis Dimension        Dim             ....   24

ORBITAL ENERGIES
----------------

  NO   OCC          E(Eh)            E(eV)
   0   2.0000     -20.381966      -554.6215
   1   2.0000     -11.303150      -307.5743
   2   2.0000     -11.191258      -304.5296
   3   2.0000     -11.180198      -304.2287
   4   2.0000      -1.409593       -38.3570
   5   2.0000      -1.090691       -29.6792
   6   2.0000      -0.886618       -24.1261
   7   2.0000      -0.770035       -20.9537
   8   2.0000      -0.677330       -18.4311
   9   2.0000      -0.637015       -17.3341
  10   2.0000      -0.615236       -16.7414
  11   2.0000      -0.525549       -14.3009
  12   2.0000      -0.508913       -13.8482
  13   2.0000      -0.413207       -11.2439
  14   2.0000      -0.401611       -10.9284
  15   0.0000       0.171414         4.6644
  16   0.0000       0.246347         6.7034
  17   0.0000       0.499113        13.5816
  18   0.0000       0.587067        15.9749
  19   0.0000       0.644045        17.5254

MULLIKEN ATOMIC CHARGES
-----------------------
   0 C :    0.179329
   1 O :   -0.341894
   2 C :   -0.171280
   3 C :   -0.243110
   4 H :    0.142146
   5 H :    0.160825
   6 H :    0.134313
   7 H :    0.139671
Sum of atomic charges:    0.0000000

LOEWDIN ATOMIC CHARGES
----------------------
   0 C :    0.158840
   1 O :   -0.245049
   2 C :   -0.126112
   3 C :   -0.155486
   4 H :    0.079879
   5 H :    0.110358
   6 H :    0.077667
   7 H :    0.099903

  Mayer bond orders larger than 0.100000
B(  0-C ,  1-O ) :   1.9489 B(  0-C ,  2-C ) :   0.9906 B(  0-C ,  4-H ) :   0.9117
B(  2-C ,  3-C ) :   1.9999 B(  2-C ,  5-H ) :   0.9416 B(  3-C ,  6-H ) :   0.9691
B(  3-C ,  7-H ) :   0.9573

-----------------------------------------------------------------------------
         ABSORPTION SPECTRUM VIA TRANSITION ELECTRIC DIPOLE MOMENTS
-----------------------------------------------------------------------------
State   Energy    Wavelength  fosc         T2        TX        TY        TZ
        (cm-1)      (nm)                 (au**2)    (au)      (au)      (au)
-----------------------------------------------------------------------------
   1   34424.9    290.5   0.000019897   0.00019   0.00465   0.00429  -0.01226

Dispersion correction           -0.025341111
FINAL SINGLE POINT ENERGY      -189.297419425127

DIPOLE MOMENT
-------------
                                X             Y             Z
Electronic contribution:     -3.05819      -1.30281      -1.24632
Nuclear contribution   :      3.67681       1.91632       1.90265
                        -----------------------------------------
Total Dipole Moment    :      0.61862       0.61351       0.65633
                        -----------------------------------------
Magnitude (a.u.)       :      1.09080
Magnitude (Debye)      :      2.77260

Rotational constants in cm-1:     1.135076     0.162674     0.159321
Rotational constants in MHz : 34028.708992  4876.854318  4776.324089

                             ****ORCA TERMINATED NORMALLY****
TOTAL RUN TIME: 0 days 0 hours 0 minutes 9 seconds 664 msec
