                         Program Version 5.0.3 -  RELEASE  -
|  1> ! B3LYP cc-pVDZ
|  2> !TightSCF
|  3> %scf
|  4>  ConvForced true
|  5>  convergence tight
|  6>  MaxIter 500
|  7> end
|  8>
|  9> %tddft
| 10>  nroots 1
| 11> end
| 12>
| 13> # 	3520
| 14> * xyz 0 1
| 15> 		C   -1.283221  -0.381518   0.032564
| 16> 		O   -1.250491  -1.500084   0.024682
| 17> 		C    0.018337   0.517551   0.056479
| 18> 		C    1.252287   0.003478   0.032763
| 19> 		H   -2.154740   0.224169  -0.040084
| 20> 		H   -0.284697   1.507298  -0.053304
| 21> 		H    1.434036  -1.122425  -0.147532
| 22> 		H    2.238179   0.692391   0.086877
| 23> *
| 24>
| 25>                          ****END OF INPUT****

CARTESIAN COORDINATES (ANGSTROEM)
---------------------------------
  C     -1.283221   -0.381518    0.032564
  O     -1.250491   -1.500084    0.024682
  C      0.018337    0.517551    0.056479
  C      1.252287    0.003478    0.032763
  H     -2.154740    0.224169   -0.040084
  H     -0.284697    1.507298   -0.053304
  H      1.434036   -1.122425   -0.147532
  H      2.238179    0.692391    0.086877

 Total Charge           Charge          ....    0
 Multiplicity           Mult            ....    1
 Number of Electrons    NEL             ....   30
 Basis Dimension        Dim             ....   76

ORBITAL ENERGIES
----------------

  NO   OCC          E(Eh)            E(eV)
   0   2.0000     -19.143596      -520.9237
   1   2.0000     -10.269474      -279.4466
   2   2.0000     -10.220193      -278.1056
   3   2.0000     -10.193391      -277.3763
   4   2.0000      -1.103933       -30.0395
   5   2.0000      -0.775313       -21.0973
   6   2.0000      -0.643270       -17.5043
   7   2.0000      -0.544168       -14.8076
   8   2.0000      -0.498276       -13.5588
   9   2.0000      -0.456827       -12.4309
  10   2.0000      -0.431875       -11.7519
  11   2.0000      -0.428502       -11.6601
  12   2.0000      -0.375338       -10.2135
  13   2.0000      -0.282707        -7.6928
  14   2.0000      -0.249729        -6.7955
  15   0.0000      -0.051832        -1.4104
  16   0.0000       0.062815         1.7093
  17   0.0000       0.066770         1.8169
  18   0.0000       0.082371         2.2414
  19   0.0000       0.130297         3.5456

MULLIKEN ATOMIC CHARGES
-----------------------
   0 C :    0.178889
   1 O :   -0.100905
   2 C :   -0.097786
   3 C :   -0.013102
   4 H :   -0.045937
   5 H :   -0.032484
   6 H :    0.055885
   7 H :    0.055439
Sum of atomic charges:    0.0000000

LOEWDIN ATOMIC CHARGES
----------------------
   0 C :   -0.073772
   1 O :    0.097066
   2 C :   -0.084240
   3 C :   -0.018776
   4 H :   -0.021265
   5 H :    0.007612
   6 H :    0.044471
   7 H :    0.048904

  Mayer bond orders larger than 0.100000
B(  0-C ,  1-O ) :   2.3252 B(  0-C ,  2-C ) :   0.9923 B(  0-C ,  4-H ) :   0.9025
B(  2-C ,  3-C ) :   1.9769 B(  2-C ,  5-H ) :   0.9501 B(  3-C ,  6-H ) :   0.9286
B(  3-C ,  7-H ) :   0.9412

-----------------------------------------------------------------------------
         ABSORPTION SPECTRUM VIA TRANSITION ELECTRIC DIPOLE MOMENTS
-----------------------------------------------------------------------------
State   Energy    Wavelength  fosc         T2        TX        TY        TZ
        (cm-1)      (nm)                 (au**2)    (au)      (au)      (au)
-----------------------------------------------------------------------------
   1   31163.3    320.9   0.000094732   0.00100   0.02573   0.01617  -0.00879

FINAL SINGLE POINT ENERGY      -191.631748745546

DIPOLE MOMENT
-------------
                                X             Y             Z
Electronic contribution:     -2.23381      -1.92758       0.19941
Nuclear contribution   :      2.40917       2.61082      -0.25857
                        -----------------------------------------
Total Dipole Moment    :      0.17537       0.68323      -0.05916
                        -----------------------------------------
Magnitude (a.u.)       :      0.70786
Magnitude (Debye)      :      1.79923

Rotational constants in cm-1:     0.803155     0.197297     0.158542
Rotational constants in MHz : 24077.986214  5914.814538  4752.982636

                             ****ORCA TERMINATED NORMALLY****
TOTAL RUN TIME: 0 days 0 hours 3 minutes 8 seconds 982 msec
