                         Program Version 5.0.3 -  RELEASE  -
|  1> ! HF-3c
|  2> !TightSCF
|  3> %scf
|  4>  ConvForced true
|  5>  convergence tight
|  6>  MaxIter 500
|  7> end
|  8>
|  9> %tddft
| 10>  nroots 1
| 11> end
| 12>
| 13> # 	25809
| 14> * xyz 0 1
| 15> 		C   -0.579322  -0.433100   0.007501
| 16> 		O   -0.563607  -1.607978  -0.013979
| 17> 		C    0.584554   0.384953  -0.028240
| 18> 		C    1.852213  -0.143004   0.008501
| 19> 		H   -1.613309   0.145165   0.360855
| 20> 		H    0.599786   1.582193  -0.223251
| 21> 		H    1.987201  -1.057634  -0.020784
| 22> 		H    2.786431   0.393929   0.249464
| 23> *
| 24>
| 25>                          ****END OF INPUT****

CARTESIAN COORDINATES (ANGSTROEM)
---------------------------------
  C     -0.579322   -0.433100    0.007501
  O     -0.563607   -1.607978   -0.013979
  C      0.584554    0.384953   -0.028240
  C      1.852213   -0.143004    0.008501
  H     -1.613309    0.145165    0.360855
  H      0.599786    1.582193   -0.223251
  H      1.987201   -1.057634   -0.020784
  H      2.786431    0.393929    0.249464

 Total Charge           Charge          ....    0
 Multiplicity           Mult            ....    1
 Number of Electrons    NEL             ....   30
 Basis Dimension        Dim             ....   24

ORBITAL ENERGIES
----------------

  NO   OCC          E(Eh)            E(eV)
   0   2.0000     -20.371814      -554.3452
   1   2.0000     -11.305736      -307.6447
   2   2.0000     -11.193133      -304.5806
   3   2.0000     -11.190522      -304.5096
   4   2.0000      -1.428625       -38.8749
   5   2.0000      -1.075952       -29.2782
   6   2.0000      -0.902404       -24.5557
   7   2.0000      -0.743265       -20.2253
   8   2.0000      -0.699792       -19.0423
   9   2.0000      -0.620094       -16.8736
  10   2.0000      -0.594698       -16.1825
  11   2.0000      -0.564473       -15.3601
  12   2.0000      -0.516256       -14.0480
  13   2.0000      -0.403885       -10.9903
  14   2.0000      -0.382976       -10.4213
  15   0.0000       0.120599         3.2817
  16   0.0000       0.302098         8.2205
  17   0.0000       0.498591        13.5674
  18   0.0000       0.543442        14.7878
  19   0.0000       0.643005        17.4970

MULLIKEN ATOMIC CHARGES
-----------------------
   0 C :    0.177542
   1 O :   -0.360380
   2 C :   -0.154098
   3 C :   -0.237661
   4 H :    0.128984
   5 H :    0.150386
   6 H :    0.143543
   7 H :    0.151684
Sum of atomic charges:   -0.0000000

LOEWDIN ATOMIC CHARGES
----------------------
   0 C :    0.140650
   1 O :   -0.254887
   2 C :   -0.121905
   3 C :   -0.126717
   4 H :    0.075265
   5 H :    0.107188
   6 H :    0.078622
   7 H :    0.101784

  Mayer bond orders larger than 0.100000
B(  0-C ,  1-O ) :   1.8970 B(  0-C ,  2-C ) :   1.0495 B(  0-C ,  4-H ) :   0.9021
B(  2-C ,  3-C ) :   1.9212 B(  2-C ,  5-H ) :   0.9549 B(  3-C ,  6-H ) :   0.9693
B(  3-C ,  7-H ) :   0.9657

-----------------------------------------------------------------------------
         ABSORPTION SPECTRUM VIA TRANSITION ELECTRIC DIPOLE MOMENTS
-----------------------------------------------------------------------------
State   Energy    Wavelength  fosc         T2        TX        TY        TZ
        (cm-1)      (nm)                 (au**2)    (au)      (au)      (au)
-----------------------------------------------------------------------------
   1   32937.8    303.6   0.000104952   0.00105  -0.02638   0.00369   0.01842

Dispersion correction           -0.025603871
FINAL SINGLE POINT ENERGY      -189.271466074302

DIPOLE MOMENT
-------------
                                X             Y             Z
Electronic contribution:     -2.06497      -1.75221      -0.27132
Nuclear contribution   :      2.37135       2.78514       0.34353
                        -----------------------------------------
Total Dipole Moment    :      0.30638       1.03292       0.07221
                        -----------------------------------------
Magnitude (a.u.)       :      1.07982
Magnitude (Debye)      :      2.74468

Rotational constants in cm-1:     0.765064     0.213350     0.167687
Rotational constants in MHz : 22936.046291  6396.061734  5027.119123

                             ****ORCA TERMINATED NORMALLY****
TOTAL RUN TIME: 0 days 0 hours 0 minutes 13 seconds 207 msec
