                         Program Version 5.0.3 -  RELEASE  -
|  1> ! B3LYP cc-pVDZ
|  2> !TightSCF
|  3> %scf
|  4>  ConvForced true
|  5>  convergence tight
|  6>  MaxIter 500
|  7> end
|  8>
|  9> %tddft
| 10>  nroots 1
| 11> end
| 12>
| 13> # 	4091
| 14> * xyz 0 1
| 15> 		C   -1.180979  -0.267675  -0.015370
| 16> 		O   -1.828729  -0.822463  -0.898309
| 17> 		C    0.043851   0.525057  -0.212852
| 18> 		C    1.244301   0.020655   0.134011
| 19> 		H   -1.356328  -0.625962   1.027383
| 20> 		H   -0.129129   1.297938  -0.836839
| 21> 		H    1.222037  -0.858200   0.778210
| 22> 		H    2.003681   0.682023   0.007383
| 23> *
| 24>
| 25>                          ****END OF INPUT****

CARTESIAN COORDINATES (ANGSTROEM)
---------------------------------
  C     -1.180979   -0.267675   -0.015370
  O     -1.828729   -0.822463   -0.898309
  C      0.043851    0.525057   -0.212852
  C      1.244301    0.020655    0.134011
  H     -1.356328   -0.625962    1.027383
  H     -0.129129    1.297938   -0.836839
  H      1.222037   -0.858200    0.778210
  H      2.003681    0.682023    0.007383

 Total Charge           Charge          ....    0
 Multiplicity           Mult            ....    1
 Number of Electrons    NEL             ....   30
 Basis Dimension        Dim             ....   76

ORBITAL ENERGIES
----------------

  NO   OCC          E(Eh)            E(eV)
   0   2.0000     -19.143348      -520.9170
   1   2.0000     -10.277276      -279.6589
   2   2.0000     -10.206973      -277.7459
   3   2.0000     -10.202287      -277.6183
   4   2.0000      -1.040416       -28.3111
   5   2.0000      -0.806976       -21.9589
   6   2.0000      -0.658315       -17.9137
   7   2.0000      -0.574118       -15.6226
   8   2.0000      -0.493142       -13.4191
   9   2.0000      -0.460460       -12.5297
  10   2.0000      -0.433285       -11.7903
  11   2.0000      -0.406518       -11.0619
  12   2.0000      -0.376220       -10.2375
  13   2.0000      -0.289435        -7.8759
  14   2.0000      -0.253567        -6.8999
  15   0.0000      -0.057965        -1.5773
  16   0.0000       0.004729         0.1287
  17   0.0000       0.085018         2.3135
  18   0.0000       0.093310         2.5391
  19   0.0000       0.116538         3.1712

MULLIKEN ATOMIC CHARGES
-----------------------
   0 C :    0.143016
   1 O :   -0.195866
   2 C :   -0.040495
   3 C :    0.092168
   4 H :   -0.015865
   5 H :   -0.020220
   6 H :    0.024288
   7 H :    0.012973
Sum of atomic charges:    0.0000000

LOEWDIN ATOMIC CHARGES
----------------------
   0 C :   -0.016745
   1 O :   -0.008549
   2 C :   -0.033335
   3 C :    0.005178
   4 H :   -0.007067
   5 H :    0.010704
   6 H :    0.033871
   7 H :    0.015942

  Mayer bond orders larger than 0.100000
B(  0-C ,  1-O ) :   2.1912 B(  0-C ,  2-C ) :   1.0253 B(  0-C ,  4-H ) :   0.9165
B(  2-C ,  3-C ) :   2.0003 B(  2-C ,  5-H ) :   0.9430 B(  3-C ,  6-H ) :   0.9421
B(  3-C ,  7-H ) :   0.9404

-----------------------------------------------------------------------------
         ABSORPTION SPECTRUM VIA TRANSITION ELECTRIC DIPOLE MOMENTS
-----------------------------------------------------------------------------
State   Energy    Wavelength  fosc         T2        TX        TY        TZ
        (cm-1)      (nm)                 (au**2)    (au)      (au)      (au)
-----------------------------------------------------------------------------
   1   29432.6    339.8   0.000845335   0.00946   0.06806  -0.02678   0.06408

FINAL SINGLE POINT ENERGY      -191.643932440773

DIPOLE MOMENT
-------------
                                X             Y             Z
Electronic contribution:     -2.67422      -0.59010      -1.31065
Nuclear contribution   :      3.36737       1.07924       1.87822
                        -----------------------------------------
Total Dipole Moment    :      0.69314       0.48914       0.56757
                        -----------------------------------------
Magnitude (a.u.)       :      1.02071
Magnitude (Debye)      :      2.59443

Rotational constants in cm-1:     1.118579     0.162025     0.157457
Rotational constants in MHz : 33534.158592  4857.386469  4720.429974

                             ****ORCA TERMINATED NORMALLY****
TOTAL RUN TIME: 0 days 0 hours 3 minutes 9 seconds 648 msec
