                         Program Version 5.0.3 -  RELEASE  -
|  1> ! HF-3c
|  2> !TightSCF
|  3> %scf
|  4>  ConvForced true
|  5>  convergence tight
|  6>  MaxIter 500
|  7> end
|  8>
|  9> %tddft
| 10>  nroots 1
| 11> end
| 12>
| 13> # 	7690
| 14> * xyz 0 1
| 15> 		C   -1.157063  -0.268749  -0.006450
| 16> 		O   -1.513346  -1.103792   0.807033
| 17> 		C   -0.005708   0.535328   0.163578
| 18> 		C    1.176462  -0.061640  -0.152529
| 19> 		H   -1.844583  -0.196956  -0.921588
| 20> 		H   -0.052963   1.547910   0.636453
| 21> 		H    1.176017  -1.064637  -0.491890
| 22> 		H    2.143409   0.590931  -0.045290
| 23> *
| 24>
| 25>                          ****END OF INPUT****

CARTESIAN COORDINATES (ANGSTROEM)
---------------------------------
  C     -1.157063   -0.268749   -0.006450
  O     -1.513346   -1.103792    0.807033
  C     -0.005708    0.535328    0.163578
  C      1.176462   -0.061640   -0.152529
  H     -1.844583   -0.196956   -0.921588
  H     -0.052963    1.547910    0.636453
  H      1.176017   -1.064637   -0.491890
  H      2.143409    0.590931   -0.045290

 Total Charge           Charge          ....    0
 Multiplicity           Mult            ....    1
 Number of Electrons    NEL             ....   30
 Basis Dimension        Dim             ....   24

ORBITAL ENERGIES
----------------

  NO   OCC          E(Eh)            E(eV)
   0   2.0000     -20.359259      -554.0036
   1   2.0000     -11.290487      -307.2298
   2   2.0000     -11.188979      -304.4676
   3   2.0000     -11.180728      -304.2431
   4   2.0000      -1.396519       -38.0012
   5   2.0000      -1.081659       -29.4334
   6   2.0000      -0.877179       -23.8693
   7   2.0000      -0.753594       -20.5063
   8   2.0000      -0.691251       -18.8099
   9   2.0000      -0.614467       -16.7205
  10   2.0000      -0.598764       -16.2932
  11   2.0000      -0.547495       -14.8981
  12   2.0000      -0.487585       -13.2679
  13   2.0000      -0.410185       -11.1617
  14   2.0000      -0.391419       -10.6511
  15   0.0000       0.188481         5.1288
  16   0.0000       0.202929         5.5220
  17   0.0000       0.570014        15.5109
  18   0.0000       0.588342        16.0096
  19   0.0000       0.630091        17.1456

MULLIKEN ATOMIC CHARGES
-----------------------
   0 C :    0.155298
   1 O :   -0.343947
   2 C :   -0.177143
   3 C :   -0.222361
   4 H :    0.139869
   5 H :    0.158994
   6 H :    0.142299
   7 H :    0.146991
Sum of atomic charges:    0.0000000

LOEWDIN ATOMIC CHARGES
----------------------
   0 C :    0.140075
   1 O :   -0.254463
   2 C :   -0.131927
   3 C :   -0.134259
   4 H :    0.079533
   5 H :    0.108194
   6 H :    0.090011
   7 H :    0.102836

  Mayer bond orders larger than 0.100000
B(  0-C ,  1-O ) :   1.9271 B(  0-C ,  2-C ) :   1.0229 B(  0-C ,  4-H ) :   0.9160
B(  2-C ,  3-C ) :   1.9724 B(  2-C ,  5-H ) :   0.9460 B(  3-C ,  6-H ) :   0.9672
B(  3-C ,  7-H ) :   0.9618

-----------------------------------------------------------------------------
         ABSORPTION SPECTRUM VIA TRANSITION ELECTRIC DIPOLE MOMENTS
-----------------------------------------------------------------------------
State   Energy    Wavelength  fosc         T2        TX        TY        TZ
        (cm-1)      (nm)                 (au**2)    (au)      (au)      (au)
-----------------------------------------------------------------------------
   1   33443.2    299.0   0.000013065   0.00013   0.00780  -0.00592   0.00573

Dispersion correction           -0.025581717
FINAL SINGLE POINT ENERGY      -189.310550946180

DIPOLE MOMENT
-------------
                                X             Y             Z
Electronic contribution:     -2.33620      -1.08755       0.97987
Nuclear contribution   :      2.83127       1.76857      -1.57522
                        -----------------------------------------
Total Dipole Moment    :      0.49507       0.68102      -0.59535
                        -----------------------------------------
Magnitude (a.u.)       :      1.03118
Magnitude (Debye)      :      2.62105

Rotational constants in cm-1:     0.866537     0.187863     0.171549
Rotational constants in MHz : 25978.135210  5631.983135  5142.913531

                             ****ORCA TERMINATED NORMALLY****
TOTAL RUN TIME: 0 days 0 hours 0 minutes 11 seconds 327 msec
