                         Program Version 5.0.3 -  RELEASE  -
|  1> ! B3LYP cc-pVDZ
|  2> !TightSCF
|  3> %scf
|  4>  ConvForced true
|  5>  convergence tight
|  6>  MaxIter 500
|  7> end
|  8>
|  9> %tddft
| 10>  nroots 1
| 11> end
| 12>
| 13> # 	8751
| 14> * xyz 0 1
| 15> 		C   -1.167872  -0.305096  -0.015900
| 16> 		O   -1.757782  -0.937524   0.906878
| 17> 		C   -0.017748   0.536582   0.160478
| 18> 		C    1.194303   0.098162  -0.112158
| 19> 		H   -1.553529  -0.465249  -1.080722
| 20> 		H   -0.145617   1.425389   0.781287
| 21> 		H    1.292240  -0.939566  -0.673056
| 22> 		H    2.170832   0.683966  -0.009553
| 23> *
| 24>
| 25>                          ****END OF INPUT****

CARTESIAN COORDINATES (ANGSTROEM)
---------------------------------
  C     -1.167872   -0.305096   -0.015900
  O     -1.757782   -0.937524    0.906878
  C     -0.017748    0.536582    0.160478
  C      1.194303    0.098162   -0.112158
  H     -1.553529   -0.465249   -1.080722
  H     -0.145617    1.425389    0.781287
  H      1.292240   -0.939566   -0.673056
  H      2.170832    0.683966   -0.009553

 Total Charge           Charge          ....    0
 Multiplicity           Mult            ....    1
 Number of Electrons    NEL             ....   30
 Basis Dimension        Dim             ....   76

ORBITAL ENERGIES
----------------

  NO   OCC          E(Eh)            E(eV)
   0   2.0000     -19.144376      -520.9450
   1   2.0000     -10.285666      -279.8872
   2   2.0000     -10.222629      -278.1719
   3   2.0000     -10.208644      -277.7913
   4   2.0000      -1.022022       -27.8106
   5   2.0000      -0.809178       -22.0189
   6   2.0000      -0.651840       -17.7375
   7   2.0000      -0.558271       -15.1913
   8   2.0000      -0.485101       -13.2003
   9   2.0000      -0.464103       -12.6289
  10   2.0000      -0.433207       -11.7882
  11   2.0000      -0.378405       -10.2969
  12   2.0000      -0.360619        -9.8129
  13   2.0000      -0.293457        -7.9854
  14   2.0000      -0.256918        -6.9911
  15   0.0000      -0.056160        -1.5282
  16   0.0000      -0.003873        -0.1054
  17   0.0000       0.074365         2.0236
  18   0.0000       0.081355         2.2138
  19   0.0000       0.096852         2.6355

MULLIKEN ATOMIC CHARGES
-----------------------
   0 C :    0.155254
   1 O :   -0.221848
   2 C :   -0.030814
   3 C :   -0.029487
   4 H :    0.007322
   5 H :    0.026128
   6 H :    0.041260
   7 H :    0.052185
Sum of atomic charges:   -0.0000000

LOEWDIN ATOMIC CHARGES
----------------------
   0 C :    0.005793
   1 O :   -0.041480
   2 C :   -0.073661
   3 C :   -0.027292
   4 H :    0.005983
   5 H :    0.044480
   6 H :    0.042705
   7 H :    0.043473

  Mayer bond orders larger than 0.100000
B(  0-C ,  1-O ) :   2.1698 B(  0-C ,  2-C ) :   1.0133 B(  0-C ,  4-H ) :   0.9177
B(  2-C ,  3-C ) :   2.0076 B(  2-C ,  5-H ) :   0.9298 B(  3-C ,  6-H ) :   0.9399
B(  3-C ,  7-H ) :   0.9425

-----------------------------------------------------------------------------
         ABSORPTION SPECTRUM VIA TRANSITION ELECTRIC DIPOLE MOMENTS
-----------------------------------------------------------------------------
State   Energy    Wavelength  fosc         T2        TX        TY        TZ
        (cm-1)      (nm)                 (au**2)    (au)      (au)      (au)
-----------------------------------------------------------------------------
   1   29441.8    339.7   0.000519082   0.00580  -0.07287  -0.00063   0.02222

FINAL SINGLE POINT ENERGY      -191.650196744073

DIPOLE MOMENT
-------------
                                X             Y             Z
Electronic contribution:     -2.70369      -0.77011       1.26011
Nuclear contribution   :      3.39223       1.34128      -1.84258
                        -----------------------------------------
Total Dipole Moment    :      0.68854       0.57117      -0.58246
                        -----------------------------------------
Magnitude (a.u.)       :      1.06751
Magnitude (Debye)      :      2.71340

Rotational constants in cm-1:     1.026668     0.163558     0.159902
Rotational constants in MHz : 30778.734359  4903.359957  4793.738712

                             ****ORCA TERMINATED NORMALLY****
TOTAL RUN TIME: 0 days 0 hours 3 minutes 25 seconds 574 msec
