                         Program Version 5.0.3 -  RELEASE  -
|  1> ! B3LYP cc-pVDZ
|  2> !TightSCF
|  3> %scf
|  4>  ConvForced true
|  5>  convergence tight
|  6>  MaxIter 500
|  7> end
|  8>
|  9> %tddft
| 10>  nroots 1
| 11> end
| 12>
| 13> # 	19380
| 14> * xyz 0 1
| 15> 		C   -1.187674  -0.345484   0.039279
| 16> 		O   -1.300766  -1.675943  -0.058190
| 17> 		C    0.016023   0.484994  -0.031025
| 18> 		C    1.252491   0.025705  -0.040290
| 19> 		H   -2.238369   0.324910   0.173046
| 20> 		H   -0.247662   1.465630  -0.210340
| 21> 		H    1.462335  -0.872641   0.261987
| 22> 		H    2.247980   0.585453  -0.080481
| 23> *
| 24>
| 25>                          ****END OF INPUT****

CARTESIAN COORDINATES (ANGSTROEM)
---------------------------------
  C     -1.187674   -0.345484    0.039279
  O     -1.300766   -1.675943   -0.058190
  C      0.016023    0.484994   -0.031025
  C      1.252491    0.025705   -0.040290
  H     -2.238369    0.324910    0.173046
  H     -0.247662    1.465630   -0.210340
  H      1.462335   -0.872641    0.261987
  H      2.247980    0.585453   -0.080481

 Total Charge           Charge          ....    0
 Multiplicity           Mult            ....    1
 Number of Electrons    NEL             ....   30
 Basis Dimension        Dim             ....   76

ORBITAL ENERGIES
----------------

  NO   OCC          E(Eh)            E(eV)
   0   2.0000     -19.143745      -520.9278
   1   2.0000     -10.295320      -280.1499
   2   2.0000     -10.217521      -278.0329
   3   2.0000     -10.214074      -277.9391
   4   2.0000      -0.981384       -26.7048
   5   2.0000      -0.814440       -22.1620
   6   2.0000      -0.677899       -18.4466
   7   2.0000      -0.557204       -15.1623
   8   2.0000      -0.499164       -13.5829
   9   2.0000      -0.454829       -12.3765
  10   2.0000      -0.408324       -11.1111
  11   2.0000      -0.381219       -10.3735
  12   2.0000      -0.370164       -10.0727
  13   2.0000      -0.292699        -7.9648
  14   2.0000      -0.254963        -6.9379
  15   0.0000      -0.091130        -2.4798
  16   0.0000       0.042084         1.1452
  17   0.0000       0.050122         1.3639
  18   0.0000       0.085788         2.3344
  19   0.0000       0.119824         3.2606

MULLIKEN ATOMIC CHARGES
-----------------------
   0 C :    0.128215
   1 O :   -0.267954
   2 C :   -0.034632
   3 C :    0.137769
   4 H :    0.017338
   5 H :   -0.021210
   6 H :   -0.006548
   7 H :    0.047022
Sum of atomic charges:    0.0000000

LOEWDIN ATOMIC CHARGES
----------------------
   0 C :    0.028566
   1 O :   -0.113836
   2 C :   -0.067455
   3 C :    0.060903
   4 H :    0.017353
   5 H :    0.022575
   6 H :    0.001482
   7 H :    0.050412

  Mayer bond orders larger than 0.100000
B(  0-C ,  1-O ) :   2.0649 B(  0-C ,  2-C ) :   1.0901 B(  0-C ,  4-H ) :   0.8938
B(  1-O ,  3-C ) :   0.1064 B(  2-C ,  3-C ) :   1.9275 B(  2-C ,  5-H ) :   0.9480
B(  3-C ,  6-H ) :   0.9336 B(  3-C ,  7-H ) :   0.9520

-----------------------------------------------------------------------------
         ABSORPTION SPECTRUM VIA TRANSITION ELECTRIC DIPOLE MOMENTS
-----------------------------------------------------------------------------
State   Energy    Wavelength  fosc         T2        TX        TY        TZ
        (cm-1)      (nm)                 (au**2)    (au)      (au)      (au)
-----------------------------------------------------------------------------
   1   22798.2    438.6   0.000079258   0.00114   0.00753   0.00183  -0.03293

FINAL SINGLE POINT ENERGY      -191.653683927648

DIPOLE MOMENT
-------------
                                X             Y             Z
Electronic contribution:     -1.72008      -1.89311      -0.13494
Nuclear contribution   :      2.37967       2.95230       0.21309
                        -----------------------------------------
Total Dipole Moment    :      0.65959       1.05919       0.07815
                        -----------------------------------------
Magnitude (a.u.)       :      1.25022
Magnitude (Debye)      :      3.17781

Rotational constants in cm-1:     0.762748     0.186709     0.150584
Rotational constants in MHz : 22866.609812  5597.398637  4514.399061

                             ****ORCA TERMINATED NORMALLY****
TOTAL RUN TIME: 0 days 0 hours 3 minutes 27 seconds 973 msec
