                         Program Version 5.0.3 -  RELEASE  -
|  1> ! B3LYP cc-pVDZ
|  2> !TightSCF
|  3> %scf
|  4>  ConvForced true
|  5>  convergence tight
|  6>  MaxIter 500
|  7> end
|  8>
|  9> %tddft
| 10>  nroots 1
| 11> end
| 12>
| 13> # 	13232
| 14> * xyz 0 1
| 15> 		C   -1.195670  -0.298615   0.018480
| 16> 		O   -1.871701  -0.764739   0.900230
| 17> 		C    0.052979   0.497070   0.359053
| 18> 		C    1.194254   0.035996  -0.162209
| 19> 		H   -1.299052  -0.616902  -1.091933
| 20> 		H   -0.009474   1.254536   1.003713
| 21> 		H    1.202304  -0.697848  -0.899627
| 22> 		H    2.008794   0.549660  -0.118565
| 23> *
| 24>
| 25>                          ****END OF INPUT****

CARTESIAN COORDINATES (ANGSTROEM)
---------------------------------
  C     -1.195670   -0.298615    0.018480
  O     -1.871701   -0.764739    0.900230
  C      0.052979    0.497070    0.359053
  C      1.194254    0.035996   -0.162209
  H     -1.299052   -0.616902   -1.091933
  H     -0.009474    1.254536    1.003713
  H      1.202304   -0.697848   -0.899627
  H      2.008794    0.549660   -0.118565

 Total Charge           Charge          ....    0
 Multiplicity           Mult            ....    1
 Number of Electrons    NEL             ....   30
 Basis Dimension        Dim             ....   76

ORBITAL ENERGIES
----------------

  NO   OCC          E(Eh)            E(eV)
   0   2.0000     -19.145719      -520.9815
   1   2.0000     -10.284218      -279.8478
   2   2.0000     -10.200543      -277.5709
   3   2.0000     -10.189703      -277.2759
   4   2.0000      -1.054930       -28.7061
   5   2.0000      -0.802275       -21.8310
   6   2.0000      -0.649451       -17.6725
   7   2.0000      -0.578809       -15.7502
   8   2.0000      -0.489569       -13.3219
   9   2.0000      -0.470935       -12.8148
  10   2.0000      -0.437210       -11.8971
  11   2.0000      -0.403640       -10.9836
  12   2.0000      -0.388349       -10.5675
  13   2.0000      -0.288645        -7.8544
  14   2.0000      -0.255645        -6.9565
  15   0.0000      -0.052838        -1.4378
  16   0.0000       0.016647         0.4530
  17   0.0000       0.083355         2.2682
  18   0.0000       0.098809         2.6887
  19   0.0000       0.119315         3.2467

MULLIKEN ATOMIC CHARGES
-----------------------
   0 C :    0.143142
   1 O :   -0.175219
   2 C :   -0.032300
   3 C :    0.124498
   4 H :   -0.003118
   5 H :   -0.034886
   6 H :   -0.001535
   7 H :   -0.020582
Sum of atomic charges:   -0.0000000

LOEWDIN ATOMIC CHARGES
----------------------
   0 C :   -0.025539
   1 O :    0.013070
   2 C :   -0.016077
   3 C :    0.012256
   4 H :   -0.000881
   5 H :    0.004239
   6 H :    0.018493
   7 H :   -0.005561

  Mayer bond orders larger than 0.100000
B(  0-C ,  1-O ) :   2.2009 B(  0-C ,  2-C ) :   1.0038 B(  0-C ,  4-H ) :   0.9012
B(  2-C ,  3-C ) :   2.0037 B(  2-C ,  5-H ) :   0.9568 B(  3-C ,  6-H ) :   0.9491
B(  3-C ,  7-H ) :   0.9459

-----------------------------------------------------------------------------
         ABSORPTION SPECTRUM VIA TRANSITION ELECTRIC DIPOLE MOMENTS
-----------------------------------------------------------------------------
State   Energy    Wavelength  fosc         T2        TX        TY        TZ
        (cm-1)      (nm)                 (au**2)    (au)      (au)      (au)
-----------------------------------------------------------------------------
   1   31187.6    320.6   0.001504859   0.01589   0.10295  -0.01393  -0.07137

FINAL SINGLE POINT ENERGY      -191.630852688328

DIPOLE MOMENT
-------------
                                X             Y             Z
Electronic contribution:     -2.92958      -0.60938       1.52384
Nuclear contribution   :      3.59910       1.04768      -2.09141
                        -----------------------------------------
Total Dipole Moment    :      0.66951       0.43830      -0.56757
                        -----------------------------------------
Magnitude (a.u.)       :      0.98107
Magnitude (Debye)      :      2.49368

Rotational constants in cm-1:     1.148992     0.164785     0.156474
Rotational constants in MHz : 34445.913587  4940.117006  4690.983407

                             ****ORCA TERMINATED NORMALLY****
TOTAL RUN TIME: 0 days 0 hours 2 minutes 54 seconds 998 msec
