                         Program Version 5.0.3 -  RELEASE  -
|  1> ! B3LYP cc-pVDZ
|  2> !TightSCF
|  3> %scf
|  4>  ConvForced true
|  5>  convergence tight
|  6>  MaxIter 500
|  7> end
|  8>
|  9> %tddft
| 10>  nroots 1
| 11> end
| 12>
| 13> # 	30549
| 14> * xyz 0 1
| 15> 		C   -0.580208  -0.447396   0.027881
| 16> 		O   -0.607268  -1.645523  -0.018051
| 17> 		C    0.614902   0.408081  -0.045309
| 18> 		C    1.870362  -0.117662   0.024354
| 19> 		H   -1.510191   0.232648   0.200212
| 20> 		H    0.484551   1.504589  -0.065383
| 21> 		H    2.215863  -1.039283   0.010709
| 22> 		H    2.712592   0.579944   0.055071
| 23> *
| 24>
| 25>                          ****END OF INPUT****

CARTESIAN COORDINATES (ANGSTROEM)
---------------------------------
  C     -0.580208   -0.447396    0.027881
  O     -0.607268   -1.645523   -0.018051
  C      0.614902    0.408081   -0.045309
  C      1.870362   -0.117662    0.024354
  H     -1.510191    0.232648    0.200212
  H      0.484551    1.504589   -0.065383
  H      2.215863   -1.039283    0.010709
  H      2.712592    0.579944    0.055071

 Total Charge           Charge          ....    0
 Multiplicity           Mult            ....    1
 Number of Electrons    NEL             ....   30
 Basis Dimension        Dim             ....   76

ORBITAL ENERGIES
----------------

  NO   OCC          E(Eh)            E(eV)
   0   2.0000     -19.141172      -520.8578
   1   2.0000     -10.277660      -279.6693
   2   2.0000     -10.210801      -277.8500
   3   2.0000     -10.210174      -277.8330
   4   2.0000      -1.052810       -28.6484
   5   2.0000      -0.793730       -21.5985
   6   2.0000      -0.666753       -18.1433
   7   2.0000      -0.552047       -15.0220
   8   2.0000      -0.500893       -13.6300
   9   2.0000      -0.456627       -12.4255
  10   2.0000      -0.418998       -11.4015
  11   2.0000      -0.400565       -10.8999
  12   2.0000      -0.390260       -10.6195
  13   2.0000      -0.287095        -7.8123
  14   2.0000      -0.255541        -6.9536
  15   0.0000      -0.073193        -1.9917
  16   0.0000       0.056709         1.5431
  17   0.0000       0.065819         1.7910
  18   0.0000       0.094635         2.5751
  19   0.0000       0.121861         3.3160

MULLIKEN ATOMIC CHARGES
-----------------------
   0 C :    0.178182
   1 O :   -0.175068
   2 C :   -0.125952
   3 C :    0.127514
   4 H :   -0.027257
   5 H :    0.005623
   6 H :   -0.008814
   7 H :    0.025771
Sum of atomic charges:   -0.0000000

LOEWDIN ATOMIC CHARGES
----------------------
   0 C :   -0.053072
   1 O :    0.009813
   2 C :   -0.076308
   3 C :    0.057785
   4 H :   -0.009053
   5 H :    0.035369
   6 H :   -0.000418
   7 H :    0.035884

  Mayer bond orders larger than 0.100000
B(  0-C ,  1-O ) :   2.2218 B(  0-C ,  2-C ) :   1.0579 B(  0-C ,  4-H ) :   0.8974
B(  2-C ,  3-C ) :   1.9491 B(  2-C ,  5-H ) :   0.9381 B(  3-C ,  6-H ) :   0.9608
B(  3-C ,  7-H ) :   0.9495

-----------------------------------------------------------------------------
         ABSORPTION SPECTRUM VIA TRANSITION ELECTRIC DIPOLE MOMENTS
-----------------------------------------------------------------------------
State   Energy    Wavelength  fosc         T2        TX        TY        TZ
        (cm-1)      (nm)                 (au**2)    (au)      (au)      (au)
-----------------------------------------------------------------------------
   1   27598.3    362.3   0.000145716   0.00174   0.03413   0.00586   0.02322

FINAL SINGLE POINT ENERGY      -191.667524859206

DIPOLE MOMENT
-------------
                                X             Y             Z
Electronic contribution:     -1.97562      -2.12303      -0.15156
Nuclear contribution   :      2.50343       2.98385       0.18817
                        -----------------------------------------
Total Dipole Moment    :      0.52781       0.86082       0.03661
                        -----------------------------------------
Magnitude (a.u.)       :      1.01041
Magnitude (Debye)      :      2.56825

Rotational constants in cm-1:     0.767537     0.202762     0.160679
Rotational constants in MHz : 23010.178741  6078.662342  4817.044297

                             ****ORCA TERMINATED NORMALLY****
TOTAL RUN TIME: 0 days 0 hours 3 minutes 19 seconds 271 msec
