                         Program Version 5.0.3 -  RELEASE  -
|  1> ! HF-3c
|  2> !TightSCF
|  3> %scf
|  4>  ConvForced true
|  5>  convergence tight
|  6>  MaxIter 500
|  7> end
|  8>
|  9> %tddft
| 10>  nroots 1
| 11> end
| 12>
| 13> # 	2357
| 14> * xyz 0 1
| 15> 		C   -1.224389  -0.317836   0.063431
| 16> 		O   -2.035837  -0.581870   0.918060
| 17> 		C    0.073170   0.373664   0.307056
| 18> 		C    1.210915   0.096570  -0.263336
| 19> 		H   -1.247639  -0.909096  -1.028807
| 20> 		H   -0.053746   1.286436   1.072081
| 21> 		H    1.192410  -0.668348  -0.937340
| 22> 		H    2.137514   0.678282  -0.146313
| 23> *
| 24>
| 25>                          ****END OF INPUT****

CARTESIAN COORDINATES (ANGSTROEM)
---------------------------------
  C     -1.224389   -0.317836    0.063431
  O     -2.035837   -0.581870    0.918060
  C      0.073170    0.373664    0.307056
  C      1.210915    0.096570   -0.263336
  H     -1.247639   -0.909096   -1.028807
  H     -0.053746    1.286436    1.072081
  H      1.192410   -0.668348   -0.937340
  H      2.137514    0.678282   -0.146313

 Total Charge           Charge          ....    0
 Multiplicity           Mult            ....    1
 Number of Electrons    NEL             ....   30
 Basis Dimension        Dim             ....   24

ORBITAL ENERGIES
----------------

  NO   OCC          E(Eh)            E(eV)
   0   2.0000     -20.376043      -554.4603
   1   2.0000     -11.298356      -307.4439
   2   2.0000     -11.195120      -304.6347
   3   2.0000     -11.190439      -304.5073
   4   2.0000      -1.407015       -38.2868
   5   2.0000      -1.090085       -29.6627
   6   2.0000      -0.876269       -23.8445
   7   2.0000      -0.750680       -20.4270
   8   2.0000      -0.661233       -17.9931
   9   2.0000      -0.652623       -17.7588
  10   2.0000      -0.586041       -15.9470
  11   2.0000      -0.546145       -14.8614
  12   2.0000      -0.517498       -14.0818
  13   2.0000      -0.408237       -11.1087
  14   2.0000      -0.399713       -10.8767
  15   0.0000       0.140143         3.8135
  16   0.0000       0.292235         7.9521
  17   0.0000       0.497349        13.5336
  18   0.0000       0.529307        14.4032
  19   0.0000       0.622153        16.9297

MULLIKEN ATOMIC CHARGES
-----------------------
   0 C :    0.184157
   1 O :   -0.349536
   2 C :   -0.146531
   3 C :   -0.261467
   4 H :    0.127871
   5 H :    0.152147
   6 H :    0.138137
   7 H :    0.155223
Sum of atomic charges:   -0.0000000

LOEWDIN ATOMIC CHARGES
----------------------
   0 C :    0.150504
   1 O :   -0.250815
   2 C :   -0.108668
   3 C :   -0.162180
   4 H :    0.075824
   5 H :    0.106278
   6 H :    0.084447
   7 H :    0.104610

  Mayer bond orders larger than 0.100000
B(  0-C ,  1-O ) :   1.9300 B(  0-C ,  2-C ) :   1.0044 B(  0-C ,  4-H ) :   0.9032
B(  2-C ,  3-C ) :   1.9774 B(  2-C ,  5-H ) :   0.9461 B(  3-C ,  6-H ) :   0.9633
B(  3-C ,  7-H ) :   0.9596

-----------------------------------------------------------------------------
         ABSORPTION SPECTRUM VIA TRANSITION ELECTRIC DIPOLE MOMENTS
-----------------------------------------------------------------------------
State   Energy    Wavelength  fosc         T2        TX        TY        TZ
        (cm-1)      (nm)                 (au**2)    (au)      (au)      (au)
-----------------------------------------------------------------------------
   1   32589.2    306.9   0.000483535   0.00488   0.03306   0.04326   0.04382

Dispersion correction           -0.025212814
FINAL SINGLE POINT ENERGY      -189.316457657239

DIPOLE MOMENT
-------------
                                X             Y             Z
Electronic contribution:     -3.07501      -0.55394       1.32454
Nuclear contribution   :      3.87622       0.83107      -1.96553
                        -----------------------------------------
Total Dipole Moment    :      0.80121       0.27713      -0.64099
                        -----------------------------------------
Magnitude (a.u.)       :      1.06283
Magnitude (Debye)      :      2.70150

Rotational constants in cm-1:     1.419581     0.153953     0.143686
Rotational constants in MHz : 42557.973906  4615.401373  4307.604532

                             ****ORCA TERMINATED NORMALLY****
TOTAL RUN TIME: 0 days 0 hours 0 minutes 10 seconds 171 msec
