                         Program Version 5.0.3 -  RELEASE  -
|  1> ! B3LYP cc-pVDZ
|  2> !TightSCF
|  3> %scf
|  4>  ConvForced true
|  5>  convergence tight
|  6>  MaxIter 500
|  7> end
|  8>
|  9> %tddft
| 10>  nroots 1
| 11> end
| 12>
| 13> # 	19205
| 14> * xyz 0 1
| 15> 		C   -1.193130  -0.310460   0.037384
| 16> 		O   -1.438853  -1.307974  -0.663661
| 17> 		C   -0.023179   0.467390  -0.181866
| 18> 		C    1.213112   0.022626   0.091833
| 19> 		H   -1.945943  -0.114628   0.773107
| 20> 		H   -0.077706   1.626832  -0.594828
| 21> 		H    1.247152  -1.097865   0.541687
| 22> 		H    2.137075   0.656505   0.034566
| 23> *
| 24>
| 25>                          ****END OF INPUT****

CARTESIAN COORDINATES (ANGSTROEM)
---------------------------------
  C     -1.193130   -0.310460    0.037384
  O     -1.438853   -1.307974   -0.663661
  C     -0.023179    0.467390   -0.181866
  C      1.213112    0.022626    0.091833
  H     -1.945943   -0.114628    0.773107
  H     -0.077706    1.626832   -0.594828
  H      1.247152   -1.097865    0.541687
  H      2.137075    0.656505    0.034566

 Total Charge           Charge          ....    0
 Multiplicity           Mult            ....    1
 Number of Electrons    NEL             ....   30
 Basis Dimension        Dim             ....   76

ORBITAL ENERGIES
----------------

  NO   OCC          E(Eh)            E(eV)
   0   2.0000     -19.137225      -520.7504
   1   2.0000     -10.275382      -279.6073
   2   2.0000     -10.222258      -278.1618
   3   2.0000     -10.218611      -278.0626
   4   2.0000      -1.031905       -28.0796
   5   2.0000      -0.796155       -21.6645
   6   2.0000      -0.655752       -17.8439
   7   2.0000      -0.547729       -14.9045
   8   2.0000      -0.496827       -13.5194
   9   2.0000      -0.451806       -12.2943
  10   2.0000      -0.431747       -11.7484
  11   2.0000      -0.377290       -10.2666
  12   2.0000      -0.355438        -9.6720
  13   2.0000      -0.289695        -7.8830
  14   2.0000      -0.252307        -6.8656
  15   0.0000      -0.049526        -1.3477
  16   0.0000      -0.007476        -0.2034
  17   0.0000       0.064364         1.7514
  18   0.0000       0.075129         2.0444
  19   0.0000       0.104193         2.8352

MULLIKEN ATOMIC CHARGES
-----------------------
   0 C :    0.194733
   1 O :   -0.216704
   2 C :   -0.096802
   3 C :   -0.016874
   4 H :   -0.009347
   5 H :    0.046877
   6 H :    0.050994
   7 H :    0.047123
Sum of atomic charges:    0.0000000

LOEWDIN ATOMIC CHARGES
----------------------
   0 C :   -0.012756
   1 O :   -0.024826
   2 C :   -0.079114
   3 C :   -0.030882
   4 H :   -0.000774
   5 H :    0.060282
   6 H :    0.049403
   7 H :    0.038667

  Mayer bond orders larger than 0.100000
B(  0-C ,  1-O ) :   2.1696 B(  0-C ,  2-C ) :   1.0110 B(  0-C ,  4-H ) :   0.9450
B(  2-C ,  3-C ) :   2.0048 B(  2-C ,  5-H ) :   0.9152 B(  3-C ,  6-H ) :   0.9351
B(  3-C ,  7-H ) :   0.9396

-----------------------------------------------------------------------------
         ABSORPTION SPECTRUM VIA TRANSITION ELECTRIC DIPOLE MOMENTS
-----------------------------------------------------------------------------
State   Energy    Wavelength  fosc         T2        TX        TY        TZ
        (cm-1)      (nm)                 (au**2)    (au)      (au)      (au)
-----------------------------------------------------------------------------
   1   29749.5    336.1   0.000156233   0.00173  -0.03581   0.01862  -0.00999

FINAL SINGLE POINT ENERGY      -191.638761208951

DIPOLE MOMENT
-------------
                                X             Y             Z
Electronic contribution:     -2.29381      -1.35596      -0.89691
Nuclear contribution   :      2.71256       2.17408       1.40298
                        -----------------------------------------
Total Dipole Moment    :      0.41874       0.81812       0.50607
                        -----------------------------------------
Magnitude (a.u.)       :      1.04917
Magnitude (Debye)      :      2.66679

Rotational constants in cm-1:     0.848004     0.185976     0.165239
Rotational constants in MHz : 25422.512633  5575.433567  4953.747018

                             ****ORCA TERMINATED NORMALLY****
TOTAL RUN TIME: 0 days 0 hours 3 minutes 22 seconds 814 msec
