                         Program Version 5.0.3 -  RELEASE  -
|  1> ! B3LYP cc-pVDZ
|  2> !TightSCF
|  3> %scf
|  4>  ConvForced true
|  5>  convergence tight
|  6>  MaxIter 500
|  7> end
|  8>
|  9> %tddft
| 10>  nroots 1
| 11> end
| 12>
| 13> # 	20017
| 14> * xyz 0 1
| 15> 		C   -0.584720  -0.448136  -0.000435
| 16> 		O   -0.577603  -1.629690  -0.001599
| 17> 		C    0.625065   0.412057  -0.011959
| 18> 		C    1.850442  -0.129067   0.007299
| 19> 		H   -1.501523   0.272194   0.078223
| 20> 		H    0.549984   1.530473  -0.002065
| 21> 		H    1.994801  -1.272830  -0.010698
| 22> 		H    2.578692   0.579980   0.020623
| 23> *
| 24>
| 25>                          ****END OF INPUT****

CARTESIAN COORDINATES (ANGSTROEM)
---------------------------------
  C     -0.584720   -0.448136   -0.000435
  O     -0.577603   -1.629690   -0.001599
  C      0.625065    0.412057   -0.011959
  C      1.850442   -0.129067    0.007299
  H     -1.501523    0.272194    0.078223
  H      0.549984    1.530473   -0.002065
  H      1.994801   -1.272830   -0.010698
  H      2.578692    0.579980    0.020623

 Total Charge           Charge          ....    0
 Multiplicity           Mult            ....    1
 Number of Electrons    NEL             ....   30
 Basis Dimension        Dim             ....   76

ORBITAL ENERGIES
----------------

  NO   OCC          E(Eh)            E(eV)
   0   2.0000     -19.145139      -520.9657
   1   2.0000     -10.278735      -279.6986
   2   2.0000     -10.208624      -277.7908
   3   2.0000     -10.201280      -277.5909
   4   2.0000      -1.066482       -29.0204
   5   2.0000      -0.795046       -21.6343
   6   2.0000      -0.655715       -17.8429
   7   2.0000      -0.527741       -14.3606
   8   2.0000      -0.511236       -13.9114
   9   2.0000      -0.452328       -12.3085
  10   2.0000      -0.416843       -11.3429
  11   2.0000      -0.409542       -11.1442
  12   2.0000      -0.386804       -10.5255
  13   2.0000      -0.288475        -7.8498
  14   2.0000      -0.257450        -7.0056
  15   0.0000      -0.066369        -1.8060
  16   0.0000       0.064372         1.7517
  17   0.0000       0.067935         1.8486
  18   0.0000       0.084478         2.2988
  19   0.0000       0.117492         3.1971

MULLIKEN ATOMIC CHARGES
-----------------------
   0 C :    0.179693
   1 O :   -0.160462
   2 C :   -0.158689
   3 C :    0.106677
   4 H :   -0.026088
   5 H :    0.000207
   6 H :    0.056033
   7 H :    0.002630
Sum of atomic charges:    0.0000000

LOEWDIN ATOMIC CHARGES
----------------------
   0 C :   -0.059231
   1 O :    0.030184
   2 C :   -0.089356
   3 C :    0.030580
   4 H :   -0.009658
   5 H :    0.034531
   6 H :    0.050728
   7 H :    0.012222

  Mayer bond orders larger than 0.100000
B(  0-C ,  1-O ) :   2.2345 B(  0-C ,  2-C ) :   1.0405 B(  0-C ,  4-H ) :   0.8965
B(  2-C ,  3-C ) :   1.9747 B(  2-C ,  5-H ) :   0.9402 B(  3-C ,  6-H ) :   0.9346
B(  3-C ,  7-H ) :   0.9297

-----------------------------------------------------------------------------
         ABSORPTION SPECTRUM VIA TRANSITION ELECTRIC DIPOLE MOMENTS
-----------------------------------------------------------------------------
State   Energy    Wavelength  fosc         T2        TX        TY        TZ
        (cm-1)      (nm)                 (au**2)    (au)      (au)      (au)
-----------------------------------------------------------------------------
   1   29306.9    341.2   0.000156324   0.00176   0.00858   0.00489   0.04072

FINAL SINGLE POINT ENERGY      -191.661169249231

DIPOLE MOMENT
-------------
                                X             Y             Z
Electronic contribution:     -1.80921      -2.00165      -0.07462
Nuclear contribution   :      2.23902       2.82735       0.08074
                        -----------------------------------------
Total Dipole Moment    :      0.42981       0.82570       0.00611
                        -----------------------------------------
Magnitude (a.u.)       :      0.93089
Magnitude (Debye)      :      2.36613

Rotational constants in cm-1:     0.761091     0.211238     0.165376
Rotational constants in MHz : 22816.922281  6332.752190  4957.850689

                             ****ORCA TERMINATED NORMALLY****
TOTAL RUN TIME: 0 days 0 hours 3 minutes 21 seconds 580 msec
