                         Program Version 5.0.3 -  RELEASE  -
|  1> ! B3LYP cc-pVDZ
|  2> !TightSCF
|  3> %scf
|  4>  ConvForced true
|  5>  convergence tight
|  6>  MaxIter 500
|  7> end
|  8>
|  9> %tddft
| 10>  nroots 1
| 11> end
| 12>
| 13> # 	29909
| 14> * xyz 0 1
| 15> 		C   -0.577519  -0.455668  -0.050513
| 16> 		O   -0.631646  -1.656483   0.039368
| 17> 		C    0.628390   0.412721  -0.023796
| 18> 		C    1.905727  -0.082797  -0.021321
| 19> 		H   -1.465627   0.117959  -0.007601
| 20> 		H    0.543739   1.327557   0.411844
| 21> 		H    1.935749  -1.039479  -0.093812
| 22> 		H    2.650363   0.603694   0.236825
| 23> *
| 24>
| 25>                          ****END OF INPUT****

CARTESIAN COORDINATES (ANGSTROEM)
---------------------------------
  C     -0.577519   -0.455668   -0.050513
  O     -0.631646   -1.656483    0.039368
  C      0.628390    0.412721   -0.023796
  C      1.905727   -0.082797   -0.021321
  H     -1.465627    0.117959   -0.007601
  H      0.543739    1.327557    0.411844
  H      1.935749   -1.039479   -0.093812
  H      2.650363    0.603694    0.236825

 Total Charge           Charge          ....    0
 Multiplicity           Mult            ....    1
 Number of Electrons    NEL             ....   30
 Basis Dimension        Dim             ....   76

ORBITAL ENERGIES
----------------

  NO   OCC          E(Eh)            E(eV)
   0   2.0000     -19.139641      -520.8161
   1   2.0000     -10.270381      -279.4713
   2   2.0000     -10.200578      -277.5718
   3   2.0000     -10.196463      -277.4599
   4   2.0000      -1.049013       -28.5451
   5   2.0000      -0.800203       -21.7746
   6   2.0000      -0.669256       -18.2114
   7   2.0000      -0.558075       -15.1860
   8   2.0000      -0.521881       -14.2011
   9   2.0000      -0.449379       -12.2282
  10   2.0000      -0.426194       -11.5973
  11   2.0000      -0.407970       -11.1014
  12   2.0000      -0.388319       -10.5667
  13   2.0000      -0.284460        -7.7406
  14   2.0000      -0.255283        -6.9466
  15   0.0000      -0.073567        -2.0019
  16   0.0000       0.046091         1.2542
  17   0.0000       0.074599         2.0299
  18   0.0000       0.107328         2.9206
  19   0.0000       0.140692         3.8284

MULLIKEN ATOMIC CHARGES
-----------------------
   0 C :    0.206799
   1 O :   -0.188302
   2 C :   -0.138672
   3 C :    0.188814
   4 H :   -0.032626
   5 H :   -0.023233
   6 H :   -0.029829
   7 H :    0.017049
Sum of atomic charges:   -0.0000000

LOEWDIN ATOMIC CHARGES
----------------------
   0 C :   -0.032769
   1 O :    0.003898
   2 C :   -0.060492
   3 C :    0.074901
   4 H :   -0.013684
   5 H :    0.011502
   6 H :   -0.010558
   7 H :    0.027203

  Mayer bond orders larger than 0.100000
B(  0-C ,  1-O ) :   2.1991 B(  0-C ,  2-C ) :   1.0571 B(  0-C ,  4-H ) :   0.9233
B(  2-C ,  3-C ) :   1.9648 B(  2-C ,  5-H ) :   0.9466 B(  3-C ,  6-H ) :   0.9396
B(  3-C ,  7-H ) :   0.9463

-----------------------------------------------------------------------------
         ABSORPTION SPECTRUM VIA TRANSITION ELECTRIC DIPOLE MOMENTS
-----------------------------------------------------------------------------
State   Energy    Wavelength  fosc         T2        TX        TY        TZ
        (cm-1)      (nm)                 (au**2)    (au)      (au)      (au)
-----------------------------------------------------------------------------
   1   27418.9    364.7   0.000529632   0.00636   0.07150   0.02997   0.01866

FINAL SINGLE POINT ENERGY      -191.646564596587

DIPOLE MOMENT
-------------
                                X             Y             Z
Electronic contribution:     -1.86337      -1.84436      -0.41265
Nuclear contribution   :      2.28000       2.73684       0.51180
                        -----------------------------------------
Total Dipole Moment    :      0.41663       0.89248       0.09914
                        -----------------------------------------
Magnitude (a.u.)       :      0.98991
Magnitude (Debye)      :      2.51616

Rotational constants in cm-1:     0.823878     0.196512     0.159580
Rotational constants in MHz : 24699.242365  5891.275111  4784.084914

                             ****ORCA TERMINATED NORMALLY****
TOTAL RUN TIME: 0 days 0 hours 3 minutes 27 seconds 648 msec
