                         Program Version 5.0.3 -  RELEASE  -
|  1> ! HF-3c
|  2> !TightSCF
|  3> %scf
|  4>  ConvForced true
|  5>  convergence tight
|  6>  MaxIter 500
|  7> end
|  8>
|  9> %tddft
| 10>  nroots 1
| 11> end
| 12>
| 13> # 	22180
| 14> * xyz 0 1
| 15> 		C   -0.559243  -0.402950  -0.071490
| 16> 		O   -0.594617  -1.645142   0.041506
| 17> 		C    0.676664   0.386267   0.034150
| 18> 		C    1.818444  -0.122385  -0.037381
| 19> 		H   -1.514890   0.129783  -0.123966
| 20> 		H    0.464406   1.380765   0.331039
| 21> 		H    1.816571  -1.124075   0.022127
| 22> 		H    2.572791   0.623402   0.020094
| 23> *
| 24>
| 25>                          ****END OF INPUT****

CARTESIAN COORDINATES (ANGSTROEM)
---------------------------------
  C     -0.559243   -0.402950   -0.071490
  O     -0.594617   -1.645142    0.041506
  C      0.676664    0.386267    0.034150
  C      1.818444   -0.122385   -0.037381
  H     -1.514890    0.129783   -0.123966
  H      0.464406    1.380765    0.331039
  H      1.816571   -1.124075    0.022127
  H      2.572791    0.623402    0.020094

 Total Charge           Charge          ....    0
 Multiplicity           Mult            ....    1
 Number of Electrons    NEL             ....   30
 Basis Dimension        Dim             ....   24

ORBITAL ENERGIES
----------------

  NO   OCC          E(Eh)            E(eV)
   0   2.0000     -20.357392      -553.9528
   1   2.0000     -11.285251      -307.0873
   2   2.0000     -11.199336      -304.7494
   3   2.0000     -11.198853      -304.7363
   4   2.0000      -1.378098       -37.5000
   5   2.0000      -1.123853       -30.5816
   6   2.0000      -0.907830       -24.7033
   7   2.0000      -0.753900       -20.5147
   8   2.0000      -0.729000       -19.8371
   9   2.0000      -0.624237       -16.9863
  10   2.0000      -0.602717       -16.4008
  11   2.0000      -0.555739       -15.1224
  12   2.0000      -0.522318       -14.2130
  13   2.0000      -0.423883       -11.5344
  14   2.0000      -0.409577       -11.1452
  15   0.0000       0.130686         3.5562
  16   0.0000       0.306767         8.3475
  17   0.0000       0.575736        15.6666
  18   0.0000       0.632056        17.1991
  19   0.0000       0.698895        19.0179

MULLIKEN ATOMIC CHARGES
-----------------------
   0 C :    0.153122
   1 O :   -0.344131
   2 C :   -0.169131
   3 C :   -0.263129
   4 H :    0.139584
   5 H :    0.144536
   6 H :    0.174877
   7 H :    0.164272
Sum of atomic charges:    0.0000000

LOEWDIN ATOMIC CHARGES
----------------------
   0 C :    0.142368
   1 O :   -0.260554
   2 C :   -0.117729
   3 C :   -0.149630
   4 H :    0.076278
   5 H :    0.089024
   6 H :    0.110878
   7 H :    0.109366

  Mayer bond orders larger than 0.100000
B(  0-C ,  1-O ) :   1.9079 B(  0-C ,  2-C ) :   1.0210 B(  0-C ,  4-H ) :   0.9339
B(  2-C ,  3-C ) :   1.9641 B(  2-C ,  5-H ) :   0.9566 B(  3-C ,  6-H ) :   0.9520
B(  3-C ,  7-H ) :   0.9563

-----------------------------------------------------------------------------
         ABSORPTION SPECTRUM VIA TRANSITION ELECTRIC DIPOLE MOMENTS
-----------------------------------------------------------------------------
State   Energy    Wavelength  fosc         T2        TX        TY        TZ
        (cm-1)      (nm)                 (au**2)    (au)      (au)      (au)
-----------------------------------------------------------------------------
   1   30383.8    329.1   0.000013792   0.00015   0.00218  -0.00412  -0.01130

Dispersion correction           -0.026709862
FINAL SINGLE POINT ENERGY      -189.323710667102

DIPOLE MOMENT
-------------
                                X             Y             Z
Electronic contribution:     -1.75387      -1.74835      -0.21211
Nuclear contribution   :      1.97428       2.73569       0.23329
                        -----------------------------------------
Total Dipole Moment    :      0.22040       0.98734       0.02119
                        -----------------------------------------
Magnitude (a.u.)       :      1.01186
Magnitude (Debye)      :      2.57195

Rotational constants in cm-1:     0.821392     0.211351     0.168928
Rotational constants in MHz : 24624.707771  6336.157136  5064.336892

                             ****ORCA TERMINATED NORMALLY****
TOTAL RUN TIME: 0 days 0 hours 0 minutes 12 seconds 261 msec
