                         Program Version 5.0.3 -  RELEASE  -
|  1> ! HF-3c
|  2> !TightSCF
|  3> %scf
|  4>  ConvForced true
|  5>  convergence tight
|  6>  MaxIter 500
|  7> end
|  8>
|  9> %tddft
| 10>  nroots 1
| 11> end
| 12>
| 13> # 	23215
| 14> * xyz 0 1
| 15> 		C   -0.573960  -0.450793   0.035594
| 16> 		O   -0.592715  -1.606252  -0.016823
| 17> 		C    0.612613   0.359401  -0.079206
| 18> 		C    1.844710  -0.096196   0.054687
| 19> 		H   -1.651016   0.018579   0.167991
| 20> 		H    0.806296   1.613317   0.101428
| 21> 		H    2.071294  -1.199311  -0.067469
| 22> 		H    2.749546   0.540396  -0.068204
| 23> *
| 24>
| 25>                          ****END OF INPUT****

CARTESIAN COORDINATES (ANGSTROEM)
---------------------------------
  C     -0.573960   -0.450793    0.035594
  O     -0.592715   -1.606252   -0.016823
  C      0.612613    0.359401   -0.079206
  C      1.844710   -0.096196    0.054687
  H     -1.651016    0.018579    0.167991
  H      0.806296    1.613317    0.101428
  H      2.071294   -1.199311   -0.067469
  H      2.749546    0.540396   -0.068204

 Total Charge           Charge          ....    0
 Multiplicity           Mult            ....    1
 Number of Electrons    NEL             ....   30
 Basis Dimension        Dim             ....   24

ORBITAL ENERGIES
----------------

  NO   OCC          E(Eh)            E(eV)
   0   2.0000     -20.374504      -554.4184
   1   2.0000     -11.311075      -307.7900
   2   2.0000     -11.181720      -304.2701
   3   2.0000     -11.180182      -304.2282
   4   2.0000      -1.443493       -39.2795
   5   2.0000      -1.074434       -29.2368
   6   2.0000      -0.876319       -23.8458
   7   2.0000      -0.732998       -19.9459
   8   2.0000      -0.692780       -18.8515
   9   2.0000      -0.613130       -16.6841
  10   2.0000      -0.589736       -16.0475
  11   2.0000      -0.565722       -15.3941
  12   2.0000      -0.471880       -12.8405
  13   2.0000      -0.406174       -11.0525
  14   2.0000      -0.394195       -10.7266
  15   0.0000       0.139991         3.8093
  16   0.0000       0.328997         8.9525
  17   0.0000       0.435635        11.8542
  18   0.0000       0.538131        14.6433
  19   0.0000       0.641271        17.4499

MULLIKEN ATOMIC CHARGES
-----------------------
   0 C :    0.177166
   1 O :   -0.363097
   2 C :   -0.174713
   3 C :   -0.207530
   4 H :    0.133400
   5 H :    0.153608
   6 H :    0.143199
   7 H :    0.137966
Sum of atomic charges:    0.0000000

LOEWDIN ATOMIC CHARGES
----------------------
   0 C :    0.141780
   1 O :   -0.251900
   2 C :   -0.148404
   3 C :   -0.115242
   4 H :    0.074042
   5 H :    0.116361
   6 H :    0.093497
   7 H :    0.089867

  Mayer bond orders larger than 0.100000
B(  0-C ,  1-O ) :   1.9041 B(  0-C ,  2-C ) :   1.0299 B(  0-C ,  4-H ) :   0.9122
B(  2-C ,  3-C ) :   1.9419 B(  2-C ,  5-H ) :   0.9441 B(  3-C ,  6-H ) :   0.9572
B(  3-C ,  7-H ) :   0.9647

-----------------------------------------------------------------------------
         ABSORPTION SPECTRUM VIA TRANSITION ELECTRIC DIPOLE MOMENTS
-----------------------------------------------------------------------------
State   Energy    Wavelength  fosc         T2        TX        TY        TZ
        (cm-1)      (nm)                 (au**2)    (au)      (au)      (au)
-----------------------------------------------------------------------------
   1   34789.2    287.4   0.000545410   0.00516   0.06798   0.00482   0.02273

Dispersion correction           -0.025413540
FINAL SINGLE POINT ENERGY      -189.272958538692

DIPOLE MOMENT
-------------
                                X             Y             Z
Electronic contribution:     -2.18387      -1.73104      -0.05525
Nuclear contribution   :      2.56932       2.70151       0.12532
                        -----------------------------------------
Total Dipole Moment    :      0.38545       0.97047       0.07006
                        -----------------------------------------
Magnitude (a.u.)       :      1.04656
Magnitude (Debye)      :      2.66014

Rotational constants in cm-1:     0.831058     0.205805     0.165535
Rotational constants in MHz : 24914.496381  6169.888655  4962.626603

                             ****ORCA TERMINATED NORMALLY****
TOTAL RUN TIME: 0 days 0 hours 0 minutes 11 seconds 994 msec
