                         Program Version 5.0.3 -  RELEASE  -
|  1> ! B3LYP cc-pVDZ
|  2> !TightSCF
|  3> %scf
|  4>  ConvForced true
|  5>  convergence tight
|  6>  MaxIter 500
|  7> end
|  8>
|  9> %tddft
| 10>  nroots 1
| 11> end
| 12>
| 13> # 	23614
| 14> * xyz 0 1
| 15> 		C   -0.632244  -0.426885  -0.028415
| 16> 		O   -0.529805  -1.614327   0.023758
| 17> 		C    0.647384   0.422147  -0.019984
| 18> 		C    1.821555  -0.145844  -0.013224
| 19> 		H   -1.603488   0.215328   0.085050
| 20> 		H    0.276355   1.390399   0.137735
| 21> 		H    1.824045  -1.290001  -0.166402
| 22> 		H    2.926936   0.370546   0.325820
| 23> *
| 24>
| 25>                          ****END OF INPUT****

CARTESIAN COORDINATES (ANGSTROEM)
---------------------------------
  C     -0.632244   -0.426885   -0.028415
  O     -0.529805   -1.614327    0.023758
  C      0.647384    0.422147   -0.019984
  C      1.821555   -0.145844   -0.013224
  H     -1.603488    0.215328    0.085050
  H      0.276355    1.390399    0.137735
  H      1.824045   -1.290001   -0.166402
  H      2.926936    0.370546    0.325820

 Total Charge           Charge          ....    0
 Multiplicity           Mult            ....    1
 Number of Electrons    NEL             ....   30
 Basis Dimension        Dim             ....   76

ORBITAL ENERGIES
----------------

  NO   OCC          E(Eh)            E(eV)
   0   2.0000     -19.144826      -520.9572
   1   2.0000     -10.282704      -279.8066
   2   2.0000     -10.224049      -278.2105
   3   2.0000     -10.196846      -277.4703
   4   2.0000      -1.061527       -28.8856
   5   2.0000      -0.789799       -21.4915
   6   2.0000      -0.646760       -17.5992
   7   2.0000      -0.529427       -14.4064
   8   2.0000      -0.491943       -13.3865
   9   2.0000      -0.453086       -12.3291
  10   2.0000      -0.426863       -11.6155
  11   2.0000      -0.406494       -11.0613
  12   2.0000      -0.360545        -9.8109
  13   2.0000      -0.288729        -7.8567
  14   2.0000      -0.256915        -6.9910
  15   0.0000      -0.062630        -1.7042
  16   0.0000       0.041936         1.1411
  17   0.0000       0.065190         1.7739
  18   0.0000       0.070870         1.9285
  19   0.0000       0.125334         3.4105

MULLIKEN ATOMIC CHARGES
-----------------------
   0 C :    0.133609
   1 O :   -0.167039
   2 C :   -0.037282
   3 C :   -0.014001
   4 H :   -0.002783
   5 H :   -0.040841
   6 H :    0.060819
   7 H :    0.067518
Sum of atomic charges:    0.0000000

LOEWDIN ATOMIC CHARGES
----------------------
   0 C :   -0.038161
   1 O :    0.019062
   2 C :   -0.088231
   3 C :   -0.013145
   4 H :    0.002317
   5 H :    0.011541
   6 H :    0.047209
   7 H :    0.059408

  Mayer bond orders larger than 0.100000
B(  0-C ,  1-O ) :   2.2119 B(  0-C ,  2-C ) :   1.0242 B(  0-C ,  4-H ) :   0.8942
B(  2-C ,  3-C ) :   1.9666 B(  2-C ,  5-H ) :   0.9581 B(  3-C ,  6-H ) :   0.9034
B(  3-C ,  7-H ) :   0.9389

-----------------------------------------------------------------------------
         ABSORPTION SPECTRUM VIA TRANSITION ELECTRIC DIPOLE MOMENTS
-----------------------------------------------------------------------------
State   Energy    Wavelength  fosc         T2        TX        TY        TZ
        (cm-1)      (nm)                 (au**2)    (au)      (au)      (au)
-----------------------------------------------------------------------------
   1   29551.7    338.4   0.000167262   0.00186   0.02208   0.01162   0.03523

FINAL SINGLE POINT ENERGY      -191.640923951416

DIPOLE MOMENT
-------------
                                X             Y             Z
Electronic contribution:     -1.86187      -1.66873      -0.30821
Nuclear contribution   :      2.05956       2.43064       0.35723
                        -----------------------------------------
Total Dipole Moment    :      0.19769       0.76190       0.04902
                        -----------------------------------------
Magnitude (a.u.)       :      0.78866
Magnitude (Debye)      :      2.00461

Rotational constants in cm-1:     0.726664     0.216189     0.167236
Rotational constants in MHz : 21784.847758  6481.191857  5013.606021

                             ****ORCA TERMINATED NORMALLY****
TOTAL RUN TIME: 0 days 0 hours 3 minutes 11 seconds 887 msec
