                         Program Version 5.0.3 -  RELEASE  -
|  1> ! HF-3c
|  2> !TightSCF
|  3> %scf
|  4>  ConvForced true
|  5>  convergence tight
|  6>  MaxIter 500
|  7> end
|  8>
|  9> %tddft
| 10>  nroots 1
| 11> end
| 12>
| 13> # 	20221
| 14> * xyz 0 1
| 15> 		C   -0.628438  -0.435165  -0.028956
| 16> 		O   -0.599378  -1.629786   0.023367
| 17> 		C    0.630866   0.339534   0.022772
| 18> 		C    1.924277  -0.059701  -0.031710
| 19> 		H   -1.600798   0.199239  -0.093083
| 20> 		H    0.271939   1.317110   0.075459
| 21> 		H    1.855285  -1.120487  -0.090998
| 22> 		H    2.912356   0.565381   0.206791
| 23> *
| 24>
| 25>                          ****END OF INPUT****

CARTESIAN COORDINATES (ANGSTROEM)
---------------------------------
  C     -0.628438   -0.435165   -0.028956
  O     -0.599378   -1.629786    0.023367
  C      0.630866    0.339534    0.022772
  C      1.924277   -0.059701   -0.031710
  H     -1.600798    0.199239   -0.093083
  H      0.271939    1.317110    0.075459
  H      1.855285   -1.120487   -0.090998
  H      2.912356    0.565381    0.206791

 Total Charge           Charge          ....    0
 Multiplicity           Mult            ....    1
 Number of Electrons    NEL             ....   30
 Basis Dimension        Dim             ....   24

ORBITAL ENERGIES
----------------

  NO   OCC          E(Eh)            E(eV)
   0   2.0000     -20.366687      -554.2057
   1   2.0000     -11.296187      -307.3849
   2   2.0000     -11.187478      -304.4267
   3   2.0000     -11.174455      -304.0724
   4   2.0000      -1.412355       -38.4321
   5   2.0000      -1.066661       -29.0253
   6   2.0000      -0.894288       -24.3348
   7   2.0000      -0.731243       -19.8981
   8   2.0000      -0.694389       -18.8953
   9   2.0000      -0.608055       -16.5460
  10   2.0000      -0.598682       -16.2910
  11   2.0000      -0.544996       -14.8301
  12   2.0000      -0.513983       -13.9862
  13   2.0000      -0.408163       -11.1067
  14   2.0000      -0.384858       -10.4725
  15   0.0000       0.130512         3.5514
  16   0.0000       0.313063         8.5189
  17   0.0000       0.475565        12.9408
  18   0.0000       0.581129        15.8133
  19   0.0000       0.654940        17.8218

MULLIKEN ATOMIC CHARGES
-----------------------
   0 C :    0.170729
   1 O :   -0.357072
   2 C :   -0.179849
   3 C :   -0.223606
   4 H :    0.139728
   5 H :    0.123859
   6 H :    0.159120
   7 H :    0.167090
Sum of atomic charges:   -0.0000000

LOEWDIN ATOMIC CHARGES
----------------------
   0 C :    0.142196
   1 O :   -0.256546
   2 C :   -0.137837
   3 C :   -0.127382
   4 H :    0.080733
   5 H :    0.072248
   6 H :    0.103959
   7 H :    0.122629

  Mayer bond orders larger than 0.100000
B(  0-C ,  1-O ) :   1.9050 B(  0-C ,  2-C ) :   1.0254 B(  0-C ,  4-H ) :   0.9162
B(  2-C ,  3-C ) :   1.9438 B(  2-C ,  5-H ) :   0.9636 B(  3-C ,  6-H ) :   0.9561
B(  3-C ,  7-H ) :   0.9564

-----------------------------------------------------------------------------
         ABSORPTION SPECTRUM VIA TRANSITION ELECTRIC DIPOLE MOMENTS
-----------------------------------------------------------------------------
State   Energy    Wavelength  fosc         T2        TX        TY        TZ
        (cm-1)      (nm)                 (au**2)    (au)      (au)      (au)
-----------------------------------------------------------------------------
   1   32625.5    306.5   0.000000341   0.00000  -0.00079  -0.00059   0.00157

Dispersion correction           -0.025627650
FINAL SINGLE POINT ENERGY      -189.310545698075

DIPOLE MOMENT
-------------
                                X             Y             Z
Electronic contribution:     -1.79963      -1.77247      -0.08446
Nuclear contribution   :      2.07368       2.69021       0.09126
                        -----------------------------------------
Total Dipole Moment    :      0.27405       0.91774       0.00680
                        -----------------------------------------
Magnitude (a.u.)       :      0.95781
Magnitude (Debye)      :      2.43455

Rotational constants in cm-1:     0.814138     0.197497     0.159250
Rotational constants in MHz : 24407.235948  5920.824397  4774.191907

                             ****ORCA TERMINATED NORMALLY****
TOTAL RUN TIME: 0 days 0 hours 0 minutes 11 seconds 140 msec
