                         Program Version 5.0.3 -  RELEASE  -
|  1> ! HF-3c
|  2> !TightSCF
|  3> %scf
|  4>  ConvForced true
|  5>  convergence tight
|  6>  MaxIter 500
|  7> end
|  8>
|  9> %tddft
| 10>  nroots 1
| 11> end
| 12>
| 13> # 	3824
| 14> * xyz 0 1
| 15> 		C   -1.193287  -0.265357   0.121512
| 16> 		O   -1.300433  -1.241966   0.610527
| 17> 		C   -0.007791   0.582328   0.118206
| 18> 		C    1.208514  -0.074585  -0.109412
| 19> 		H   -1.954593  -0.062609  -0.661284
| 20> 		H   -0.318411   1.632307   0.292145
| 21> 		H    1.270078  -1.178990  -0.209449
| 22> 		H    2.307828   0.562100  -0.140987
| 23> *
| 24>
| 25>                          ****END OF INPUT****

CARTESIAN COORDINATES (ANGSTROEM)
---------------------------------
  C     -1.193287   -0.265357    0.121512
  O     -1.300433   -1.241966    0.610527
  C     -0.007791    0.582328    0.118206
  C      1.208514   -0.074585   -0.109412
  H     -1.954593   -0.062609   -0.661284
  H     -0.318411    1.632307    0.292145
  H      1.270078   -1.178990   -0.209449
  H      2.307828    0.562100   -0.140987

 Total Charge           Charge          ....    0
 Multiplicity           Mult            ....    1
 Number of Electrons    NEL             ....   30
 Basis Dimension        Dim             ....   24

ORBITAL ENERGIES
----------------

  NO   OCC          E(Eh)            E(eV)
   0   2.0000     -20.391633      -554.8846
   1   2.0000     -11.316893      -307.9483
   2   2.0000     -11.182689      -304.2964
   3   2.0000     -11.174465      -304.0726
   4   2.0000      -1.491595       -40.5884
   5   2.0000      -1.053195       -28.6589
   6   2.0000      -0.868292       -23.6274
   7   2.0000      -0.755614       -20.5613
   8   2.0000      -0.696970       -18.9655
   9   2.0000      -0.625493       -17.0205
  10   2.0000      -0.614717       -16.7273
  11   2.0000      -0.547345       -14.8940
  12   2.0000      -0.525083       -14.2882
  13   2.0000      -0.391704       -10.6588
  14   2.0000      -0.375584       -10.2202
  15   0.0000       0.168614         4.5882
  16   0.0000       0.276978         7.5369
  17   0.0000       0.484468        13.1831
  18   0.0000       0.554042        15.0763
  19   0.0000       0.641516        17.4565

MULLIKEN ATOMIC CHARGES
-----------------------
   0 C :    0.190682
   1 O :   -0.373586
   2 C :   -0.181682
   3 C :   -0.195301
   4 H :    0.121353
   5 H :    0.146860
   6 H :    0.148277
   7 H :    0.143398
Sum of atomic charges:    0.0000000

LOEWDIN ATOMIC CHARGES
----------------------
   0 C :    0.140233
   1 O :   -0.237788
   2 C :   -0.146048
   3 C :   -0.114555
   4 H :    0.055813
   5 H :    0.097766
   6 H :    0.098251
   7 H :    0.106329

  Mayer bond orders larger than 0.100000
B(  0-C ,  1-O ) :   1.9263 B(  0-C ,  2-C ) :   0.9957 B(  0-C ,  4-H ) :   0.9048
B(  2-C ,  3-C ) :   1.9588 B(  2-C ,  5-H ) :   0.9573 B(  3-C ,  6-H ) :   0.9612
B(  3-C ,  7-H ) :   0.9588

-----------------------------------------------------------------------------
         ABSORPTION SPECTRUM VIA TRANSITION ELECTRIC DIPOLE MOMENTS
-----------------------------------------------------------------------------
State   Energy    Wavelength  fosc         T2        TX        TY        TZ
        (cm-1)      (nm)                 (au**2)    (au)      (au)      (au)
-----------------------------------------------------------------------------
   1   39167.0    255.3   0.000211174   0.00177  -0.02943  -0.01834  -0.02392

Dispersion correction           -0.025464822
FINAL SINGLE POINT ENERGY      -189.238258277643

DIPOLE MOMENT
-------------
                                X             Y             Z
Electronic contribution:     -2.06125      -1.24448       0.95148
Nuclear contribution   :      2.50874       1.95063      -1.37889
                        -----------------------------------------
Total Dipole Moment    :      0.44749       0.70615      -0.42741
                        -----------------------------------------
Magnitude (a.u.)       :      0.93892
Magnitude (Debye)      :      2.38655

Rotational constants in cm-1:     0.792645     0.207197     0.171434
Rotational constants in MHz : 23762.896520  6211.624719  5139.469889

                             ****ORCA TERMINATED NORMALLY****
TOTAL RUN TIME: 0 days 0 hours 0 minutes 12 seconds 582 msec
