                         Program Version 5.0.3 -  RELEASE  -
|  1> ! B3LYP cc-pVDZ
|  2> !TightSCF
|  3> %scf
|  4>  ConvForced true
|  5>  convergence tight
|  6>  MaxIter 500
|  7> end
|  8>
|  9> %tddft
| 10>  nroots 1
| 11> end
| 12>
| 13> # 	22323
| 14> * xyz 0 1
| 15> 		C   -0.582747  -0.450571  -0.004021
| 16> 		O   -0.552332  -1.651392   0.010483
| 17> 		C    0.610619   0.487978   0.026564
| 18> 		C    1.821468  -0.163826  -0.021271
| 19> 		H   -1.423323   0.221124  -0.169874
| 20> 		H    0.385345   1.671009  -0.016512
| 21> 		H    1.835795  -1.303878  -0.083383
| 22> 		H    2.902316   0.397632   0.096591
| 23> *
| 24>
| 25>                          ****END OF INPUT****

CARTESIAN COORDINATES (ANGSTROEM)
---------------------------------
  C     -0.582747   -0.450571   -0.004021
  O     -0.552332   -1.651392    0.010483
  C      0.610619    0.487978    0.026564
  C      1.821468   -0.163826   -0.021271
  H     -1.423323    0.221124   -0.169874
  H      0.385345    1.671009   -0.016512
  H      1.835795   -1.303878   -0.083383
  H      2.902316    0.397632    0.096591

 Total Charge           Charge          ....    0
 Multiplicity           Mult            ....    1
 Number of Electrons    NEL             ....   30
 Basis Dimension        Dim             ....   76

ORBITAL ENERGIES
----------------

  NO   OCC          E(Eh)            E(eV)
   0   2.0000     -19.145032      -520.9628
   1   2.0000     -10.276930      -279.6495
   2   2.0000     -10.231903      -278.4242
   3   2.0000     -10.217796      -278.0404
   4   2.0000      -1.054386       -28.6913
   5   2.0000      -0.779700       -21.2167
   6   2.0000      -0.649407       -17.6713
   7   2.0000      -0.528415       -14.3789
   8   2.0000      -0.489532       -13.3208
   9   2.0000      -0.450345       -12.2545
  10   2.0000      -0.412750       -11.2315
  11   2.0000      -0.400399       -10.8954
  12   2.0000      -0.371263       -10.1026
  13   2.0000      -0.282618        -7.6904
  14   2.0000      -0.257341        -7.0026
  15   0.0000      -0.070515        -1.9188
  16   0.0000       0.048863         1.3296
  17   0.0000       0.054037         1.4704
  18   0.0000       0.072649         1.9769
  19   0.0000       0.117914         3.2086

MULLIKEN ATOMIC CHARGES
-----------------------
   0 C :    0.220074
   1 O :   -0.184548
   2 C :   -0.176023
   3 C :   -0.002303
   4 H :   -0.024548
   5 H :    0.037683
   6 H :    0.069681
   7 H :    0.059984
Sum of atomic charges:   -0.0000000

LOEWDIN ATOMIC CHARGES
----------------------
   0 C :   -0.037772
   1 O :    0.008127
   2 C :   -0.103958
   3 C :    0.003244
   4 H :   -0.012108
   5 H :    0.049122
   6 H :    0.044571
   7 H :    0.048775

  Mayer bond orders larger than 0.100000
B(  0-C ,  1-O ) :   2.1975 B(  0-C ,  2-C ) :   1.0358 B(  0-C ,  4-H ) :   0.9165
B(  2-C ,  3-C ) :   1.9203 B(  2-C ,  5-H ) :   0.9404 B(  3-C ,  6-H ) :   0.9236
B(  3-C ,  7-H ) :   0.9459

-----------------------------------------------------------------------------
         ABSORPTION SPECTRUM VIA TRANSITION ELECTRIC DIPOLE MOMENTS
-----------------------------------------------------------------------------
State   Energy    Wavelength  fosc         T2        TX        TY        TZ
        (cm-1)      (nm)                 (au**2)    (au)      (au)      (au)
-----------------------------------------------------------------------------
   1   28454.0    351.4   0.000133445   0.00154   0.01674   0.01400  -0.03268

FINAL SINGLE POINT ENERGY      -191.652665183039

DIPOLE MOMENT
-------------
                                X             Y             Z
Electronic contribution:     -1.97317      -1.86891       0.13377
Nuclear contribution   :      2.31373       2.71123      -0.16288
                        -----------------------------------------
Total Dipole Moment    :      0.34056       0.84232      -0.02911
                        -----------------------------------------
Magnitude (a.u.)       :      0.90903
Magnitude (Debye)      :      2.31056

Rotational constants in cm-1:     0.688722     0.213840     0.163371
Rotational constants in MHz : 20647.363405  6410.755009  4897.726444

                             ****ORCA TERMINATED NORMALLY****
TOTAL RUN TIME: 0 days 0 hours 3 minutes 21 seconds 835 msec
