                         Program Version 5.0.3 -  RELEASE  -
|  1> ! B3LYP cc-pVDZ
|  2> !TightSCF
|  3> %scf
|  4>  ConvForced true
|  5>  convergence tight
|  6>  MaxIter 500
|  7> end
|  8>
|  9> %tddft
| 10>  nroots 1
| 11> end
| 12>
| 13> # 	6450
| 14> * xyz 0 1
| 15> 		C   -1.208378  -0.438310  -0.004697
| 16> 		O   -1.915395  -0.870927   0.818480
| 17> 		C    0.003702   0.426326   0.266275
| 18> 		C    1.227396   0.019622  -0.116957
| 19> 		H   -1.442659  -0.536068  -1.059269
| 20> 		H   -0.073239   1.526129   0.957560
| 21> 		H    1.359614  -0.797609  -0.919528
| 22> 		H    2.049242   0.652393   0.090932
| 23> *
| 24>
| 25>                          ****END OF INPUT****

CARTESIAN COORDINATES (ANGSTROEM)
---------------------------------
  C     -1.208378   -0.438310   -0.004697
  O     -1.915395   -0.870927    0.818480
  C      0.003702    0.426326    0.266275
  C      1.227396    0.019622   -0.116957
  H     -1.442659   -0.536068   -1.059269
  H     -0.073239    1.526129    0.957560
  H      1.359614   -0.797609   -0.919528
  H      2.049242    0.652393    0.090932

 Total Charge           Charge          ....    0
 Multiplicity           Mult            ....    1
 Number of Electrons    NEL             ....   30
 Basis Dimension        Dim             ....   76

ORBITAL ENERGIES
----------------

  NO   OCC          E(Eh)            E(eV)
   0   2.0000     -19.145946      -520.9877
   1   2.0000     -10.279436      -279.7177
   2   2.0000     -10.222006      -278.1549
   3   2.0000     -10.209449      -277.8132
   4   2.0000      -1.076875       -29.3033
   5   2.0000      -0.788263       -21.4497
   6   2.0000      -0.643530       -17.5113
   7   2.0000      -0.551577       -15.0092
   8   2.0000      -0.478678       -13.0255
   9   2.0000      -0.466157       -12.6848
  10   2.0000      -0.441452       -12.0125
  11   2.0000      -0.400385       -10.8950
  12   2.0000      -0.367932       -10.0119
  13   2.0000      -0.285891        -7.7795
  14   2.0000      -0.257575        -7.0090
  15   0.0000      -0.046539        -1.2664
  16   0.0000       0.003271         0.0890
  17   0.0000       0.060474         1.6456
  18   0.0000       0.083457         2.2710
  19   0.0000       0.110058         2.9948

MULLIKEN ATOMIC CHARGES
-----------------------
   0 C :    0.197861
   1 O :   -0.144629
   2 C :   -0.180593
   3 C :    0.024681
   4 H :   -0.019718
   5 H :    0.058045
   6 H :    0.038937
   7 H :    0.025417
Sum of atomic charges:    0.0000000

LOEWDIN ATOMIC CHARGES
----------------------
   0 C :   -0.052805
   1 O :    0.053869
   2 C :   -0.074497
   3 C :   -0.039903
   4 H :   -0.011289
   5 H :    0.063213
   6 H :    0.039653
   7 H :    0.021760

  Mayer bond orders larger than 0.100000
B(  0-C ,  1-O ) :   2.2647 B(  0-C ,  2-C ) :   0.9721 B(  0-C ,  4-H ) :   0.9133
B(  2-C ,  3-C ) :   2.0043 B(  2-C ,  5-H ) :   0.9179 B(  3-C ,  6-H ) :   0.9462
B(  3-C ,  7-H ) :   0.9409

-----------------------------------------------------------------------------
         ABSORPTION SPECTRUM VIA TRANSITION ELECTRIC DIPOLE MOMENTS
-----------------------------------------------------------------------------
State   Energy    Wavelength  fosc         T2        TX        TY        TZ
        (cm-1)      (nm)                 (au**2)    (au)      (au)      (au)
-----------------------------------------------------------------------------
   1   32947.0    303.5   0.001472172   0.01471  -0.09804  -0.06084  -0.03736

FINAL SINGLE POINT ENERGY      -191.622269376456

DIPOLE MOMENT
-------------
                                X             Y             Z
Electronic contribution:     -3.02788      -1.24081       1.23740
Nuclear contribution   :      3.66034       1.65270      -1.79437
                        -----------------------------------------
Total Dipole Moment    :      0.63246       0.41189      -0.55697
                        -----------------------------------------
Magnitude (a.u.)       :      0.93801
Magnitude (Debye)      :      2.38424

Rotational constants in cm-1:     1.140415     0.157950     0.150898
Rotational constants in MHz : 34188.773195  4735.217191  4523.794441

                             ****ORCA TERMINATED NORMALLY****
TOTAL RUN TIME: 0 days 0 hours 3 minutes 22 seconds 570 msec
