                         Program Version 5.0.3 -  RELEASE  -
|  1> ! HF-3c
|  2> !TightSCF
|  3> %scf
|  4>  ConvForced true
|  5>  convergence tight
|  6>  MaxIter 500
|  7> end
|  8>
|  9> %tddft
| 10>  nroots 1
| 11> end
| 12>
| 13> # 	15269
| 14> * xyz 0 1
| 15> 		C   -1.210282  -0.320101   0.043434
| 16> 		O   -1.616283  -1.186624   0.866993
| 17> 		C    0.046434   0.504750   0.225030
| 18> 		C    1.214642   0.016144  -0.120340
| 19> 		H   -1.762112  -0.252249  -0.990905
| 20> 		H   -0.083769   1.494985   0.718967
| 21> 		H    1.207012  -0.888621  -0.584031
| 22> 		H    2.148820   0.699662  -0.138975
| 23> *
| 24>
| 25>                          ****END OF INPUT****

CARTESIAN COORDINATES (ANGSTROEM)
---------------------------------
  C     -1.210282   -0.320101    0.043434
  O     -1.616283   -1.186624    0.866993
  C      0.046434    0.504750    0.225030
  C      1.214642    0.016144   -0.120340
  H     -1.762112   -0.252249   -0.990905
  H     -0.083769    1.494985    0.718967
  H      1.207012   -0.888621   -0.584031
  H      2.148820    0.699662   -0.138975

 Total Charge           Charge          ....    0
 Multiplicity           Mult            ....    1
 Number of Electrons    NEL             ....   30
 Basis Dimension        Dim             ....   24

ORBITAL ENERGIES
----------------

  NO   OCC          E(Eh)            E(eV)
   0   2.0000     -20.359441      -554.0086
   1   2.0000     -11.284848      -307.0763
   2   2.0000     -11.195747      -304.6518
   3   2.0000     -11.183584      -304.3208
   4   2.0000      -1.365816       -37.1658
   5   2.0000      -1.085514       -29.5383
   6   2.0000      -0.872682       -23.7469
   7   2.0000      -0.756349       -20.5813
   8   2.0000      -0.673529       -18.3277
   9   2.0000      -0.618545       -16.8315
  10   2.0000      -0.594620       -16.1804
  11   2.0000      -0.543304       -14.7841
  12   2.0000      -0.478129       -13.0106
  13   2.0000      -0.409670       -11.1477
  14   2.0000      -0.408726       -11.1220
  15   0.0000       0.177629         4.8335
  16   0.0000       0.212439         5.7808
  17   0.0000       0.515345        14.0232
  18   0.0000       0.577087        15.7033
  19   0.0000       0.658592        17.9212

MULLIKEN ATOMIC CHARGES
-----------------------
   0 C :    0.160120
   1 O :   -0.337459
   2 C :   -0.158497
   3 C :   -0.251587
   4 H :    0.141999
   5 H :    0.152710
   6 H :    0.139933
   7 H :    0.152780
Sum of atomic charges:    0.0000000

LOEWDIN ATOMIC CHARGES
----------------------
   0 C :    0.147469
   1 O :   -0.256824
   2 C :   -0.110363
   3 C :   -0.160053
   4 H :    0.085591
   5 H :    0.101636
   6 H :    0.085298
   7 H :    0.107247

  Mayer bond orders larger than 0.100000
B(  0-C ,  1-O ) :   1.9480 B(  0-C ,  2-C ) :   0.9860 B(  0-C ,  4-H ) :   0.9177
B(  2-C ,  3-C ) :   2.0000 B(  2-C ,  5-H ) :   0.9484 B(  3-C ,  6-H ) :   0.9661
B(  3-C ,  7-H ) :   0.9578

-----------------------------------------------------------------------------
         ABSORPTION SPECTRUM VIA TRANSITION ELECTRIC DIPOLE MOMENTS
-----------------------------------------------------------------------------
State   Energy    Wavelength  fosc         T2        TX        TY        TZ
        (cm-1)      (nm)                 (au**2)    (au)      (au)      (au)
-----------------------------------------------------------------------------
   1   31686.3    315.6   0.000045975   0.00048   0.01811   0.00455   0.01135

Dispersion correction           -0.024959308
FINAL SINGLE POINT ENERGY      -189.324646228719

DIPOLE MOMENT
-------------
                                X             Y             Z
Electronic contribution:     -2.53414      -1.26813       1.21725
Nuclear contribution   :      2.98713       2.01341      -1.90490
                        -----------------------------------------
Total Dipole Moment    :      0.45299       0.74528      -0.68765
                        -----------------------------------------
Magnitude (a.u.)       :      1.11063
Magnitude (Debye)      :      2.82301

Rotational constants in cm-1:     0.928277     0.166719     0.156869
Rotational constants in MHz : 27829.030961  4998.120533  4702.802609

                             ****ORCA TERMINATED NORMALLY****
TOTAL RUN TIME: 0 days 0 hours 0 minutes 11 seconds 117 msec
