                         Program Version 5.0.3 -  RELEASE  -
|  1> ! HF-3c
|  2> !TightSCF
|  3> %scf
|  4>  ConvForced true
|  5>  convergence tight
|  6>  MaxIter 500
|  7> end
|  8>
|  9> %tddft
| 10>  nroots 1
| 11> end
| 12>
| 13> # 	7140
| 14> * xyz 0 1
| 15> 		C   -1.216876  -0.324441   0.002232
| 16> 		O   -1.197512  -1.656005   0.080362
| 17> 		C    0.045272   0.584909   0.090027
| 18> 		C    1.163471  -0.080412  -0.026590
| 19> 		H   -2.189152   0.174803  -0.340339
| 20> 		H   -0.098253   1.757648   0.130327
| 21> 		H    1.372288  -0.956992   0.001703
| 22> 		H    2.179155   0.532231   0.106809
| 23> *
| 24>
| 25>                          ****END OF INPUT****

CARTESIAN COORDINATES (ANGSTROEM)
---------------------------------
  C     -1.216876   -0.324441    0.002232
  O     -1.197512   -1.656005    0.080362
  C      0.045272    0.584909    0.090027
  C      1.163471   -0.080412   -0.026590
  H     -2.189152    0.174803   -0.340339
  H     -0.098253    1.757648    0.130327
  H      1.372288   -0.956992    0.001703
  H      2.179155    0.532231    0.106809

 Total Charge           Charge          ....    0
 Multiplicity           Mult            ....    1
 Number of Electrons    NEL             ....   30
 Basis Dimension        Dim             ....   24

ORBITAL ENERGIES
----------------

  NO   OCC          E(Eh)            E(eV)
   0   2.0000     -20.331851      -553.2578
   1   2.0000     -11.266046      -306.5647
   2   2.0000     -11.204990      -304.9033
   3   2.0000     -11.195131      -304.6350
   4   2.0000      -1.312357       -35.7110
   5   2.0000      -1.083770       -29.4909
   6   2.0000      -0.882318       -24.0091
   7   2.0000      -0.766054       -20.8454
   8   2.0000      -0.667165       -18.1545
   9   2.0000      -0.621999       -16.9254
  10   2.0000      -0.554476       -15.0881
  11   2.0000      -0.510089       -13.8802
  12   2.0000      -0.486653       -13.2425
  13   2.0000      -0.406476       -11.0608
  14   2.0000      -0.392651       -10.6846
  15   0.0000       0.123958         3.3731
  16   0.0000       0.275259         7.4902
  17   0.0000       0.472768        12.8647
  18   0.0000       0.495298        13.4778
  19   0.0000       0.632026        17.1983

MULLIKEN ATOMIC CHARGES
-----------------------
   0 C :    0.141865
   1 O :   -0.337966
   2 C :   -0.149765
   3 C :   -0.248303
   4 H :    0.137109
   5 H :    0.159221
   6 H :    0.151987
   7 H :    0.145852
Sum of atomic charges:   -0.0000000

LOEWDIN ATOMIC CHARGES
----------------------
   0 C :    0.144558
   1 O :   -0.276900
   2 C :   -0.103671
   3 C :   -0.143505
   4 H :    0.080998
   5 H :    0.112168
   6 H :    0.082981
   7 H :    0.103370

  Mayer bond orders larger than 0.100000
B(  0-C ,  1-O ) :   1.9095 B(  0-C ,  2-C ) :   1.0053 B(  0-C ,  4-H ) :   0.9341
B(  2-C ,  3-C ) :   1.9678 B(  2-C ,  5-H ) :   0.9512 B(  3-C ,  6-H ) :   0.9663
B(  3-C ,  7-H ) :   0.9560

-----------------------------------------------------------------------------
         ABSORPTION SPECTRUM VIA TRANSITION ELECTRIC DIPOLE MOMENTS
-----------------------------------------------------------------------------
State   Energy    Wavelength  fosc         T2        TX        TY        TZ
        (cm-1)      (nm)                 (au**2)    (au)      (au)      (au)
-----------------------------------------------------------------------------
   1   27320.2    366.0   0.000036027   0.00043   0.01453   0.00664   0.01338

Dispersion correction           -0.025007719
FINAL SINGLE POINT ENERGY      -189.284189244090

DIPOLE MOMENT
-------------
                                X             Y             Z
Electronic contribution:     -2.10852      -1.73477       0.15133
Nuclear contribution   :      2.37660       2.92295      -0.22656
                        -----------------------------------------
Total Dipole Moment    :      0.26808       1.18818      -0.07523
                        -----------------------------------------
Magnitude (a.u.)       :      1.22037
Magnitude (Debye)      :      3.10193

Rotational constants in cm-1:     0.681207     0.203137     0.157295
Rotational constants in MHz : 20422.071763  6089.898159  4715.592342

                             ****ORCA TERMINATED NORMALLY****
TOTAL RUN TIME: 0 days 0 hours 0 minutes 16 seconds 15 msec
