                         Program Version 5.0.3 -  RELEASE  -
|  1> ! B3LYP cc-pVDZ
|  2> !TightSCF
|  3> %scf
|  4>  ConvForced true
|  5>  convergence tight
|  6>  MaxIter 500
|  7> end
|  8>
|  9> %tddft
| 10>  nroots 1
| 11> end
| 12>
| 13> # 	22797
| 14> * xyz 0 1
| 15> 		C   -0.567168  -0.412307  -0.092386
| 16> 		O   -0.564297  -1.629841   0.060999
| 17> 		C    0.622465   0.435351   0.066457
| 18> 		C    1.794362  -0.173759  -0.045644
| 19> 		H   -1.367645   0.026071  -0.236499
| 20> 		H    0.627252   1.548955   0.228761
| 21> 		H    1.964098  -1.225573  -0.275974
| 22> 		H    2.698800   0.566470   0.197610
| 23> *
| 24>
| 25>                          ****END OF INPUT****

CARTESIAN COORDINATES (ANGSTROEM)
---------------------------------
  C     -0.567168   -0.412307   -0.092386
  O     -0.564297   -1.629841    0.060999
  C      0.622465    0.435351    0.066457
  C      1.794362   -0.173759   -0.045644
  H     -1.367645    0.026071   -0.236499
  H      0.627252    1.548955    0.228761
  H      1.964098   -1.225573   -0.275974
  H      2.698800    0.566470    0.197610

 Total Charge           Charge          ....    0
 Multiplicity           Mult            ....    1
 Number of Electrons    NEL             ....   30
 Basis Dimension        Dim             ....   76

ORBITAL ENERGIES
----------------

  NO   OCC          E(Eh)            E(eV)
   0   2.0000     -19.132631      -520.6254
   1   2.0000     -10.256670      -279.0982
   2   2.0000     -10.216426      -278.0031
   3   2.0000     -10.202041      -277.6116
   4   2.0000      -1.034618       -28.1534
   5   2.0000      -0.796646       -21.6778
   6   2.0000      -0.669059       -18.2060
   7   2.0000      -0.554404       -15.0861
   8   2.0000      -0.515557       -14.0290
   9   2.0000      -0.442855       -12.0507
  10   2.0000      -0.415268       -11.3000
  11   2.0000      -0.389940       -10.6108
  12   2.0000      -0.373600       -10.1662
  13   2.0000      -0.286682        -7.8010
  14   2.0000      -0.254024        -6.9123
  15   0.0000      -0.066401        -1.8069
  16   0.0000       0.050224         1.3667
  17   0.0000       0.059803         1.6273
  18   0.0000       0.095210         2.5908
  19   0.0000       0.128746         3.5033

MULLIKEN ATOMIC CHARGES
-----------------------
   0 C :    0.321131
   1 O :   -0.220748
   2 C :   -0.141689
   3 C :    0.040570
   4 H :   -0.089030
   5 H :    0.008856
   6 H :    0.041350
   7 H :    0.039560
Sum of atomic charges:   -0.0000000

LOEWDIN ATOMIC CHARGES
----------------------
   0 C :    0.006206
   1 O :   -0.015672
   2 C :   -0.086070
   3 C :    0.022098
   4 H :   -0.046345
   5 H :    0.040518
   6 H :    0.031586
   7 H :    0.047680

  Mayer bond orders larger than 0.100000
B(  0-C ,  1-O ) :   2.1655 B(  0-C ,  2-C ) :   1.0614 B(  0-C ,  4-H ) :   0.9439
B(  2-C ,  3-C ) :   1.9607 B(  2-C ,  5-H ) :   0.9365 B(  3-C ,  6-H ) :   0.9399
B(  3-C ,  7-H ) :   0.9388

-----------------------------------------------------------------------------
         ABSORPTION SPECTRUM VIA TRANSITION ELECTRIC DIPOLE MOMENTS
-----------------------------------------------------------------------------
State   Energy    Wavelength  fosc         T2        TX        TY        TZ
        (cm-1)      (nm)                 (au**2)    (au)      (au)      (au)
-----------------------------------------------------------------------------
   1   27754.5    360.3   0.000046715   0.00055  -0.01490   0.01286  -0.01291

FINAL SINGLE POINT ENERGY      -191.639375436597

DIPOLE MOMENT
-------------
                                X             Y             Z
Electronic contribution:     -2.20222      -1.70569      -0.01504
Nuclear contribution   :      2.51972       2.64709      -0.08186
                        -----------------------------------------
Total Dipole Moment    :      0.31750       0.94140      -0.09690
                        -----------------------------------------
Magnitude (a.u.)       :      0.99821
Magnitude (Debye)      :      2.53725

Rotational constants in cm-1:     0.754579     0.217196     0.170235
Rotational constants in MHz : 22621.709779  6511.363725  5103.519321

                             ****ORCA TERMINATED NORMALLY****
TOTAL RUN TIME: 0 days 0 hours 3 minutes 22 seconds 108 msec
