                         Program Version 5.0.3 -  RELEASE  -
|  1> ! B3LYP cc-pVDZ
|  2> !TightSCF
|  3> %scf
|  4>  ConvForced true
|  5>  convergence tight
|  6>  MaxIter 500
|  7> end
|  8>
|  9> %tddft
| 10>  nroots 1
| 11> end
| 12>
| 13> # 	722
| 14> * xyz 0 1
| 15> 		C   -1.217114  -0.371734   0.039678
| 16> 		O   -1.232010  -1.543858  -0.264017
| 17> 		C    0.021840   0.470518  -0.157912
| 18> 		C    1.212603  -0.021090   0.030910
| 19> 		H   -2.168666   0.282142   0.392698
| 20> 		H    0.014058   1.678897  -0.371884
| 21> 		H    1.343865  -1.147090   0.290333
| 22> 		H    2.026423   0.665030   0.064085
| 23> *
| 24>
| 25>                          ****END OF INPUT****

CARTESIAN COORDINATES (ANGSTROEM)
---------------------------------
  C     -1.217114   -0.371734    0.039678
  O     -1.232010   -1.543858   -0.264017
  C      0.021840    0.470518   -0.157912
  C      1.212603   -0.021090    0.030910
  H     -2.168666    0.282142    0.392698
  H      0.014058    1.678897   -0.371884
  H      1.343865   -1.147090    0.290333
  H      2.026423    0.665030    0.064085

 Total Charge           Charge          ....    0
 Multiplicity           Mult            ....    1
 Number of Electrons    NEL             ....   30
 Basis Dimension        Dim             ....   76

ORBITAL ENERGIES
----------------

  NO   OCC          E(Eh)            E(eV)
   0   2.0000     -19.149295      -521.0788
   1   2.0000     -10.291893      -280.0566
   2   2.0000     -10.211496      -277.8689
   3   2.0000     -10.207253      -277.7535
   4   2.0000      -1.054005       -28.6809
   5   2.0000      -0.796298       -21.6684
   6   2.0000      -0.644202       -17.5296
   7   2.0000      -0.525600       -14.3023
   8   2.0000      -0.500475       -13.6186
   9   2.0000      -0.446599       -12.1526
  10   2.0000      -0.429013       -11.6740
  11   2.0000      -0.396210       -10.7814
  12   2.0000      -0.367814       -10.0087
  13   2.0000      -0.293863        -7.9964
  14   2.0000      -0.260253        -7.0819
  15   0.0000      -0.059295        -1.6135
  16   0.0000       0.035853         0.9756
  17   0.0000       0.057619         1.5679
  18   0.0000       0.080891         2.2012
  19   0.0000       0.098697         2.6857

MULLIKEN ATOMIC CHARGES
-----------------------
   0 C :    0.162296
   1 O :   -0.179066
   2 C :   -0.145883
   3 C :    0.062682
   4 H :    0.003112
   5 H :    0.025066
   6 H :    0.049801
   7 H :    0.021990
Sum of atomic charges:    0.0000000

LOEWDIN ATOMIC CHARGES
----------------------
   0 C :   -0.031269
   1 O :    0.004563
   2 C :   -0.095786
   3 C :   -0.004896
   4 H :    0.003405
   5 H :    0.050048
   6 H :    0.047058
   7 H :    0.026877

  Mayer bond orders larger than 0.100000
B(  0-C ,  1-O ) :   2.1969 B(  0-C ,  2-C ) :   0.9962 B(  0-C ,  4-H ) :   0.8920
B(  2-C ,  3-C ) :   2.0036 B(  2-C ,  5-H ) :   0.9208 B(  3-C ,  6-H ) :   0.9341
B(  3-C ,  7-H ) :   0.9324

-----------------------------------------------------------------------------
         ABSORPTION SPECTRUM VIA TRANSITION ELECTRIC DIPOLE MOMENTS
-----------------------------------------------------------------------------
State   Energy    Wavelength  fosc         T2        TX        TY        TZ
        (cm-1)      (nm)                 (au**2)    (au)      (au)      (au)
-----------------------------------------------------------------------------
   1   30858.2    324.1   0.000068690   0.00073  -0.02167  -0.01154  -0.01141

FINAL SINGLE POINT ENERGY      -191.645225138131

DIPOLE MOMENT
-------------
                                X             Y             Z
Electronic contribution:     -1.98204      -2.02563      -0.45076
Nuclear contribution   :      2.35054       2.86167       0.67705
                        -----------------------------------------
Total Dipole Moment    :      0.36850       0.83604       0.22629
                        -----------------------------------------
Magnitude (a.u.)       :      0.94126
Magnitude (Debye)      :      2.39248

Rotational constants in cm-1:     0.765724     0.202249     0.163653
Rotational constants in MHz : 22955.823842  6063.259219  4906.184415

                             ****ORCA TERMINATED NORMALLY****
TOTAL RUN TIME: 0 days 0 hours 3 minutes 9 seconds 166 msec
