                         Program Version 5.0.3 -  RELEASE  -
|  1> ! B3LYP cc-pVDZ
|  2> !TightSCF
|  3> %scf
|  4>  ConvForced true
|  5>  convergence tight
|  6>  MaxIter 500
|  7> end
|  8>
|  9> %tddft
| 10>  nroots 1
| 11> end
| 12>
| 13> # 	32504
| 14> * xyz 0 1
| 15> 		C   -0.554874  -0.441342   0.011435
| 16> 		O   -0.554353  -1.593531  -0.007397
| 17> 		C    0.626611   0.407998  -0.017976
| 18> 		C    1.802570  -0.143651   0.036710
| 19> 		H   -1.470837   0.105785   0.063228
| 20> 		H    0.514212   1.525330  -0.080144
| 21> 		H    1.684702  -1.266690  -0.153296
| 22> 		H    2.685658   0.266903  -0.078420
| 23> *
| 24>
| 25>                          ****END OF INPUT****

CARTESIAN COORDINATES (ANGSTROEM)
---------------------------------
  C     -0.554874   -0.441342    0.011435
  O     -0.554353   -1.593531   -0.007397
  C      0.626611    0.407998   -0.017976
  C      1.802570   -0.143651    0.036710
  H     -1.470837    0.105785    0.063228
  H      0.514212    1.525330   -0.080144
  H      1.684702   -1.266690   -0.153296
  H      2.685658    0.266903   -0.078420

 Total Charge           Charge          ....    0
 Multiplicity           Mult            ....    1
 Number of Electrons    NEL             ....   30
 Basis Dimension        Dim             ....   76

ORBITAL ENERGIES
----------------

  NO   OCC          E(Eh)            E(eV)
   0   2.0000     -19.137833      -520.7669
   1   2.0000     -10.263782      -279.2917
   2   2.0000     -10.195763      -277.4408
   3   2.0000     -10.194710      -277.4122
   4   2.0000      -1.082297       -29.4508
   5   2.0000      -0.804194       -21.8832
   6   2.0000      -0.661700       -18.0058
   7   2.0000      -0.548821       -14.9342
   8   2.0000      -0.515548       -14.0288
   9   2.0000      -0.454210       -12.3597
  10   2.0000      -0.440825       -11.9955
  11   2.0000      -0.420102       -11.4316
  12   2.0000      -0.363880        -9.9017
  13   2.0000      -0.292415        -7.9570
  14   2.0000      -0.258095        -7.0231
  15   0.0000      -0.060851        -1.6559
  16   0.0000       0.071926         1.9572
  17   0.0000       0.079261         2.1568
  18   0.0000       0.101386         2.7588
  19   0.0000       0.131527         3.5790

MULLIKEN ATOMIC CHARGES
-----------------------
   0 C :    0.210590
   1 O :   -0.145660
   2 C :   -0.170005
   3 C :    0.142490
   4 H :   -0.048337
   5 H :   -0.009699
   6 H :    0.038891
   7 H :   -0.018269
Sum of atomic charges:    0.0000000

LOEWDIN ATOMIC CHARGES
----------------------
   0 C :   -0.071137
   1 O :    0.059106
   2 C :   -0.081750
   3 C :    0.035932
   4 H :   -0.015877
   5 H :    0.031364
   6 H :    0.047033
   7 H :   -0.004672

  Mayer bond orders larger than 0.100000
B(  0-C ,  1-O ) :   2.2477 B(  0-C ,  2-C ) :   1.0448 B(  0-C ,  4-H ) :   0.9218
B(  2-C ,  3-C ) :   1.9846 B(  2-C ,  5-H ) :   0.9481 B(  3-C ,  6-H ) :   0.9134
B(  3-C ,  7-H ) :   0.9432

-----------------------------------------------------------------------------
         ABSORPTION SPECTRUM VIA TRANSITION ELECTRIC DIPOLE MOMENTS
-----------------------------------------------------------------------------
State   Energy    Wavelength  fosc         T2        TX        TY        TZ
        (cm-1)      (nm)                 (au**2)    (au)      (au)      (au)
-----------------------------------------------------------------------------
   1   30498.5    327.9   0.000190975   0.00206  -0.03009   0.00661  -0.03335

FINAL SINGLE POINT ENERGY      -191.641172253453

DIPOLE MOMENT
-------------
                                X             Y             Z
Electronic contribution:     -1.72304      -1.57924       0.17385
Nuclear contribution   :      2.04643       2.38208      -0.23293
                        -----------------------------------------
Total Dipole Moment    :      0.32339       0.80284      -0.05907
                        -----------------------------------------
Magnitude (a.u.)       :      0.86754
Magnitude (Debye)      :      2.20510

Rotational constants in cm-1:     0.805286     0.224190     0.175598
Rotational constants in MHz : 24141.860468  6721.060137  5264.291207

                             ****ORCA TERMINATED NORMALLY****
TOTAL RUN TIME: 0 days 0 hours 3 minutes 23 seconds 315 msec
