                         Program Version 5.0.3 -  RELEASE  -
|  1> ! B3LYP cc-pVDZ
|  2> !TightSCF
|  3> %scf
|  4>  ConvForced true
|  5>  convergence tight
|  6>  MaxIter 500
|  7> end
|  8>
|  9> %tddft
| 10>  nroots 1
| 11> end
| 12>
| 13> # 	482
| 14> * xyz 0 1
| 15> 		C   -1.269802  -0.375573   0.068422
| 16> 		O   -1.303805  -1.520161  -0.221516
| 17> 		C    0.006912   0.453999  -0.070845
| 18> 		C    1.130606  -0.086356   0.049403
| 19> 		H   -2.223837   0.214577   0.256135
| 20> 		H    0.023410   1.622631  -0.373805
| 21> 		H    1.634641  -0.924775   0.215811
| 22> 		H    1.998095   0.600596   0.079360
| 23> *
| 24>
| 25>                          ****END OF INPUT****

CARTESIAN COORDINATES (ANGSTROEM)
---------------------------------
  C     -1.269802   -0.375573    0.068422
  O     -1.303805   -1.520161   -0.221516
  C      0.006912    0.453999   -0.070845
  C      1.130606   -0.086356    0.049403
  H     -2.223837    0.214577    0.256135
  H      0.023410    1.622631   -0.373805
  H      1.634641   -0.924775    0.215811
  H      1.998095    0.600596    0.079360

 Total Charge           Charge          ....    0
 Multiplicity           Mult            ....    1
 Number of Electrons    NEL             ....   30
 Basis Dimension        Dim             ....   76

ORBITAL ENERGIES
----------------

  NO   OCC          E(Eh)            E(eV)
   0   2.0000     -19.143800      -520.9293
   1   2.0000     -10.279915      -279.7307
   2   2.0000     -10.206886      -277.7435
   3   2.0000     -10.188803      -277.2514
   4   2.0000      -1.067085       -29.0369
   5   2.0000      -0.804876       -21.9018
   6   2.0000      -0.648719       -17.6525
   7   2.0000      -0.561889       -15.2898
   8   2.0000      -0.501114       -13.6360
   9   2.0000      -0.457765       -12.4564
  10   2.0000      -0.431714       -11.7475
  11   2.0000      -0.403233       -10.9725
  12   2.0000      -0.356278        -9.6948
  13   2.0000      -0.300400        -8.1743
  14   2.0000      -0.252408        -6.8684
  15   0.0000      -0.051059        -1.3894
  16   0.0000       0.037495         1.0203
  17   0.0000       0.065124         1.7721
  18   0.0000       0.099057         2.6955
  19   0.0000       0.107468         2.9244

MULLIKEN ATOMIC CHARGES
-----------------------
   0 C :    0.175692
   1 O :   -0.153773
   2 C :   -0.147290
   3 C :    0.139687
   4 H :   -0.018456
   5 H :    0.031125
   6 H :   -0.032881
   7 H :    0.005897
Sum of atomic charges:    0.0000000

LOEWDIN ATOMIC CHARGES
----------------------
   0 C :   -0.039663
   1 O :    0.033268
   2 C :   -0.089709
   3 C :    0.002673
   4 H :   -0.009073
   5 H :    0.054868
   6 H :    0.005499
   7 H :    0.042136

  Mayer bond orders larger than 0.100000
B(  0-C ,  1-O ) :   2.2548 B(  0-C ,  2-C ) :   0.9794 B(  0-C ,  4-H ) :   0.9089
B(  2-C ,  3-C ) :   2.0099 B(  2-C ,  5-H ) :   0.9078 B(  3-C ,  6-H ) :   0.9792
B(  3-C ,  7-H ) :   0.9317

-----------------------------------------------------------------------------
         ABSORPTION SPECTRUM VIA TRANSITION ELECTRIC DIPOLE MOMENTS
-----------------------------------------------------------------------------
State   Energy    Wavelength  fosc         T2        TX        TY        TZ
        (cm-1)      (nm)                 (au**2)    (au)      (au)      (au)
-----------------------------------------------------------------------------
   1   31010.6    322.5   0.000011493   0.00012  -0.00657  -0.00452  -0.00765

FINAL SINGLE POINT ENERGY      -191.618353120725

DIPOLE MOMENT
-------------
                                X             Y             Z
Electronic contribution:     -2.33672      -2.16948      -0.18308
Nuclear contribution   :      2.73599       2.93529       0.35147
                        -----------------------------------------
Total Dipole Moment    :      0.39927       0.76581       0.16838
                        -----------------------------------------
Magnitude (a.u.)       :      0.87990
Magnitude (Debye)      :      2.23653

Rotational constants in cm-1:     0.811352     0.203981     0.165587
Rotational constants in MHz : 24323.725885  6115.186322  4964.161662

                             ****ORCA TERMINATED NORMALLY****
TOTAL RUN TIME: 0 days 0 hours 3 minutes 20 seconds 777 msec
