                         Program Version 5.0.3 -  RELEASE  -
|  1> ! B3LYP cc-pVDZ
|  2> !TightSCF
|  3> %scf
|  4>  ConvForced true
|  5>  convergence tight
|  6>  MaxIter 500
|  7> end
|  8>
|  9> %tddft
| 10>  nroots 1
| 11> end
| 12>
| 13> # 	28541
| 14> * xyz 0 1
| 15> 		C   -0.546424  -0.422646  -0.034583
| 16> 		O   -0.656898  -1.689377   0.013071
| 17> 		C    0.652307   0.376250   0.111849
| 18> 		C    1.851167  -0.044570  -0.056125
| 19> 		H   -1.453458   0.129207  -0.346732
| 20> 		H    0.608957   1.492777  -0.091081
| 21> 		H    2.272413  -1.106272   0.181937
| 22> 		H    2.697165   0.652346  -0.216081
| 23> *
| 24>
| 25>                          ****END OF INPUT****

CARTESIAN COORDINATES (ANGSTROEM)
---------------------------------
  C     -0.546424   -0.422646   -0.034583
  O     -0.656898   -1.689377    0.013071
  C      0.652307    0.376250    0.111849
  C      1.851167   -0.044570   -0.056125
  H     -1.453458    0.129207   -0.346732
  H      0.608957    1.492777   -0.091081
  H      2.272413   -1.106272    0.181937
  H      2.697165    0.652346   -0.216081

 Total Charge           Charge          ....    0
 Multiplicity           Mult            ....    1
 Number of Electrons    NEL             ....   30
 Basis Dimension        Dim             ....   76

ORBITAL ENERGIES
----------------

  NO   OCC          E(Eh)            E(eV)
   0   2.0000     -19.136501      -520.7307
   1   2.0000     -10.279469      -279.7186
   2   2.0000     -10.221325      -278.1364
   3   2.0000     -10.208850      -277.7969
   4   2.0000      -1.011080       -27.5129
   5   2.0000      -0.814832       -22.1727
   6   2.0000      -0.665693       -18.1144
   7   2.0000      -0.541372       -14.7315
   8   2.0000      -0.507513       -13.8101
   9   2.0000      -0.447762       -12.1842
  10   2.0000      -0.417842       -11.3701
  11   2.0000      -0.386863       -10.5271
  12   2.0000      -0.361135        -9.8270
  13   2.0000      -0.296065        -8.0563
  14   2.0000      -0.254054        -6.9131
  15   0.0000      -0.076683        -2.0866
  16   0.0000       0.042863         1.1664
  17   0.0000       0.055655         1.5145
  18   0.0000       0.084039         2.2868
  19   0.0000       0.116708         3.1758

MULLIKEN ATOMIC CHARGES
-----------------------
   0 C :    0.186519
   1 O :   -0.237583
   2 C :   -0.085081
   3 C :    0.033142
   4 H :   -0.004837
   5 H :    0.013230
   6 H :    0.057626
   7 H :    0.036984
Sum of atomic charges:    0.0000000

LOEWDIN ATOMIC CHARGES
----------------------
   0 C :    0.000584
   1 O :   -0.062115
   2 C :   -0.101584
   3 C :    0.024420
   4 H :    0.004082
   5 H :    0.048984
   6 H :    0.048461
   7 H :    0.037167

  Mayer bond orders larger than 0.100000
B(  0-C ,  1-O ) :   2.1396 B(  0-C ,  2-C ) :   1.0662 B(  0-C ,  4-H ) :   0.9266
B(  2-C ,  3-C ) :   1.9675 B(  2-C ,  5-H ) :   0.9206 B(  3-C ,  6-H ) :   0.9433
B(  3-C ,  7-H ) :   0.9362

-----------------------------------------------------------------------------
         ABSORPTION SPECTRUM VIA TRANSITION ELECTRIC DIPOLE MOMENTS
-----------------------------------------------------------------------------
State   Energy    Wavelength  fosc         T2        TX        TY        TZ
        (cm-1)      (nm)                 (au**2)    (au)      (au)      (au)
-----------------------------------------------------------------------------
   1   25656.9    389.8   0.000598862   0.00768   0.08383   0.01316  -0.02198

FINAL SINGLE POINT ENERGY      -191.666186266731

DIPOLE MOMENT
-------------
                                X             Y             Z
Electronic contribution:     -2.13098      -1.86961       0.34963
Nuclear contribution   :      2.70755       2.88146      -0.44173
                        -----------------------------------------
Total Dipole Moment    :      0.57657       1.01185      -0.09210
                        -----------------------------------------
Magnitude (a.u.)       :      1.16823
Magnitude (Debye)      :      2.96941

Rotational constants in cm-1:     0.818299     0.193125     0.157457
Rotational constants in MHz : 24531.999040  5789.747648  4720.454900

                             ****ORCA TERMINATED NORMALLY****
TOTAL RUN TIME: 0 days 0 hours 3 minutes 15 seconds 172 msec
