                         Program Version 5.0.3 -  RELEASE  -
|  1> ! B3LYP cc-pVDZ
|  2> !TightSCF
|  3> %scf
|  4>  ConvForced true
|  5>  convergence tight
|  6>  MaxIter 500
|  7> end
|  8>
|  9> %tddft
| 10>  nroots 1
| 11> end
| 12>
| 13> # 	13416
| 14> * xyz 0 1
| 15> 		C   -1.200901  -0.395697  -0.193091
| 16> 		O   -1.983539  -0.669656  -1.038029
| 17> 		C    0.058076   0.345708  -0.295444
| 18> 		C    1.184064   0.126353   0.323212
| 19> 		H   -1.464213  -0.616520   0.999344
| 20> 		H    0.087094   1.305878  -0.996052
| 21> 		H    1.280175  -0.700313   1.062485
| 22> 		H    2.049958   0.605737   0.087552
| 23> *
| 24>
| 25>                          ****END OF INPUT****

CARTESIAN COORDINATES (ANGSTROEM)
---------------------------------
  C     -1.200901   -0.395697   -0.193091
  O     -1.983539   -0.669656   -1.038029
  C      0.058076    0.345708   -0.295444
  C      1.184064    0.126353    0.323212
  H     -1.464213   -0.616520    0.999344
  H      0.087094    1.305878   -0.996052
  H      1.280175   -0.700313    1.062485
  H      2.049958    0.605737    0.087552

 Total Charge           Charge          ....    0
 Multiplicity           Mult            ....    1
 Number of Electrons    NEL             ....   30
 Basis Dimension        Dim             ....   76

ORBITAL ENERGIES
----------------

  NO   OCC          E(Eh)            E(eV)
   0   2.0000     -19.150857      -521.1213
   1   2.0000     -10.290130      -280.0087
   2   2.0000     -10.214455      -277.9495
   3   2.0000     -10.207481      -277.7597
   4   2.0000      -1.069802       -29.1108
   5   2.0000      -0.809616       -22.0308
   6   2.0000      -0.657333       -17.8869
   7   2.0000      -0.545728       -14.8500
   8   2.0000      -0.485472       -13.2104
   9   2.0000      -0.476481       -12.9657
  10   2.0000      -0.442726       -12.0472
  11   2.0000      -0.408724       -11.1219
  12   2.0000      -0.368740       -10.0339
  13   2.0000      -0.300572        -8.1790
  14   2.0000      -0.256791        -6.9876
  15   0.0000      -0.057961        -1.5772
  16   0.0000       0.021571         0.5870
  17   0.0000       0.077280         2.1029
  18   0.0000       0.082736         2.2514
  19   0.0000       0.106127         2.8879

MULLIKEN ATOMIC CHARGES
-----------------------
   0 C :    0.147739
   1 O :   -0.149722
   2 C :   -0.132040
   3 C :    0.097263
   4 H :   -0.026706
   5 H :    0.032257
   6 H :    0.021243
   7 H :    0.009965
Sum of atomic charges:   -0.0000000

LOEWDIN ATOMIC CHARGES
----------------------
   0 C :   -0.058308
   1 O :    0.038506
   2 C :   -0.074688
   3 C :    0.002488
   4 H :   -0.011496
   5 H :    0.053552
   6 H :    0.033268
   7 H :    0.016677

  Mayer bond orders larger than 0.100000
B(  0-C ,  1-O ) :   2.2369 B(  0-C ,  2-C ) :   1.0071 B(  0-C ,  4-H ) :   0.8809
B(  2-C ,  3-C ) :   2.0213 B(  2-C ,  5-H ) :   0.9236 B(  3-C ,  6-H ) :   0.9416
B(  3-C ,  7-H ) :   0.9266

-----------------------------------------------------------------------------
         ABSORPTION SPECTRUM VIA TRANSITION ELECTRIC DIPOLE MOMENTS
-----------------------------------------------------------------------------
State   Energy    Wavelength  fosc         T2        TX        TY        TZ
        (cm-1)      (nm)                 (au**2)    (au)      (au)      (au)
-----------------------------------------------------------------------------
   1   30908.6    323.5   0.000139567   0.00149  -0.01366  -0.01515  -0.03272

FINAL SINGLE POINT ENERGY      -191.643915493294

DIPOLE MOMENT
-------------
                                X             Y             Z
Electronic contribution:     -2.89604      -0.82785      -1.76188
Nuclear contribution   :      3.76992       1.16615       2.23801
                        -----------------------------------------
Total Dipole Moment    :      0.87389       0.33830       0.47613
                        -----------------------------------------
Magnitude (a.u.)       :      1.05110
Magnitude (Debye)      :      2.67169

Rotational constants in cm-1:     1.485322     0.152208     0.143507
Rotational constants in MHz : 44528.836260  4563.074329  4302.230414

                             ****ORCA TERMINATED NORMALLY****
TOTAL RUN TIME: 0 days 0 hours 3 minutes 16 seconds 520 msec
