                         Program Version 5.0.3 -  RELEASE  -
|  1> ! B3LYP cc-pVDZ
|  2> !TightSCF
|  3> %scf
|  4>  ConvForced true
|  5>  convergence tight
|  6>  MaxIter 500
|  7> end
|  8>
|  9> %tddft
| 10>  nroots 1
| 11> end
| 12>
| 13> # 	5558
| 14> * xyz 0 1
| 15> 		C   -1.193722  -0.354415   0.144908
| 16> 		O   -2.041121  -0.522566   0.925636
| 17> 		C    0.058456   0.379619   0.373152
| 18> 		C    1.222509   0.082883  -0.397402
| 19> 		H   -1.293434  -0.776646  -0.985494
| 20> 		H   -0.024468   1.106171   1.146345
| 21> 		H    1.206915  -0.617337  -1.001638
| 22> 		H    2.032059   0.650503  -0.207638
| 23> *
| 24>
| 25>                          ****END OF INPUT****

CARTESIAN COORDINATES (ANGSTROEM)
---------------------------------
  C     -1.193722   -0.354415    0.144908
  O     -2.041121   -0.522566    0.925636
  C      0.058456    0.379619    0.373152
  C      1.222509    0.082883   -0.397402
  H     -1.293434   -0.776646   -0.985494
  H     -0.024468    1.106171    1.146345
  H      1.206915   -0.617337   -1.001638
  H      2.032059    0.650503   -0.207638

 Total Charge           Charge          ....    0
 Multiplicity           Mult            ....    1
 Number of Electrons    NEL             ....   30
 Basis Dimension        Dim             ....   76

ORBITAL ENERGIES
----------------

  NO   OCC          E(Eh)            E(eV)
   0   2.0000     -19.141905      -520.8777
   1   2.0000     -10.277041      -279.6525
   2   2.0000     -10.214974      -277.9636
   3   2.0000     -10.207729      -277.7664
   4   2.0000      -1.075405       -29.2633
   5   2.0000      -0.795448       -21.6453
   6   2.0000      -0.666222       -18.1288
   7   2.0000      -0.565001       -15.3744
   8   2.0000      -0.491243       -13.3674
   9   2.0000      -0.472665       -12.8619
  10   2.0000      -0.429770       -11.6946
  11   2.0000      -0.423976       -11.5370
  12   2.0000      -0.400068       -10.8864
  13   2.0000      -0.282904        -7.6982
  14   2.0000      -0.253522        -6.8987
  15   0.0000      -0.070635        -1.9221
  16   0.0000       0.040070         1.0904
  17   0.0000       0.083323         2.2673
  18   0.0000       0.092792         2.5250
  19   0.0000       0.126720         3.4482

MULLIKEN ATOMIC CHARGES
-----------------------
   0 C :    0.132987
   1 O :   -0.145633
   2 C :   -0.111180
   3 C :    0.210439
   4 H :   -0.039466
   5 H :   -0.002680
   6 H :   -0.054315
   7 H :    0.009848
Sum of atomic charges:    0.0000000

LOEWDIN ATOMIC CHARGES
----------------------
   0 C :   -0.083517
   1 O :    0.047451
   2 C :   -0.027965
   3 C :    0.070077
   4 H :   -0.017162
   5 H :    0.022688
   6 H :   -0.027058
   7 H :    0.015486

  Mayer bond orders larger than 0.100000
B(  0-C ,  1-O ) :   2.2285 B(  0-C ,  2-C ) :   1.0580 B(  0-C ,  4-H ) :   0.8877
B(  2-C ,  3-C ) :   1.9385 B(  2-C ,  5-H ) :   0.9485 B(  3-C ,  6-H ) :   0.9425
B(  3-C ,  7-H ) :   0.9526

-----------------------------------------------------------------------------
         ABSORPTION SPECTRUM VIA TRANSITION ELECTRIC DIPOLE MOMENTS
-----------------------------------------------------------------------------
State   Energy    Wavelength  fosc         T2        TX        TY        TZ
        (cm-1)      (nm)                 (au**2)    (au)      (au)      (au)
-----------------------------------------------------------------------------
   1   28506.7    350.8   0.000129982   0.00150   0.01919  -0.02288  -0.02469

FINAL SINGLE POINT ENERGY      -191.632956626055

DIPOLE MOMENT
-------------
                                X             Y             Z
Electronic contribution:     -2.85050      -0.51573       1.54879
Nuclear contribution   :      3.76604       0.78256      -1.99147
                        -----------------------------------------
Total Dipole Moment    :      0.91554       0.26683      -0.44268
                        -----------------------------------------
Magnitude (a.u.)       :      1.05137
Magnitude (Debye)      :      2.67237

Rotational constants in cm-1:     1.503706     0.153835     0.142167
Rotational constants in MHz : 45079.982376  4611.842964  4262.060099

                             ****ORCA TERMINATED NORMALLY****
TOTAL RUN TIME: 0 days 0 hours 3 minutes 27 seconds 159 msec
