                         Program Version 5.0.3 -  RELEASE  -
|  1> ! HF-3c
|  2> !TightSCF
|  3> %scf
|  4>  ConvForced true
|  5>  convergence tight
|  6>  MaxIter 500
|  7> end
|  8>
|  9> %tddft
| 10>  nroots 1
| 11> end
| 12>
| 13> # 	17367
| 14> * xyz 0 1
| 15> 		C   -1.227904  -0.345467   0.037581
| 16> 		O   -1.582877  -1.163208  -0.712498
| 17> 		C    0.025404   0.494200  -0.107599
| 18> 		C    1.223863   0.048888   0.111876
| 19> 		H   -1.887317  -0.098066   0.871759
| 20> 		H   -0.114618   1.425123  -0.631720
| 21> 		H    1.401540  -1.010487   0.623038
| 22> 		H    2.107946   0.685258  -0.175614
| 23> *
| 24>
| 25>                          ****END OF INPUT****

CARTESIAN COORDINATES (ANGSTROEM)
---------------------------------
  C     -1.227904   -0.345467    0.037581
  O     -1.582877   -1.163208   -0.712498
  C      0.025404    0.494200   -0.107599
  C      1.223863    0.048888    0.111876
  H     -1.887317   -0.098066    0.871759
  H     -0.114618    1.425123   -0.631720
  H      1.401540   -1.010487    0.623038
  H      2.107946    0.685258   -0.175614

 Total Charge           Charge          ....    0
 Multiplicity           Mult            ....    1
 Number of Electrons    NEL             ....   30
 Basis Dimension        Dim             ....   24

ORBITAL ENERGIES
----------------

  NO   OCC          E(Eh)            E(eV)
   0   2.0000     -20.390910      -554.8649
   1   2.0000     -11.311276      -307.7955
   2   2.0000     -11.184434      -304.3439
   3   2.0000     -11.181056      -304.2520
   4   2.0000      -1.443591       -39.2821
   5   2.0000      -1.079116       -29.3642
   6   2.0000      -0.874079       -23.7849
   7   2.0000      -0.758229       -20.6325
   8   2.0000      -0.693513       -18.8715
   9   2.0000      -0.632959       -17.2237
  10   2.0000      -0.611477       -16.6391
  11   2.0000      -0.541335       -14.7305
  12   2.0000      -0.518813       -14.1176
  13   2.0000      -0.414110       -11.2685
  14   2.0000      -0.403349       -10.9757
  15   0.0000       0.201109         5.4724
  16   0.0000       0.235354         6.4043
  17   0.0000       0.513649        13.9771
  18   0.0000       0.578157        15.7324
  19   0.0000       0.638823        17.3833

MULLIKEN ATOMIC CHARGES
-----------------------
   0 C :    0.184520
   1 O :   -0.349609
   2 C :   -0.184079
   3 C :   -0.221670
   4 H :    0.133516
   5 H :    0.149286
   6 H :    0.144963
   7 H :    0.143073
Sum of atomic charges:    0.0000000

LOEWDIN ATOMIC CHARGES
----------------------
   0 C :    0.155019
   1 O :   -0.237324
   2 C :   -0.140199
   3 C :   -0.139402
   4 H :    0.067079
   5 H :    0.097025
   6 H :    0.101933
   7 H :    0.095868

  Mayer bond orders larger than 0.100000
B(  0-C ,  1-O ) :   1.9566 B(  0-C ,  2-C ) :   0.9674 B(  0-C ,  4-H ) :   0.9175
B(  2-C ,  3-C ) :   2.0081 B(  2-C ,  5-H ) :   0.9477 B(  3-C ,  6-H ) :   0.9585
B(  3-C ,  7-H ) :   0.9595

-----------------------------------------------------------------------------
         ABSORPTION SPECTRUM VIA TRANSITION ELECTRIC DIPOLE MOMENTS
-----------------------------------------------------------------------------
State   Energy    Wavelength  fosc         T2        TX        TY        TZ
        (cm-1)      (nm)                 (au**2)    (au)      (au)      (au)
-----------------------------------------------------------------------------
   1   37172.9    269.0   0.000124985   0.00111   0.03196   0.00335  -0.00863

Dispersion correction           -0.025048801
FINAL SINGLE POINT ENERGY      -189.304370894046

DIPOLE MOMENT
-------------
                                X             Y             Z
Electronic contribution:     -2.50171      -1.33633      -0.80256
Nuclear contribution   :      2.97338       1.94592       1.32010
                        -----------------------------------------
Total Dipole Moment    :      0.47167       0.60959       0.51755
                        -----------------------------------------
Magnitude (a.u.)       :      0.92840
Magnitude (Debye)      :      2.35981

Rotational constants in cm-1:     0.964957     0.173114     0.160335
Rotational constants in MHz : 28928.695376  5189.820740  4806.731416

                             ****ORCA TERMINATED NORMALLY****
TOTAL RUN TIME: 0 days 0 hours 0 minutes 13 seconds 435 msec
