                         Program Version 5.0.3 -  RELEASE  -
|  1> ! B3LYP cc-pVDZ
|  2> !TightSCF
|  3> %scf
|  4>  ConvForced true
|  5>  convergence tight
|  6>  MaxIter 500
|  7> end
|  8>
|  9> %tddft
| 10>  nroots 1
| 11> end
| 12>
| 13> # 	10587
| 14> * xyz 0 1
| 15> 		C   -1.212197  -0.372176   0.012533
| 16> 		O   -1.394870  -1.502632   0.467514
| 17> 		C    0.021273   0.511760   0.179431
| 18> 		C    1.204197   0.045008  -0.155141
| 19> 		H   -1.922596   0.069662  -0.677354
| 20> 		H   -0.087872   1.592135   0.496445
| 21> 		H    1.418331  -1.009477  -0.364635
| 22> 		H    1.979048   0.678846   0.052877
| 23> *
| 24>
| 25>                          ****END OF INPUT****

CARTESIAN COORDINATES (ANGSTROEM)
---------------------------------
  C     -1.212197   -0.372176    0.012533
  O     -1.394870   -1.502632    0.467514
  C      0.021273    0.511760    0.179431
  C      1.204197    0.045008   -0.155141
  H     -1.922596    0.069662   -0.677354
  H     -0.087872    1.592135    0.496445
  H      1.418331   -1.009477   -0.364635
  H      1.979048    0.678846    0.052877

 Total Charge           Charge          ....    0
 Multiplicity           Mult            ....    1
 Number of Electrons    NEL             ....   30
 Basis Dimension        Dim             ....   76

ORBITAL ENERGIES
----------------

  NO   OCC          E(Eh)            E(eV)
   0   2.0000     -19.146395      -520.9999
   1   2.0000     -10.282068      -279.7893
   2   2.0000     -10.210298      -277.8363
   3   2.0000     -10.197801      -277.4963
   4   2.0000      -1.037891       -28.2425
   5   2.0000      -0.799392       -21.7526
   6   2.0000      -0.656083       -17.8529
   7   2.0000      -0.549278       -14.9466
   8   2.0000      -0.503416       -13.6986
   9   2.0000      -0.444057       -12.0834
  10   2.0000      -0.442620       -12.0443
  11   2.0000      -0.389208       -10.5909
  12   2.0000      -0.374951       -10.2029
  13   2.0000      -0.292309        -7.9541
  14   2.0000      -0.256399        -6.9770
  15   0.0000      -0.051475        -1.4007
  16   0.0000       0.012378         0.3368
  17   0.0000       0.074150         2.0177
  18   0.0000       0.095290         2.5930
  19   0.0000       0.108175         2.9436

MULLIKEN ATOMIC CHARGES
-----------------------
   0 C :    0.195012
   1 O :   -0.199968
   2 C :   -0.136986
   3 C :    0.089567
   4 H :   -0.006501
   5 H :    0.020911
   6 H :    0.032908
   7 H :    0.005058
Sum of atomic charges:   -0.0000000

LOEWDIN ATOMIC CHARGES
----------------------
   0 C :   -0.000835
   1 O :   -0.014518
   2 C :   -0.065131
   3 C :   -0.005906
   4 H :   -0.007494
   5 H :    0.042621
   6 H :    0.035724
   7 H :    0.015539

  Mayer bond orders larger than 0.100000
B(  0-C ,  1-O ) :   2.2032 B(  0-C ,  2-C ) :   0.9856 B(  0-C ,  4-H ) :   0.9172
B(  2-C ,  3-C ) :   2.0336 B(  2-C ,  5-H ) :   0.9298 B(  3-C ,  6-H ) :   0.9466
B(  3-C ,  7-H ) :   0.9370

-----------------------------------------------------------------------------
         ABSORPTION SPECTRUM VIA TRANSITION ELECTRIC DIPOLE MOMENTS
-----------------------------------------------------------------------------
State   Energy    Wavelength  fosc         T2        TX        TY        TZ
        (cm-1)      (nm)                 (au**2)    (au)      (au)      (au)
-----------------------------------------------------------------------------
   1   30653.5    326.2   0.000143977   0.00155   0.03305   0.01071  -0.01842

FINAL SINGLE POINT ENERGY      -191.651658282171

DIPOLE MOMENT
-------------
                                X             Y             Z
Electronic contribution:     -2.27651      -1.73746       0.67413
Nuclear contribution   :      2.67555       2.60301      -0.95428
                        -----------------------------------------
Total Dipole Moment    :      0.39904       0.86555      -0.28015
                        -----------------------------------------
Magnitude (a.u.)       :      0.99342
Magnitude (Debye)      :      2.52508

Rotational constants in cm-1:     0.836619     0.182853     0.157201
Rotational constants in MHz : 25081.200492  5481.789573  4712.763744

                             ****ORCA TERMINATED NORMALLY****
TOTAL RUN TIME: 0 days 0 hours 3 minutes 19 seconds 213 msec
