                         Program Version 5.0.3 -  RELEASE  -
|  1> ! HF-3c
|  2> !TightSCF
|  3> %scf
|  4>  ConvForced true
|  5>  convergence tight
|  6>  MaxIter 500
|  7> end
|  8>
|  9> %tddft
| 10>  nroots 1
| 11> end
| 12>
| 13> # 	12673
| 14> * xyz 0 1
| 15> 		C   -1.185958  -0.344853  -0.016561
| 16> 		O   -1.857063  -0.850938   0.819613
| 17> 		C    0.033363   0.495367   0.245604
| 18> 		C    1.225039   0.058440  -0.110447
| 19> 		H   -1.415619  -0.514596  -1.134768
| 20> 		H   -0.195065   1.395262   0.856278
| 21> 		H    1.368274  -0.875573  -0.824648
| 22> 		H    2.057344   0.626570   0.215524
| 23> *
| 24>
| 25>                          ****END OF INPUT****

CARTESIAN COORDINATES (ANGSTROEM)
---------------------------------
  C     -1.185958   -0.344853   -0.016561
  O     -1.857063   -0.850938    0.819613
  C      0.033363    0.495367    0.245604
  C      1.225039    0.058440   -0.110447
  H     -1.415619   -0.514596   -1.134768
  H     -0.195065    1.395262    0.856278
  H      1.368274   -0.875573   -0.824648
  H      2.057344    0.626570    0.215524

 Total Charge           Charge          ....    0
 Multiplicity           Mult            ....    1
 Number of Electrons    NEL             ....   30
 Basis Dimension        Dim             ....   24

ORBITAL ENERGIES
----------------

  NO   OCC          E(Eh)            E(eV)
   0   2.0000     -20.377963      -554.5126
   1   2.0000     -11.300757      -307.5092
   2   2.0000     -11.188426      -304.4526
   3   2.0000     -11.183972      -304.3313
   4   2.0000      -1.422013       -38.6949
   5   2.0000      -1.079801       -29.3829
   6   2.0000      -0.870923       -23.6990
   7   2.0000      -0.757052       -20.6004
   8   2.0000      -0.666461       -18.1353
   9   2.0000      -0.645131       -17.5549
  10   2.0000      -0.600429       -16.3385
  11   2.0000      -0.545326       -14.8391
  12   2.0000      -0.518120       -14.0988
  13   2.0000      -0.411660       -11.2018
  14   2.0000      -0.393662       -10.7121
  15   0.0000       0.178332         4.8527
  16   0.0000       0.249825         6.7981
  17   0.0000       0.511463        13.9176
  18   0.0000       0.574943        15.6450
  19   0.0000       0.642039        17.4708

MULLIKEN ATOMIC CHARGES
-----------------------
   0 C :    0.186142
   1 O :   -0.356034
   2 C :   -0.166369
   3 C :   -0.239960
   4 H :    0.129990
   5 H :    0.154550
   6 H :    0.148684
   7 H :    0.142996
Sum of atomic charges:   -0.0000000

LOEWDIN ATOMIC CHARGES
----------------------
   0 C :    0.155862
   1 O :   -0.251177
   2 C :   -0.122907
   3 C :   -0.151154
   4 H :    0.070104
   5 H :    0.102941
   6 H :    0.105587
   7 H :    0.090744

  Mayer bond orders larger than 0.100000
B(  0-C ,  1-O ) :   1.9473 B(  0-C ,  2-C ) :   0.9806 B(  0-C ,  4-H ) :   0.9120
B(  2-C ,  3-C ) :   1.9934 B(  2-C ,  5-H ) :   0.9497 B(  3-C ,  6-H ) :   0.9588
B(  3-C ,  7-H ) :   0.9629

-----------------------------------------------------------------------------
         ABSORPTION SPECTRUM VIA TRANSITION ELECTRIC DIPOLE MOMENTS
-----------------------------------------------------------------------------
State   Energy    Wavelength  fosc         T2        TX        TY        TZ
        (cm-1)      (nm)                 (au**2)    (au)      (au)      (au)
-----------------------------------------------------------------------------
   1   36229.6    276.0   0.000003166   0.00003  -0.00050  -0.00047  -0.00532

Dispersion correction           -0.025110492
FINAL SINGLE POINT ENERGY      -189.312609091601

DIPOLE MOMENT
-------------
                                X             Y             Z
Electronic contribution:     -2.80315      -0.87840       1.08604
Nuclear contribution   :      3.49044       1.28345      -1.73741
                        -----------------------------------------
Total Dipole Moment    :      0.68729       0.40506      -0.65136
                        -----------------------------------------
Magnitude (a.u.)       :      1.02991
Magnitude (Debye)      :      2.61782

Rotational constants in cm-1:     1.108655     0.161438     0.156066
Rotational constants in MHz : 33236.645668  4839.784726  4678.748180

                             ****ORCA TERMINATED NORMALLY****
TOTAL RUN TIME: 0 days 0 hours 0 minutes 13 seconds 76 msec
