                         Program Version 5.0.3 -  RELEASE  -
|  1> ! HF-3c
|  2> !TightSCF
|  3> %scf
|  4>  ConvForced true
|  5>  convergence tight
|  6>  MaxIter 500
|  7> end
|  8>
|  9> %tddft
| 10>  nroots 1
| 11> end
| 12>
| 13> # 	25163
| 14> * xyz 0 1
| 15> 		C   -0.562668  -0.463242  -0.004678
| 16> 		O   -0.673703  -1.685084  -0.006637
| 17> 		C    0.649366   0.416633   0.019734
| 18> 		C    1.947387  -0.059361  -0.001938
| 19> 		H   -1.620192   0.138266  -0.027838
| 20> 		H    0.194942   1.382795   0.011769
| 21> 		H    2.124164  -0.997349   0.189640
| 22> 		H    2.695987   0.736883  -0.239268
| 23> *
| 24>
| 25>                          ****END OF INPUT****

CARTESIAN COORDINATES (ANGSTROEM)
---------------------------------
  C     -0.562668   -0.463242   -0.004678
  O     -0.673703   -1.685084   -0.006637
  C      0.649366    0.416633    0.019734
  C      1.947387   -0.059361   -0.001938
  H     -1.620192    0.138266   -0.027838
  H      0.194942    1.382795    0.011769
  H      2.124164   -0.997349    0.189640
  H      2.695987    0.736883   -0.239268

 Total Charge           Charge          ....    0
 Multiplicity           Mult            ....    1
 Number of Electrons    NEL             ....   30
 Basis Dimension        Dim             ....   24

ORBITAL ENERGIES
----------------

  NO   OCC          E(Eh)            E(eV)
   0   2.0000     -20.352258      -553.8131
   1   2.0000     -11.278482      -306.9031
   2   2.0000     -11.204244      -304.8830
   3   2.0000     -11.194190      -304.6094
   4   2.0000      -1.379409       -37.5356
   5   2.0000      -1.072430       -29.1823
   6   2.0000      -0.901978       -24.5441
   7   2.0000      -0.735806       -20.0223
   8   2.0000      -0.685489       -18.6531
   9   2.0000      -0.629968       -17.1423
  10   2.0000      -0.587000       -15.9731
  11   2.0000      -0.540506       -14.7079
  12   2.0000      -0.523332       -14.2406
  13   2.0000      -0.397242       -10.8095
  14   2.0000      -0.383132       -10.4256
  15   0.0000       0.116084         3.1588
  16   0.0000       0.297447         8.0939
  17   0.0000       0.498129        13.5548
  18   0.0000       0.607680        16.5358
  19   0.0000       0.641542        17.4573

MULLIKEN ATOMIC CHARGES
-----------------------
   0 C :    0.167314
   1 O :   -0.357665
   2 C :   -0.162369
   3 C :   -0.232347
   4 H :    0.119813
   5 H :    0.145959
   6 H :    0.159468
   7 H :    0.159827
Sum of atomic charges:    0.0000000

LOEWDIN ATOMIC CHARGES
----------------------
   0 C :    0.139445
   1 O :   -0.266330
   2 C :   -0.115580
   3 C :   -0.123560
   4 H :    0.067789
   5 H :    0.092337
   6 H :    0.095657
   7 H :    0.110244

  Mayer bond orders larger than 0.100000
B(  0-C ,  1-O ) :   1.9029 B(  0-C ,  2-C ) :   1.0265 B(  0-C ,  4-H ) :   0.9191
B(  2-C ,  3-C ) :   1.9371 B(  2-C ,  5-H ) :   0.9619 B(  3-C ,  6-H ) :   0.9648
B(  3-C ,  7-H ) :   0.9617

-----------------------------------------------------------------------------
         ABSORPTION SPECTRUM VIA TRANSITION ELECTRIC DIPOLE MOMENTS
-----------------------------------------------------------------------------
State   Energy    Wavelength  fosc         T2        TX        TY        TZ
        (cm-1)      (nm)                 (au**2)    (au)      (au)      (au)
-----------------------------------------------------------------------------
   1   30202.3    331.1   0.000017653   0.00019  -0.00877  -0.00004   0.01074

Dispersion correction           -0.025009284
FINAL SINGLE POINT ENERGY      -189.313824248740

DIPOLE MOMENT
-------------
                                X             Y             Z
Electronic contribution:     -1.65113      -1.90654       0.03917
Nuclear contribution   :      2.02762       2.96957      -0.06074
                        -----------------------------------------
Total Dipole Moment    :      0.37649       1.06303      -0.02157
                        -----------------------------------------
Magnitude (a.u.)       :      1.12794
Magnitude (Debye)      :      2.86699

Rotational constants in cm-1:     0.795898     0.185817     0.150917
Rotational constants in MHz : 23860.423881  5570.646105  4524.364953

                             ****ORCA TERMINATED NORMALLY****
TOTAL RUN TIME: 0 days 0 hours 0 minutes 12 seconds 919 msec
