                         Program Version 5.0.3 -  RELEASE  -
|  1> ! HF-3c
|  2> !TightSCF
|  3> %scf
|  4>  ConvForced true
|  5>  convergence tight
|  6>  MaxIter 500
|  7> end
|  8>
|  9> %tddft
| 10>  nroots 1
| 11> end
| 12>
| 13> # 	7177
| 14> * xyz 0 1
| 15> 		C   -1.147655  -0.362427   0.129179
| 16> 		O   -2.170618  -0.271843   0.783779
| 17> 		C    0.015079   0.367318   0.415795
| 18> 		C    1.147778   0.114847  -0.259530
| 19> 		H   -1.189373  -1.018674  -0.930778
| 20> 		H   -0.076246   1.061133   1.200912
| 21> 		H    1.203946  -0.402752  -1.256916
| 22> 		H    2.254001   0.473315  -0.092191
| 23> *
| 24>
| 25>                          ****END OF INPUT****

CARTESIAN COORDINATES (ANGSTROEM)
---------------------------------
  C     -1.147655   -0.362427    0.129179
  O     -2.170618   -0.271843    0.783779
  C      0.015079    0.367318    0.415795
  C      1.147778    0.114847   -0.259530
  H     -1.189373   -1.018674   -0.930778
  H     -0.076246    1.061133    1.200912
  H      1.203946   -0.402752   -1.256916
  H      2.254001    0.473315   -0.092191

 Total Charge           Charge          ....    0
 Multiplicity           Mult            ....    1
 Number of Electrons    NEL             ....   30
 Basis Dimension        Dim             ....   24

ORBITAL ENERGIES
----------------

  NO   OCC          E(Eh)            E(eV)
   0   2.0000     -20.345786      -553.6370
   1   2.0000     -11.286140      -307.1115
   2   2.0000     -11.201424      -304.8062
   3   2.0000     -11.197027      -304.6866
   4   2.0000      -1.387488       -37.7555
   5   2.0000      -1.090828       -29.6829
   6   2.0000      -0.876081       -23.8394
   7   2.0000      -0.763151       -20.7664
   8   2.0000      -0.664217       -18.0743
   9   2.0000      -0.637203       -17.3392
  10   2.0000      -0.565119       -15.3777
  11   2.0000      -0.541683       -14.7399
  12   2.0000      -0.521938       -14.2027
  13   2.0000      -0.400908       -10.9093
  14   2.0000      -0.383276       -10.4295
  15   0.0000       0.123307         3.3553
  16   0.0000       0.311937         8.4882
  17   0.0000       0.507475        13.8091
  18   0.0000       0.515200        14.0193
  19   0.0000       0.607054        16.5188

MULLIKEN ATOMIC CHARGES
-----------------------
   0 C :    0.173984
   1 O :   -0.362238
   2 C :   -0.203562
   3 C :   -0.185143
   4 H :    0.127047
   5 H :    0.163018
   6 H :    0.139188
   7 H :    0.147706
Sum of atomic charges:    0.0000000

LOEWDIN ATOMIC CHARGES
----------------------
   0 C :    0.144338
   1 O :   -0.271904
   2 C :   -0.151552
   3 C :   -0.093722
   4 H :    0.076128
   5 H :    0.103814
   6 H :    0.091197
   7 H :    0.101701

  Mayer bond orders larger than 0.100000
B(  0-C ,  1-O ) :   1.8767 B(  0-C ,  2-C ) :   1.0701 B(  0-C ,  4-H ) :   0.9100
B(  2-C ,  3-C ) :   1.9125 B(  2-C ,  5-H ) :   0.9503 B(  3-C ,  6-H ) :   0.9645
B(  3-C ,  7-H ) :   0.9629

-----------------------------------------------------------------------------
         ABSORPTION SPECTRUM VIA TRANSITION ELECTRIC DIPOLE MOMENTS
-----------------------------------------------------------------------------
State   Energy    Wavelength  fosc         T2        TX        TY        TZ
        (cm-1)      (nm)                 (au**2)    (au)      (au)      (au)
-----------------------------------------------------------------------------
   1   31800.1    314.5   0.000081353   0.00084   0.00418   0.00715   0.02781

Dispersion correction           -0.025427326
FINAL SINGLE POINT ENERGY      -189.311997387456

DIPOLE MOMENT
-------------
                                X             Y             Z
Electronic contribution:     -2.97639      -0.28636       1.32991
Nuclear contribution   :      4.19761       0.28998      -2.00065
                        -----------------------------------------
Total Dipole Moment    :      1.22122       0.00362      -0.67074
                        -----------------------------------------
Magnitude (a.u.)       :      1.39330
Magnitude (Debye)      :      3.54150

Rotational constants in cm-1:     1.570690     0.159484     0.145233
Rotational constants in MHz : 47088.107029  4781.219043  4353.974731

                             ****ORCA TERMINATED NORMALLY****
TOTAL RUN TIME: 0 days 0 hours 0 minutes 11 seconds 608 msec
