                         Program Version 5.0.3 -  RELEASE  -
|  1> ! B3LYP cc-pVDZ
|  2> !TightSCF
|  3> %scf
|  4>  ConvForced true
|  5>  convergence tight
|  6>  MaxIter 500
|  7> end
|  8>
|  9> %tddft
| 10>  nroots 1
| 11> end
| 12>
| 13> # 	652
| 14> * xyz 0 1
| 15> 		C   -1.193142  -0.387001   0.073049
| 16> 		O   -1.900498  -0.704030   0.994106
| 17> 		C    0.047041   0.467610   0.178525
| 18> 		C    1.210014   0.041025  -0.260022
| 19> 		H   -1.463940  -0.700899  -0.944656
| 20> 		H   -0.032737   1.410790   0.713212
| 21> 		H    1.257747  -0.846542  -0.713771
| 22> 		H    2.116070   0.712472  -0.061032
| 23> *
| 24>
| 25>                          ****END OF INPUT****

CARTESIAN COORDINATES (ANGSTROEM)
---------------------------------
  C     -1.193142   -0.387001    0.073049
  O     -1.900498   -0.704030    0.994106
  C      0.047041    0.467610    0.178525
  C      1.210014    0.041025   -0.260022
  H     -1.463940   -0.700899   -0.944656
  H     -0.032737    1.410790    0.713212
  H      1.257747   -0.846542   -0.713771
  H      2.116070    0.712472   -0.061032

 Total Charge           Charge          ....    0
 Multiplicity           Mult            ....    1
 Number of Electrons    NEL             ....   30
 Basis Dimension        Dim             ....   76

ORBITAL ENERGIES
----------------

  NO   OCC          E(Eh)            E(eV)
   0   2.0000     -19.143309      -520.9159
   1   2.0000     -10.278948      -279.7044
   2   2.0000     -10.203594      -277.6539
   3   2.0000     -10.202372      -277.6207
   4   2.0000      -1.053283       -28.6613
   5   2.0000      -0.803919       -21.8758
   6   2.0000      -0.644393       -17.5348
   7   2.0000      -0.571338       -15.5469
   8   2.0000      -0.493041       -13.4163
   9   2.0000      -0.461378       -12.5547
  10   2.0000      -0.435803       -11.8588
  11   2.0000      -0.397608       -10.8195
  12   2.0000      -0.381082       -10.3698
  13   2.0000      -0.293203        -7.9785
  14   2.0000      -0.255295        -6.9469
  15   0.0000      -0.048837        -1.3289
  16   0.0000       0.016134         0.4390
  17   0.0000       0.077596         2.1115
  18   0.0000       0.092698         2.5225
  19   0.0000       0.122552         3.3348

MULLIKEN ATOMIC CHARGES
-----------------------
   0 C :    0.174792
   1 O :   -0.179770
   2 C :   -0.101146
   3 C :    0.090640
   4 H :   -0.014140
   5 H :    0.009224
   6 H :   -0.022161
   7 H :    0.042561
Sum of atomic charges:   -0.0000000

LOEWDIN ATOMIC CHARGES
----------------------
   0 C :   -0.025435
   1 O :    0.012327
   2 C :   -0.054441
   3 C :   -0.007341
   4 H :   -0.008214
   5 H :    0.033739
   6 H :    0.000164
   7 H :    0.049201

  Mayer bond orders larger than 0.100000
B(  0-C ,  1-O ) :   2.2171 B(  0-C ,  2-C ) :   0.9951 B(  0-C ,  4-H ) :   0.9180
B(  2-C ,  3-C ) :   2.0245 B(  2-C ,  5-H ) :   0.9416 B(  3-C ,  6-H ) :   0.9370
B(  3-C ,  7-H ) :   0.9378

-----------------------------------------------------------------------------
         ABSORPTION SPECTRUM VIA TRANSITION ELECTRIC DIPOLE MOMENTS
-----------------------------------------------------------------------------
State   Energy    Wavelength  fosc         T2        TX        TY        TZ
        (cm-1)      (nm)                 (au**2)    (au)      (au)      (au)
-----------------------------------------------------------------------------
   1   31459.6    317.9   0.000354641   0.00371   0.06055   0.00373  -0.00553

FINAL SINGLE POINT ENERGY      -191.648410321224

DIPOLE MOMENT
-------------
                                X             Y             Z
Electronic contribution:     -2.88957      -0.82549       1.32972
Nuclear contribution   :      3.59753       1.14955      -1.92315
                        -----------------------------------------
Total Dipole Moment    :      0.70795       0.32407      -0.59343
                        -----------------------------------------
Magnitude (a.u.)       :      0.97896
Magnitude (Debye)      :      2.48833

Rotational constants in cm-1:     1.267852     0.156325     0.150083
Rotational constants in MHz : 38009.248132  4686.518577  4499.368057

                             ****ORCA TERMINATED NORMALLY****
TOTAL RUN TIME: 0 days 0 hours 3 minutes 22 seconds 547 msec
