                         Program Version 5.0.3 -  RELEASE  -
|  1> ! B3LYP cc-pVDZ
|  2> !TightSCF
|  3> %scf
|  4>  ConvForced true
|  5>  convergence tight
|  6>  MaxIter 500
|  7> end
|  8>
|  9> %tddft
| 10>  nroots 1
| 11> end
| 12>
| 13> # 	14843
| 14> * xyz 0 1
| 15> 		C   -1.224067  -0.351117   0.010931
| 16> 		O   -1.177002  -1.538518   0.251318
| 17> 		C    0.020984   0.568065   0.064849
| 18> 		C    1.266646  -0.040697  -0.055395
| 19> 		H   -2.218413   0.158600  -0.141555
| 20> 		H   -0.188337   1.727288   0.124123
| 21> 		H    1.365456  -0.988805  -0.254079
| 22> 		H    2.108966   0.463942  -0.037873
| 23> *
| 24>
| 25>                          ****END OF INPUT****

CARTESIAN COORDINATES (ANGSTROEM)
---------------------------------
  C     -1.224067   -0.351117    0.010931
  O     -1.177002   -1.538518    0.251318
  C      0.020984    0.568065    0.064849
  C      1.266646   -0.040697   -0.055395
  H     -2.218413    0.158600   -0.141555
  H     -0.188337    1.727288    0.124123
  H      1.365456   -0.988805   -0.254079
  H      2.108966    0.463942   -0.037873

 Total Charge           Charge          ....    0
 Multiplicity           Mult            ....    1
 Number of Electrons    NEL             ....   30
 Basis Dimension        Dim             ....   76

ORBITAL ENERGIES
----------------

  NO   OCC          E(Eh)            E(eV)
   0   2.0000     -19.140976      -520.8524
   1   2.0000     -10.280862      -279.7565
   2   2.0000     -10.223299      -278.1901
   3   2.0000     -10.198529      -277.5161
   4   2.0000      -1.046031       -28.4639
   5   2.0000      -0.781699       -21.2711
   6   2.0000      -0.657864       -17.9014
   7   2.0000      -0.551882       -15.0175
   8   2.0000      -0.500558       -13.6209
   9   2.0000      -0.447669       -12.1817
  10   2.0000      -0.428879       -11.6704
  11   2.0000      -0.393756       -10.7146
  12   2.0000      -0.392667       -10.6850
  13   2.0000      -0.279949        -7.6178
  14   2.0000      -0.255248        -6.9456
  15   0.0000      -0.069297        -1.8857
  16   0.0000       0.039547         1.0761
  17   0.0000       0.067094         1.8257
  18   0.0000       0.102337         2.7847
  19   0.0000       0.113284         3.0826

MULLIKEN ATOMIC CHARGES
-----------------------
   0 C :    0.183293
   1 O :   -0.188753
   2 C :   -0.196896
   3 C :    0.205933
   4 H :   -0.009859
   5 H :    0.028772
   6 H :   -0.013334
   7 H :   -0.009157
Sum of atomic charges:   -0.0000000

LOEWDIN ATOMIC CHARGES
----------------------
   0 C :   -0.029112
   1 O :   -0.005747
   2 C :   -0.067832
   3 C :    0.063916
   4 H :   -0.005026
   5 H :    0.042275
   6 H :   -0.000513
   7 H :    0.002038

  Mayer bond orders larger than 0.100000
B(  0-C ,  1-O ) :   2.1864 B(  0-C ,  2-C ) :   1.0120 B(  0-C ,  4-H ) :   0.9136
B(  2-C ,  3-C ) :   1.9556 B(  2-C ,  5-H ) :   0.9396 B(  3-C ,  6-H ) :   0.9465
B(  3-C ,  7-H ) :   0.9545

-----------------------------------------------------------------------------
         ABSORPTION SPECTRUM VIA TRANSITION ELECTRIC DIPOLE MOMENTS
-----------------------------------------------------------------------------
State   Energy    Wavelength  fosc         T2        TX        TY        TZ
        (cm-1)      (nm)                 (au**2)    (au)      (au)      (au)
-----------------------------------------------------------------------------
   1   28201.3    354.6   0.000038788   0.00045   0.01279   0.01525  -0.00753

FINAL SINGLE POINT ENERGY      -191.648598342532

DIPOLE MOMENT
-------------
                                X             Y             Z
Electronic contribution:     -1.78115      -1.82353       0.35289
Nuclear contribution   :      2.12606       2.67379      -0.55224
                        -----------------------------------------
Total Dipole Moment    :      0.34491       0.85025      -0.19935
                        -----------------------------------------
Magnitude (a.u.)       :      0.93895
Magnitude (Debye)      :      2.38663

Rotational constants in cm-1:     0.708529     0.203715     0.159582
Rotational constants in MHz : 21241.164454  6107.215829  4784.138670

                             ****ORCA TERMINATED NORMALLY****
TOTAL RUN TIME: 0 days 0 hours 3 minutes 5 seconds 208 msec
