                         Program Version 5.0.3 -  RELEASE  -
|  1> ! HF-3c
|  2> !TightSCF
|  3> %scf
|  4>  ConvForced true
|  5>  convergence tight
|  6>  MaxIter 500
|  7> end
|  8>
|  9> %tddft
| 10>  nroots 1
| 11> end
| 12>
| 13> # 	20865
| 14> * xyz 0 1
| 15> 		C   -0.584227  -0.434199   0.068565
| 16> 		O   -0.551435  -1.635002  -0.048412
| 17> 		C    0.653729   0.455716  -0.059832
| 18> 		C    1.786220  -0.148904   0.042286
| 19> 		H   -1.528538   0.052349   0.205134
| 20> 		H    0.574051   1.536343  -0.098428
| 21> 		H    1.750152  -1.253795   0.282057
| 22> 		H    2.821969   0.363974  -0.254314
| 23> *
| 24>
| 25>                          ****END OF INPUT****

CARTESIAN COORDINATES (ANGSTROEM)
---------------------------------
  C     -0.584227   -0.434199    0.068565
  O     -0.551435   -1.635002   -0.048412
  C      0.653729    0.455716   -0.059832
  C      1.786220   -0.148904    0.042286
  H     -1.528538    0.052349    0.205134
  H      0.574051    1.536343   -0.098428
  H      1.750152   -1.253795    0.282057
  H      2.821969    0.363974   -0.254314

 Total Charge           Charge          ....    0
 Multiplicity           Mult            ....    1
 Number of Electrons    NEL             ....   30
 Basis Dimension        Dim             ....   24

ORBITAL ENERGIES
----------------

  NO   OCC          E(Eh)            E(eV)
   0   2.0000     -20.366518      -554.2011
   1   2.0000     -11.295809      -307.3746
   2   2.0000     -11.183368      -304.3149
   3   2.0000     -11.181213      -304.2563
   4   2.0000      -1.406408       -38.2703
   5   2.0000      -1.082583       -29.4586
   6   2.0000      -0.872135       -23.7320
   7   2.0000      -0.739491       -20.1226
   8   2.0000      -0.705994       -19.2111
   9   2.0000      -0.607448       -16.5295
  10   2.0000      -0.587660       -15.9911
  11   2.0000      -0.542484       -14.7617
  12   2.0000      -0.515095       -14.0165
  13   2.0000      -0.414582       -11.2813
  14   2.0000      -0.399165       -10.8618
  15   0.0000       0.148340         4.0365
  16   0.0000       0.306113         8.3298
  17   0.0000       0.512434        13.9441
  18   0.0000       0.568595        15.4723
  19   0.0000       0.615856        16.7583

MULLIKEN ATOMIC CHARGES
-----------------------
   0 C :    0.170855
   1 O :   -0.358756
   2 C :   -0.195155
   3 C :   -0.207035
   4 H :    0.136169
   5 H :    0.145625
   6 H :    0.159434
   7 H :    0.148863
Sum of atomic charges:    0.0000000

LOEWDIN ATOMIC CHARGES
----------------------
   0 C :    0.154270
   1 O :   -0.262580
   2 C :   -0.150699
   3 C :   -0.118163
   4 H :    0.069571
   5 H :    0.093696
   6 H :    0.108263
   7 H :    0.105643

  Mayer bond orders larger than 0.100000
B(  0-C ,  1-O ) :   1.9213 B(  0-C ,  2-C ) :   0.9936 B(  0-C ,  4-H ) :   0.9299
B(  2-C ,  3-C ) :   1.9684 B(  2-C ,  5-H ) :   0.9574 B(  3-C ,  6-H ) :   0.9507
B(  3-C ,  7-H ) :   0.9578

-----------------------------------------------------------------------------
         ABSORPTION SPECTRUM VIA TRANSITION ELECTRIC DIPOLE MOMENTS
-----------------------------------------------------------------------------
State   Energy    Wavelength  fosc         T2        TX        TY        TZ
        (cm-1)      (nm)                 (au**2)    (au)      (au)      (au)
-----------------------------------------------------------------------------
   1   34252.9    291.9   0.000046708   0.00045   0.01520   0.00158   0.01467

Dispersion correction           -0.026032467
FINAL SINGLE POINT ENERGY      -189.324453404325

DIPOLE MOMENT
-------------
                                X             Y             Z
Electronic contribution:     -1.91605      -1.55975      -0.04048
Nuclear contribution   :      2.23582       2.44480       0.12718
                        -----------------------------------------
Total Dipole Moment    :      0.31977       0.88506       0.08671
                        -----------------------------------------
Magnitude (a.u.)       :      0.94504
Magnitude (Debye)      :      2.40210

Rotational constants in cm-1:     0.755513     0.215287     0.168736
Rotational constants in MHz : 22649.710505  6454.138385  5058.577520

                             ****ORCA TERMINATED NORMALLY****
TOTAL RUN TIME: 0 days 0 hours 0 minutes 12 seconds 837 msec
