                         Program Version 5.0.3 -  RELEASE  -
|  1> ! B3LYP cc-pVDZ
|  2> !TightSCF
|  3> %scf
|  4>  ConvForced true
|  5>  convergence tight
|  6>  MaxIter 500
|  7> end
|  8>
|  9> %tddft
| 10>  nroots 1
| 11> end
| 12>
| 13> # 	7861
| 14> * xyz 0 1
| 15> 		C   -1.167859  -0.244435   0.009215
| 16> 		O   -1.235496  -1.490055  -0.142763
| 17> 		C    0.004976   0.554510  -0.020676
| 18> 		C    1.262088   0.101207   0.088531
| 19> 		H   -2.215468   0.128317   0.264500
| 20> 		H   -0.160438   1.526066  -0.167573
| 21> 		H    1.253213  -0.986650  -0.022140
| 22> 		H    2.208392   0.421377   0.037879
| 23> *
| 24>
| 25>                          ****END OF INPUT****

CARTESIAN COORDINATES (ANGSTROEM)
---------------------------------
  C     -1.167859   -0.244435    0.009215
  O     -1.235496   -1.490055   -0.142763
  C      0.004976    0.554510   -0.020676
  C      1.262088    0.101207    0.088531
  H     -2.215468    0.128317    0.264500
  H     -0.160438    1.526066   -0.167573
  H      1.253213   -0.986650   -0.022140
  H      2.208392    0.421377    0.037879

 Total Charge           Charge          ....    0
 Multiplicity           Mult            ....    1
 Number of Electrons    NEL             ....   30
 Basis Dimension        Dim             ....   76

ORBITAL ENERGIES
----------------

  NO   OCC          E(Eh)            E(eV)
   0   2.0000     -19.131790      -520.6025
   1   2.0000     -10.274022      -279.5704
   2   2.0000     -10.211799      -277.8772
   3   2.0000     -10.204247      -277.6717
   4   2.0000      -1.019046       -27.7297
   5   2.0000      -0.810220       -22.0472
   6   2.0000      -0.676094       -18.3974
   7   2.0000      -0.556364       -15.1394
   8   2.0000      -0.520768       -14.1708
   9   2.0000      -0.466608       -12.6970
  10   2.0000      -0.419460       -11.4141
  11   2.0000      -0.390154       -10.6166
  12   2.0000      -0.365042        -9.9333
  13   2.0000      -0.288078        -7.8390
  14   2.0000      -0.249631        -6.7928
  15   0.0000      -0.081073        -2.2061
  16   0.0000       0.049372         1.3435
  17   0.0000       0.081037         2.2051
  18   0.0000       0.098773         2.6877
  19   0.0000       0.123008         3.3472

MULLIKEN ATOMIC CHARGES
-----------------------
   0 C :    0.144944
   1 O :   -0.230617
   2 C :   -0.030985
   3 C :    0.131930
   4 H :   -0.000202
   5 H :   -0.047201
   6 H :    0.030067
   7 H :    0.002064
Sum of atomic charges:    0.0000000

LOEWDIN ATOMIC CHARGES
----------------------
   0 C :   -0.016578
   1 O :   -0.050447
   2 C :   -0.059616
   3 C :    0.060896
   4 H :    0.012508
   5 H :    0.007020
   6 H :    0.039158
   7 H :    0.007060

  Mayer bond orders larger than 0.100000
B(  0-C ,  1-O ) :   2.1138 B(  0-C ,  2-C ) :   1.0792 B(  0-C ,  4-H ) :   0.9387
B(  2-C ,  3-C ) :   1.9219 B(  2-C ,  5-H ) :   0.9612 B(  3-C ,  6-H ) :   0.9260
B(  3-C ,  7-H ) :   0.9635

-----------------------------------------------------------------------------
         ABSORPTION SPECTRUM VIA TRANSITION ELECTRIC DIPOLE MOMENTS
-----------------------------------------------------------------------------
State   Energy    Wavelength  fosc         T2        TX        TY        TZ
        (cm-1)      (nm)                 (au**2)    (au)      (au)      (au)
-----------------------------------------------------------------------------
   1   24068.6    415.5   0.000101904   0.00139   0.02003  -0.00914   0.03015

FINAL SINGLE POINT ENERGY      -191.661585964043

DIPOLE MOMENT
-------------
                                X             Y             Z
Electronic contribution:     -1.65929      -1.24603      -0.12264
Nuclear contribution   :      2.17501       2.19601       0.18724
                        -----------------------------------------
Total Dipole Moment    :      0.51572       0.94998       0.06460
                        -----------------------------------------
Magnitude (a.u.)       :      1.08287
Magnitude (Debye)      :      2.75243

Rotational constants in cm-1:     0.807571     0.201211     0.161914
Rotational constants in MHz : 24210.362190  6032.153479  4854.073466

                             ****ORCA TERMINATED NORMALLY****
TOTAL RUN TIME: 0 days 0 hours 3 minutes 24 seconds 526 msec
