                         Program Version 5.0.3 -  RELEASE  -
|  1> ! B3LYP cc-pVDZ
|  2> !TightSCF
|  3> %scf
|  4>  ConvForced true
|  5>  convergence tight
|  6>  MaxIter 500
|  7> end
|  8>
|  9> %tddft
| 10>  nroots 1
| 11> end
| 12>
| 13> # 	31188
| 14> * xyz 0 1
| 15> 		C   -0.569819  -0.447411   0.027308
| 16> 		O   -0.569945  -1.662779   0.000816
| 17> 		C    0.597298   0.483118  -0.019261
| 18> 		C    1.867095  -0.136812   0.005813
| 19> 		H   -1.629479   0.151646  -0.162263
| 20> 		H    0.451587   1.631062   0.055642
| 21> 		H    1.837589  -1.378412  -0.146129
| 22> 		H    2.790328   0.440939   0.085999
| 23> *
| 24>
| 25>                          ****END OF INPUT****

CARTESIAN COORDINATES (ANGSTROEM)
---------------------------------
  C     -0.569819   -0.447411    0.027308
  O     -0.569945   -1.662779    0.000816
  C      0.597298    0.483118   -0.019261
  C      1.867095   -0.136812    0.005813
  H     -1.629479    0.151646   -0.162263
  H      0.451587    1.631062    0.055642
  H      1.837589   -1.378412   -0.146129
  H      2.790328    0.440939    0.085999

 Total Charge           Charge          ....    0
 Multiplicity           Mult            ....    1
 Number of Electrons    NEL             ....   30
 Basis Dimension        Dim             ....   76

ORBITAL ENERGIES
----------------

  NO   OCC          E(Eh)            E(eV)
   0   2.0000     -19.144410      -520.9459
   1   2.0000     -10.286849      -279.9194
   2   2.0000     -10.238930      -278.6154
   3   2.0000     -10.224553      -278.2242
   4   2.0000      -1.046344       -28.4725
   5   2.0000      -0.779535       -21.2122
   6   2.0000      -0.643640       -17.5143
   7   2.0000      -0.522804       -14.2262
   8   2.0000      -0.496622       -13.5138
   9   2.0000      -0.440744       -11.9932
  10   2.0000      -0.413581       -11.2541
  11   2.0000      -0.395953       -10.7744
  12   2.0000      -0.377477       -10.2717
  13   2.0000      -0.281547        -7.6613
  14   2.0000      -0.256155        -6.9703
  15   0.0000      -0.079595        -2.1659
  16   0.0000       0.046379         1.2620
  17   0.0000       0.057878         1.5749
  18   0.0000       0.067036         1.8241
  19   0.0000       0.103610         2.8194

MULLIKEN ATOMIC CHARGES
-----------------------
   0 C :    0.161138
   1 O :   -0.189721
   2 C :   -0.130279
   3 C :    0.004638
   4 H :   -0.015059
   5 H :    0.031827
   6 H :    0.091969
   7 H :    0.045488
Sum of atomic charges:    0.0000000

LOEWDIN ATOMIC CHARGES
----------------------
   0 C :   -0.045337
   1 O :   -0.009859
   2 C :   -0.096701
   3 C :    0.017815
   4 H :   -0.005903
   5 H :    0.043562
   6 H :    0.069213
   7 H :    0.027210

  Mayer bond orders larger than 0.100000
B(  0-C ,  1-O ) :   2.1659 B(  0-C ,  2-C ) :   1.0438 B(  0-C ,  4-H ) :   0.8936
B(  2-C ,  3-C ) :   1.9013 B(  2-C ,  5-H ) :   0.9458 B(  3-C ,  6-H ) :   0.9205
B(  3-C ,  7-H ) :   0.9452

-----------------------------------------------------------------------------
         ABSORPTION SPECTRUM VIA TRANSITION ELECTRIC DIPOLE MOMENTS
-----------------------------------------------------------------------------
State   Energy    Wavelength  fosc         T2        TX        TY        TZ
        (cm-1)      (nm)                 (au**2)    (au)      (au)      (au)
-----------------------------------------------------------------------------
   1   26631.8    375.5   0.000413077   0.00511  -0.04876   0.00799  -0.05162

FINAL SINGLE POINT ENERGY      -191.659262085581

DIPOLE MOMENT
-------------
                                X             Y             Z
Electronic contribution:     -1.54854      -1.70890       0.16819
Nuclear contribution   :      2.07819       2.58045      -0.15720
                        -----------------------------------------
Total Dipole Moment    :      0.52965       0.87154       0.01099
                        -----------------------------------------
Magnitude (a.u.)       :      1.01992
Magnitude (Debye)      :      2.59243

Rotational constants in cm-1:     0.687509     0.207349     0.159522
Rotational constants in MHz : 20610.999884  6216.161217  4782.350663

                             ****ORCA TERMINATED NORMALLY****
TOTAL RUN TIME: 0 days 0 hours 3 minutes 21 seconds 584 msec
