                         Program Version 5.0.3 -  RELEASE  -
|  1> ! B3LYP cc-pVDZ
|  2> !TightSCF
|  3> %scf
|  4>  ConvForced true
|  5>  convergence tight
|  6>  MaxIter 500
|  7> end
|  8>
|  9> %tddft
| 10>  nroots 1
| 11> end
| 12>
| 13> # 	9450
| 14> * xyz 0 1
| 15> 		C   -1.200760  -0.336213   0.081409
| 16> 		O   -1.613809  -1.182878   0.799513
| 17> 		C    0.020099   0.455887   0.206796
| 18> 		C    1.226236   0.042202  -0.180122
| 19> 		H   -1.807673  -0.169023  -0.873105
| 20> 		H   -0.060608   1.486860   0.605204
| 21> 		H    1.511340  -1.056127  -0.438942
| 22> 		H    2.020577   0.812244  -0.157989
| 23> *
| 24>
| 25>                          ****END OF INPUT****

CARTESIAN COORDINATES (ANGSTROEM)
---------------------------------
  C     -1.200760   -0.336213    0.081409
  O     -1.613809   -1.182878    0.799513
  C      0.020099    0.455887    0.206796
  C      1.226236    0.042202   -0.180122
  H     -1.807673   -0.169023   -0.873105
  H     -0.060608    1.486860    0.605204
  H      1.511340   -1.056127   -0.438942
  H      2.020577    0.812244   -0.157989

 Total Charge           Charge          ....    0
 Multiplicity           Mult            ....    1
 Number of Electrons    NEL             ....   30
 Basis Dimension        Dim             ....   76

ORBITAL ENERGIES
----------------

  NO   OCC          E(Eh)            E(eV)
   0   2.0000     -19.143128      -520.9110
   1   2.0000     -10.279663      -279.7239
   2   2.0000     -10.214079      -277.9392
   3   2.0000     -10.208503      -277.7875
   4   2.0000      -1.065467       -28.9928
   5   2.0000      -0.798552       -21.7297
   6   2.0000      -0.650708       -17.7067
   7   2.0000      -0.545292       -14.8381
   8   2.0000      -0.498506       -13.5650
   9   2.0000      -0.457088       -12.4380
  10   2.0000      -0.444874       -12.1056
  11   2.0000      -0.392728       -10.6867
  12   2.0000      -0.377624       -10.2757
  13   2.0000      -0.286541        -7.7972
  14   2.0000      -0.253422        -6.8960
  15   0.0000      -0.026892        -0.7318
  16   0.0000      -0.015337        -0.4173
  17   0.0000       0.076025         2.0688
  18   0.0000       0.083094         2.2611
  19   0.0000       0.102385         2.7860

MULLIKEN ATOMIC CHARGES
-----------------------
   0 C :    0.156667
   1 O :   -0.157198
   2 C :   -0.081202
   3 C :   -0.010628
   4 H :   -0.016816
   5 H :    0.026506
   6 H :    0.047988
   7 H :    0.034683
Sum of atomic charges:    0.0000000

LOEWDIN ATOMIC CHARGES
----------------------
   0 C :   -0.048330
   1 O :    0.032409
   2 C :   -0.069646
   3 C :   -0.034388
   4 H :   -0.004955
   5 H :    0.045508
   6 H :    0.044073
   7 H :    0.035329

  Mayer bond orders larger than 0.100000
B(  0-C ,  1-O ) :   2.2681 B(  0-C ,  2-C ) :   0.9756 B(  0-C ,  4-H ) :   0.9078
B(  2-C ,  3-C ) :   2.0435 B(  2-C ,  5-H ) :   0.9259 B(  3-C ,  6-H ) :   0.9469
B(  3-C ,  7-H ) :   0.9353

-----------------------------------------------------------------------------
         ABSORPTION SPECTRUM VIA TRANSITION ELECTRIC DIPOLE MOMENTS
-----------------------------------------------------------------------------
State   Energy    Wavelength  fosc         T2        TX        TY        TZ
        (cm-1)      (nm)                 (au**2)    (au)      (au)      (au)
-----------------------------------------------------------------------------
   1   34199.8    292.4   0.000131523   0.00127  -0.02380   0.01147   0.02383

FINAL SINGLE POINT ENERGY      -191.633565878872

DIPOLE MOMENT
-------------
                                X             Y             Z
Electronic contribution:     -2.60544      -1.40468       1.27166
Nuclear contribution   :      3.12250       2.05841      -1.68778
                        -----------------------------------------
Total Dipole Moment    :      0.51706       0.65373      -0.41612
                        -----------------------------------------
Magnitude (a.u.)       :      0.93160
Magnitude (Debye)      :      2.36794

Rotational constants in cm-1:     1.007867     0.168843     0.156665
Rotational constants in MHz : 30215.102906  5061.779020  4696.693265

                             ****ORCA TERMINATED NORMALLY****
TOTAL RUN TIME: 0 days 0 hours 3 minutes 22 seconds 153 msec
