                         Program Version 5.0.3 -  RELEASE  -
|  1> ! B3LYP cc-pVDZ
|  2> !TightSCF
|  3> %scf
|  4>  ConvForced true
|  5>  convergence tight
|  6>  MaxIter 500
|  7> end
|  8>
|  9> %tddft
| 10>  nroots 1
| 11> end
| 12>
| 13> # 	13830
| 14> * xyz 0 1
| 15> 		C   -1.207554  -0.297198  -0.074884
| 16> 		O   -1.896599  -0.834865  -0.829716
| 17> 		C    0.019631   0.538236  -0.223290
| 18> 		C    1.191967   0.046942   0.119167
| 19> 		H   -1.450516  -0.662291   1.008633
| 20> 		H   -0.152221   1.411982  -0.846266
| 21> 		H    1.290758  -0.889914   0.773949
| 22> 		H    2.216677   0.667457   0.052430
| 23> *
| 24>
| 25>                          ****END OF INPUT****

CARTESIAN COORDINATES (ANGSTROEM)
---------------------------------
  C     -1.207554   -0.297198   -0.074884
  O     -1.896599   -0.834865   -0.829716
  C      0.019631    0.538236   -0.223290
  C      1.191967    0.046942    0.119167
  H     -1.450516   -0.662291    1.008633
  H     -0.152221    1.411982   -0.846266
  H      1.290758   -0.889914    0.773949
  H      2.216677    0.667457    0.052430

 Total Charge           Charge          ....    0
 Multiplicity           Mult            ....    1
 Number of Electrons    NEL             ....   30
 Basis Dimension        Dim             ....   76

ORBITAL ENERGIES
----------------

  NO   OCC          E(Eh)            E(eV)
   0   2.0000     -19.143642      -520.9250
   1   2.0000     -10.278447      -279.6908
   2   2.0000     -10.226013      -278.2639
   3   2.0000     -10.211212      -277.8612
   4   2.0000      -1.083614       -29.4866
   5   2.0000      -0.803248       -21.8575
   6   2.0000      -0.637029       -17.3344
   7   2.0000      -0.555817       -15.1245
   8   2.0000      -0.480973       -13.0879
   9   2.0000      -0.471063       -12.8183
  10   2.0000      -0.446817       -12.1585
  11   2.0000      -0.400717       -10.9041
  12   2.0000      -0.379010       -10.3134
  13   2.0000      -0.297588        -8.0978
  14   2.0000      -0.245741        -6.6869
  15   0.0000      -0.044381        -1.2077
  16   0.0000       0.014160         0.3853
  17   0.0000       0.073034         1.9874
  18   0.0000       0.078926         2.1477
  19   0.0000       0.106415         2.8957

MULLIKEN ATOMIC CHARGES
-----------------------
   0 C :    0.124014
   1 O :   -0.126059
   2 C :   -0.041118
   3 C :   -0.033671
   4 H :   -0.045164
   5 H :    0.016701
   6 H :    0.045238
   7 H :    0.060059
Sum of atomic charges:    0.0000000

LOEWDIN ATOMIC CHARGES
----------------------
   0 C :   -0.066893
   1 O :    0.060536
   2 C :   -0.069190
   3 C :   -0.030998
   4 H :   -0.021212
   5 H :    0.034964
   6 H :    0.040370
   7 H :    0.052422

  Mayer bond orders larger than 0.100000
B(  0-C ,  1-O ) :   2.2866 B(  0-C ,  2-C ) :   0.9772 B(  0-C ,  4-H ) :   0.9003
B(  2-C ,  3-C ) :   2.0081 B(  2-C ,  5-H ) :   0.9341 B(  3-C ,  6-H ) :   0.9377
B(  3-C ,  7-H ) :   0.9406

-----------------------------------------------------------------------------
         ABSORPTION SPECTRUM VIA TRANSITION ELECTRIC DIPOLE MOMENTS
-----------------------------------------------------------------------------
State   Energy    Wavelength  fosc         T2        TX        TY        TZ
        (cm-1)      (nm)                 (au**2)    (au)      (au)      (au)
-----------------------------------------------------------------------------
   1   31818.2    314.3   0.000903750   0.00935   0.05804   0.05394  -0.05543

FINAL SINGLE POINT ENERGY      -191.630979900830

DIPOLE MOMENT
-------------
                                X             Y             Z
Electronic contribution:     -2.95342      -0.65551      -1.49997
Nuclear contribution   :      3.66570       1.11173       1.88491
                        -----------------------------------------
Total Dipole Moment    :      0.71228       0.45621       0.38494
                        -----------------------------------------
Magnitude (a.u.)       :      0.92933
Magnitude (Debye)      :      2.36217

Rotational constants in cm-1:     1.180810     0.159957     0.153082
Rotational constants in MHz : 35399.786336  4795.402259  4589.271022

                             ****ORCA TERMINATED NORMALLY****
TOTAL RUN TIME: 0 days 0 hours 3 minutes 24 seconds 649 msec
