                         Program Version 5.0.3 -  RELEASE  -
|  1> ! B3LYP cc-pVDZ
|  2> !TightSCF
|  3> %scf
|  4>  ConvForced true
|  5>  convergence tight
|  6>  MaxIter 500
|  7> end
|  8>
|  9> %tddft
| 10>  nroots 1
| 11> end
| 12>
| 13> # 	16046
| 14> * xyz 0 1
| 15> 		C   -1.154411  -0.362300  -0.022103
| 16> 		O   -1.284384  -1.488382  -0.369983
| 17> 		C    0.032601   0.564194  -0.092495
| 18> 		C    1.327277   0.022205   0.108207
| 19> 		H   -2.108570   0.107871   0.369200
| 20> 		H   -0.136548   1.497790  -0.178557
| 21> 		H    1.222462  -1.054029   0.294690
| 22> 		H    2.134814   0.713490  -0.059365
| 23> *
| 24>
| 25>                          ****END OF INPUT****

CARTESIAN COORDINATES (ANGSTROEM)
---------------------------------
  C     -1.154411   -0.362300   -0.022103
  O     -1.284384   -1.488382   -0.369983
  C      0.032601    0.564194   -0.092495
  C      1.327277    0.022205    0.108207
  H     -2.108570    0.107871    0.369200
  H     -0.136548    1.497790   -0.178557
  H      1.222462   -1.054029    0.294690
  H      2.134814    0.713490   -0.059365

 Total Charge           Charge          ....    0
 Multiplicity           Mult            ....    1
 Number of Electrons    NEL             ....   30
 Basis Dimension        Dim             ....   76

ORBITAL ENERGIES
----------------

  NO   OCC          E(Eh)            E(eV)
   0   2.0000     -19.139934      -520.8241
   1   2.0000     -10.274914      -279.5946
   2   2.0000     -10.223023      -278.1826
   3   2.0000     -10.203163      -277.6422
   4   2.0000      -1.060844       -28.8670
   5   2.0000      -0.789365       -21.4797
   6   2.0000      -0.652962       -17.7680
   7   2.0000      -0.554401       -15.0860
   8   2.0000      -0.514710       -14.0060
   9   2.0000      -0.445408       -12.1202
  10   2.0000      -0.426756       -11.6126
  11   2.0000      -0.406536       -11.0624
  12   2.0000      -0.393429       -10.7057
  13   2.0000      -0.280615        -7.6359
  14   2.0000      -0.250737        -6.8229
  15   0.0000      -0.067304        -1.8314
  16   0.0000       0.035310         0.9608
  17   0.0000       0.074879         2.0376
  18   0.0000       0.092458         2.5159
  19   0.0000       0.127217         3.4617

MULLIKEN ATOMIC CHARGES
-----------------------
   0 C :    0.153292
   1 O :   -0.168400
   2 C :   -0.029056
   3 C :    0.064644
   4 H :   -0.031827
   5 H :   -0.069347
   6 H :    0.042061
   7 H :    0.038634
Sum of atomic charges:   -0.0000000

LOEWDIN ATOMIC CHARGES
----------------------
   0 C :   -0.050208
   1 O :    0.019678
   2 C :   -0.033677
   3 C :    0.026666
   4 H :   -0.012646
   5 H :   -0.019421
   6 H :    0.038614
   7 H :    0.030993

  Mayer bond orders larger than 0.100000
B(  0-C ,  1-O ) :   2.2123 B(  0-C ,  2-C ) :   1.0321 B(  0-C ,  4-H ) :   0.9102
B(  2-C ,  3-C ) :   1.9489 B(  2-C ,  5-H ) :   0.9564 B(  3-C ,  6-H ) :   0.9337
B(  3-C ,  7-H ) :   0.9476

-----------------------------------------------------------------------------
         ABSORPTION SPECTRUM VIA TRANSITION ELECTRIC DIPOLE MOMENTS
-----------------------------------------------------------------------------
State   Energy    Wavelength  fosc         T2        TX        TY        TZ
        (cm-1)      (nm)                 (au**2)    (au)      (au)      (au)
-----------------------------------------------------------------------------
   1   28156.5    355.2   0.001001130   0.01171   0.10470  -0.00760   0.02619

FINAL SINGLE POINT ENERGY      -191.643826544953

DIPOLE MOMENT
-------------
                                X             Y             Z
Electronic contribution:     -1.70005      -1.64052      -0.55512
Nuclear contribution   :      2.16411       2.49853       0.76825
                        -----------------------------------------
Total Dipole Moment    :      0.46407       0.85801       0.21312
                        -----------------------------------------
Magnitude (a.u.)       :      0.99848
Magnitude (Debye)      :      2.53793

Rotational constants in cm-1:     0.814189     0.188794     0.156322
Rotational constants in MHz : 24408.759156  5659.888851  4686.412647

                             ****ORCA TERMINATED NORMALLY****
TOTAL RUN TIME: 0 days 0 hours 3 minutes 27 seconds 759 msec
