                         Program Version 5.0.3 -  RELEASE  -
|  1> ! HF-3c
|  2> !TightSCF
|  3> %scf
|  4>  ConvForced true
|  5>  convergence tight
|  6>  MaxIter 500
|  7> end
|  8>
|  9> %tddft
| 10>  nroots 1
| 11> end
| 12>
| 13> # 	11715
| 14> * xyz 0 1
| 15> 		C   -1.141158  -0.311199   0.013049
| 16> 		O   -2.038205  -0.569629   0.945665
| 17> 		C    0.063152   0.421479   0.332778
| 18> 		C    1.150340   0.145436  -0.303067
| 19> 		H   -1.364140  -0.735600  -1.074042
| 20> 		H    0.061119   1.141513   1.062570
| 21> 		H    1.264308  -0.717232  -0.850050
| 22> 		H    2.054910   0.542679  -0.077440
| 23> *
| 24>
| 25>                          ****END OF INPUT****

CARTESIAN COORDINATES (ANGSTROEM)
---------------------------------
  C     -1.141158   -0.311199    0.013049
  O     -2.038205   -0.569629    0.945665
  C      0.063152    0.421479    0.332778
  C      1.150340    0.145436   -0.303067
  H     -1.364140   -0.735600   -1.074042
  H      0.061119    1.141513    1.062570
  H      1.264308   -0.717232   -0.850050
  H      2.054910    0.542679   -0.077440

 Total Charge           Charge          ....    0
 Multiplicity           Mult            ....    1
 Number of Electrons    NEL             ....   30
 Basis Dimension        Dim             ....   24

ORBITAL ENERGIES
----------------

  NO   OCC          E(Eh)            E(eV)
   0   2.0000     -20.337431      -553.4096
   1   2.0000     -11.275326      -306.8172
   2   2.0000     -11.215893      -305.2000
   3   2.0000     -11.201746      -304.8150
   4   2.0000      -1.327678       -36.1280
   5   2.0000      -1.120425       -30.4883
   6   2.0000      -0.897596       -24.4248
   7   2.0000      -0.789119       -21.4730
   8   2.0000      -0.675612       -18.3843
   9   2.0000      -0.664764       -18.0892
  10   2.0000      -0.568142       -15.4599
  11   2.0000      -0.552114       -15.0238
  12   2.0000      -0.498564       -13.5666
  13   2.0000      -0.418082       -11.3766
  14   2.0000      -0.399060       -10.8590
  15   0.0000       0.118327         3.2198
  16   0.0000       0.272301         7.4097
  17   0.0000       0.522195        14.2096
  18   0.0000       0.604234        16.4421
  19   0.0000       0.698245        19.0002

MULLIKEN ATOMIC CHARGES
-----------------------
   0 C :    0.143873
   1 O :   -0.331539
   2 C :   -0.177111
   3 C :   -0.248763
   4 H :    0.151546
   5 H :    0.167536
   6 H :    0.146013
   7 H :    0.148444
Sum of atomic charges:    0.0000000

LOEWDIN ATOMIC CHARGES
----------------------
   0 C :    0.139762
   1 O :   -0.267367
   2 C :   -0.111969
   3 C :   -0.142823
   4 H :    0.096746
   5 H :    0.104590
   6 H :    0.090369
   7 H :    0.090691

  Mayer bond orders larger than 0.100000
B(  0-C ,  1-O ) :   1.8938 B(  0-C ,  2-C ) :   1.0494 B(  0-C ,  4-H ) :   0.9275
B(  2-C ,  3-C ) :   1.9478 B(  2-C ,  5-H ) :   0.9489 B(  3-C ,  6-H ) :   0.9647
B(  3-C ,  7-H ) :   0.9641

-----------------------------------------------------------------------------
         ABSORPTION SPECTRUM VIA TRANSITION ELECTRIC DIPOLE MOMENTS
-----------------------------------------------------------------------------
State   Energy    Wavelength  fosc         T2        TX        TY        TZ
        (cm-1)      (nm)                 (au**2)    (au)      (au)      (au)
-----------------------------------------------------------------------------
   1   27191.2    367.8   0.000055985   0.00068  -0.02186   0.00368   0.01365

Dispersion correction           -0.025729002
FINAL SINGLE POINT ENERGY      -189.329015463844

DIPOLE MOMENT
-------------
                                X             Y             Z
Electronic contribution:     -2.98516      -0.43438       1.15246
Nuclear contribution   :      3.85779       0.59899      -1.85455
                        -----------------------------------------
Total Dipole Moment    :      0.87263       0.16461      -0.70209
                        -----------------------------------------
Magnitude (a.u.)       :      1.13204
Magnitude (Debye)      :      2.87741

Rotational constants in cm-1:     1.378245     0.158046     0.146983
Rotational constants in MHz : 41318.759137  4738.090449  4406.442585

                             ****ORCA TERMINATED NORMALLY****
TOTAL RUN TIME: 0 days 0 hours 0 minutes 12 seconds 628 msec
