                         Program Version 5.0.3 -  RELEASE  -
|  1> ! B3LYP cc-pVDZ
|  2> !TightSCF
|  3> %scf
|  4>  ConvForced true
|  5>  convergence tight
|  6>  MaxIter 500
|  7> end
|  8>
|  9> %tddft
| 10>  nroots 1
| 11> end
| 12>
| 13> # 	32356
| 14> * xyz 0 1
| 15> 		C   -0.613412  -0.432853   0.038521
| 16> 		O   -0.575615  -1.641696  -0.006239
| 17> 		C    0.651172   0.434478  -0.072552
| 18> 		C    1.823959  -0.125331   0.023711
| 19> 		H   -1.534215  -0.028679   0.071839
| 20> 		H    0.529053   1.507291   0.096357
| 21> 		H    2.038903  -1.148984  -0.155858
| 22> 		H    2.887288   0.448633   0.226815
| 23> *
| 24>
| 25>                          ****END OF INPUT****

CARTESIAN COORDINATES (ANGSTROEM)
---------------------------------
  C     -0.613412   -0.432853    0.038521
  O     -0.575615   -1.641696   -0.006239
  C      0.651172    0.434478   -0.072552
  C      1.823959   -0.125331    0.023711
  H     -1.534215   -0.028679    0.071839
  H      0.529053    1.507291    0.096357
  H      2.038903   -1.148984   -0.155858
  H      2.887288    0.448633    0.226815

 Total Charge           Charge          ....    0
 Multiplicity           Mult            ....    1
 Number of Electrons    NEL             ....   30
 Basis Dimension        Dim             ....   76

ORBITAL ENERGIES
----------------

  NO   OCC          E(Eh)            E(eV)
   0   2.0000     -19.135291      -520.6978
   1   2.0000     -10.269772      -279.4547
   2   2.0000     -10.214776      -277.9582
   3   2.0000     -10.203619      -277.6546
   4   2.0000      -1.045933       -28.4613
   5   2.0000      -0.792625       -21.5684
   6   2.0000      -0.650822       -17.7098
   7   2.0000      -0.558910       -15.2087
   8   2.0000      -0.503106       -13.6902
   9   2.0000      -0.450022       -12.2457
  10   2.0000      -0.424140       -11.5414
  11   2.0000      -0.396449       -10.7879
  12   2.0000      -0.365783        -9.9535
  13   2.0000      -0.289285        -7.8718
  14   2.0000      -0.254147        -6.9157
  15   0.0000      -0.063389        -1.7249
  16   0.0000       0.050330         1.3695
  17   0.0000       0.060440         1.6447
  18   0.0000       0.095268         2.5924
  19   0.0000       0.125311         3.4099

MULLIKEN ATOMIC CHARGES
-----------------------
   0 C :    0.233042
   1 O :   -0.195845
   2 C :   -0.105141
   3 C :    0.033511
   4 H :   -0.041429
   5 H :   -0.002305
   6 H :    0.030356
   7 H :    0.047812
Sum of atomic charges:   -0.0000000

LOEWDIN ATOMIC CHARGES
----------------------
   0 C :   -0.004150
   1 O :   -0.002959
   2 C :   -0.088508
   3 C :    0.015855
   4 H :   -0.021206
   5 H :    0.028479
   6 H :    0.022392
   7 H :    0.050096

  Mayer bond orders larger than 0.100000
B(  0-C ,  1-O ) :   2.1935 B(  0-C ,  2-C ) :   1.0130 B(  0-C ,  4-H ) :   0.9428
B(  2-C ,  3-C ) :   1.9772 B(  2-C ,  5-H ) :   0.9375 B(  3-C ,  6-H ) :   0.9384
B(  3-C ,  7-H ) :   0.9469

-----------------------------------------------------------------------------
         ABSORPTION SPECTRUM VIA TRANSITION ELECTRIC DIPOLE MOMENTS
-----------------------------------------------------------------------------
State   Energy    Wavelength  fosc         T2        TX        TY        TZ
        (cm-1)      (nm)                 (au**2)    (au)      (au)      (au)
-----------------------------------------------------------------------------
   1   28572.2    350.0   0.000433808   0.00500   0.06609   0.02276   0.01061

FINAL SINGLE POINT ENERGY      -191.651562043614

DIPOLE MOMENT
-------------
                                X             Y             Z
Electronic contribution:     -2.25236      -1.67128      -0.15215
Nuclear contribution   :      2.52070       2.51804       0.22311
                        -----------------------------------------
Total Dipole Moment    :      0.26834       0.84675       0.07096
                        -----------------------------------------
Magnitude (a.u.)       :      0.89108
Magnitude (Debye)      :      2.26495

Rotational constants in cm-1:     0.767191     0.205663     0.162747
Rotational constants in MHz : 22999.821263  6165.629936  4879.038480

                             ****ORCA TERMINATED NORMALLY****
TOTAL RUN TIME: 0 days 0 hours 3 minutes 22 seconds 825 msec
