                         Program Version 5.0.3 -  RELEASE  -
|  1> ! HF-3c
|  2> !TightSCF
|  3> %scf
|  4>  ConvForced true
|  5>  convergence tight
|  6>  MaxIter 500
|  7> end
|  8>
|  9> %tddft
| 10>  nroots 1
| 11> end
| 12>
| 13> # 	1334
| 14> * xyz 0 1
| 15> 		C   -1.199131  -0.364090  -0.041762
| 16> 		O   -2.131576  -0.583221  -0.768771
| 17> 		C    0.002645   0.377816  -0.355365
| 18> 		C    1.122277   0.095665   0.305137
| 19> 		H   -1.145837  -0.953595   0.988902
| 20> 		H    0.020408   1.174270  -1.240732
| 21> 		H    1.195090  -0.471559   1.066287
| 22> 		H    2.139861   0.643963   0.073749
| 23> *
| 24>
| 25>                          ****END OF INPUT****

CARTESIAN COORDINATES (ANGSTROEM)
---------------------------------
  C     -1.199131   -0.364090   -0.041762
  O     -2.131576   -0.583221   -0.768771
  C      0.002645    0.377816   -0.355365
  C      1.122277    0.095665    0.305137
  H     -1.145837   -0.953595    0.988902
  H      0.020408    1.174270   -1.240732
  H      1.195090   -0.471559    1.066287
  H      2.139861    0.643963    0.073749

 Total Charge           Charge          ....    0
 Multiplicity           Mult            ....    1
 Number of Electrons    NEL             ....   30
 Basis Dimension        Dim             ....   24

ORBITAL ENERGIES
----------------

  NO   OCC          E(Eh)            E(eV)
   0   2.0000     -20.365843      -554.1828
   1   2.0000     -11.296886      -307.4039
   2   2.0000     -11.199804      -304.7622
   3   2.0000     -11.195550      -304.6464
   4   2.0000      -1.405114       -38.2351
   5   2.0000      -1.094513       -29.7832
   6   2.0000      -0.883606       -24.0441
   7   2.0000      -0.769269       -20.9329
   8   2.0000      -0.677012       -18.4224
   9   2.0000      -0.637893       -17.3580
  10   2.0000      -0.572136       -15.5686
  11   2.0000      -0.543622       -14.7927
  12   2.0000      -0.534671       -14.5491
  13   2.0000      -0.405154       -11.0248
  14   2.0000      -0.399080       -10.8595
  15   0.0000       0.132562         3.6072
  16   0.0000       0.304374         8.2824
  17   0.0000       0.492637        13.4053
  18   0.0000       0.541060        14.7230
  19   0.0000       0.640432        17.4270

MULLIKEN ATOMIC CHARGES
-----------------------
   0 C :    0.174166
   1 O :   -0.354690
   2 C :   -0.156518
   3 C :   -0.240554
   4 H :    0.128727
   5 H :    0.162931
   6 H :    0.135051
   7 H :    0.150885
Sum of atomic charges:   -0.0000000

LOEWDIN ATOMIC CHARGES
----------------------
   0 C :    0.145485
   1 O :   -0.257266
   2 C :   -0.116769
   3 C :   -0.140870
   4 H :    0.072329
   5 H :    0.115206
   6 H :    0.075618
   7 H :    0.106268

  Mayer bond orders larger than 0.100000
B(  0-C ,  1-O ) :   1.9045 B(  0-C ,  2-C ) :   1.0356 B(  0-C ,  4-H ) :   0.9117
B(  2-C ,  3-C ) :   1.9455 B(  2-C ,  5-H ) :   0.9467 B(  3-C ,  6-H ) :   0.9698
B(  3-C ,  7-H ) :   0.9607

-----------------------------------------------------------------------------
         ABSORPTION SPECTRUM VIA TRANSITION ELECTRIC DIPOLE MOMENTS
-----------------------------------------------------------------------------
State   Energy    Wavelength  fosc         T2        TX        TY        TZ
        (cm-1)      (nm)                 (au**2)    (au)      (au)      (au)
-----------------------------------------------------------------------------
   1   32963.5    303.4   0.000075016   0.00075   0.00820   0.02368  -0.01101

Dispersion correction           -0.025480302
FINAL SINGLE POINT ENERGY      -189.304285172094

DIPOLE MOMENT
-------------
                                X             Y             Z
Electronic contribution:     -3.21478      -0.58230      -1.15048
Nuclear contribution   :      4.24335       0.87227       1.66254
                        -----------------------------------------
Total Dipole Moment    :      1.02857       0.28997       0.51206
                        -----------------------------------------
Magnitude (a.u.)       :      1.18501
Magnitude (Debye)      :      3.01206

Rotational constants in cm-1:     1.479332     0.158127     0.145077
Rotational constants in MHz : 44349.243120  4740.513505  4349.285339

                             ****ORCA TERMINATED NORMALLY****
TOTAL RUN TIME: 0 days 0 hours 0 minutes 16 seconds 47 msec
