                         Program Version 5.0.3 -  RELEASE  -
|  1> ! B3LYP cc-pVDZ
|  2> !TightSCF
|  3> %scf
|  4>  ConvForced true
|  5>  convergence tight
|  6>  MaxIter 500
|  7> end
|  8>
|  9> %tddft
| 10>  nroots 1
| 11> end
| 12>
| 13> # 	12819
| 14> * xyz 0 1
| 15> 		C   -1.150367  -0.325635  -0.035044
| 16> 		O   -2.199520  -0.222069  -0.684124
| 17> 		C    0.056654   0.282102  -0.503427
| 18> 		C    1.268036   0.145925   0.233951
| 19> 		H   -1.228132  -0.927711   0.967431
| 20> 		H    0.040353   0.920894  -1.307409
| 21> 		H    1.268580  -0.727828   1.045667
| 22> 		H    1.934905   0.838239   0.253925
| 23> *
| 24>
| 25>                          ****END OF INPUT****

CARTESIAN COORDINATES (ANGSTROEM)
---------------------------------
  C     -1.150367   -0.325635   -0.035044
  O     -2.199520   -0.222069   -0.684124
  C      0.056654    0.282102   -0.503427
  C      1.268036    0.145925    0.233951
  H     -1.228132   -0.927711    0.967431
  H      0.040353    0.920894   -1.307409
  H      1.268580   -0.727828    1.045667
  H      1.934905    0.838239    0.253925

 Total Charge           Charge          ....    0
 Multiplicity           Mult            ....    1
 Number of Electrons    NEL             ....   30
 Basis Dimension        Dim             ....   76

ORBITAL ENERGIES
----------------

  NO   OCC          E(Eh)            E(eV)
   0   2.0000     -19.131421      -520.5924
   1   2.0000     -10.275871      -279.6207
   2   2.0000     -10.229533      -278.3597
   3   2.0000     -10.214910      -277.9618
   4   2.0000      -1.028587       -27.9893
   5   2.0000      -0.796712       -21.6796
   6   2.0000      -0.660238       -17.9660
   7   2.0000      -0.570406       -15.5215
   8   2.0000      -0.483769       -13.1640
   9   2.0000      -0.470074       -12.7914
  10   2.0000      -0.413965       -11.2646
  11   2.0000      -0.395349       -10.7580
  12   2.0000      -0.388608       -10.5745
  13   2.0000      -0.277137        -7.5413
  14   2.0000      -0.251487        -6.8433
  15   0.0000      -0.085700        -2.3320
  16   0.0000       0.039297         1.0693
  17   0.0000       0.064359         1.7513
  18   0.0000       0.083537         2.2732
  19   0.0000       0.115370         3.1394

MULLIKEN ATOMIC CHARGES
-----------------------
   0 C :    0.147816
   1 O :   -0.222249
   2 C :   -0.016793
   3 C :    0.060177
   4 H :   -0.007473
   5 H :   -0.014811
   6 H :    0.054827
   7 H :   -0.001494
Sum of atomic charges:    0.0000000

LOEWDIN ATOMIC CHARGES
----------------------
   0 C :   -0.042657
   1 O :   -0.032787
   2 C :   -0.029650
   3 C :    0.045170
   4 H :    0.007038
   5 H :    0.017174
   6 H :    0.050330
   7 H :   -0.014617

  Mayer bond orders larger than 0.100000
B(  0-C ,  1-O ) :   2.0856 B(  0-C ,  2-C ) :   1.1243 B(  0-C ,  4-H ) :   0.9242
B(  1-O ,  3-C ) :   0.1303 B(  2-C ,  3-C ) :   1.8681 B(  2-C ,  5-H ) :   0.9546
B(  3-C ,  6-H ) :   0.9501 B(  3-C ,  7-H ) :   0.9489

-----------------------------------------------------------------------------
         ABSORPTION SPECTRUM VIA TRANSITION ELECTRIC DIPOLE MOMENTS
-----------------------------------------------------------------------------
State   Energy    Wavelength  fosc         T2        TX        TY        TZ
        (cm-1)      (nm)                 (au**2)    (au)      (au)      (au)
-----------------------------------------------------------------------------
   1   24384.6    410.1   0.000213537   0.00288   0.01557  -0.03830   0.03426

FINAL SINGLE POINT ENERGY      -191.657265191011

DIPOLE MOMENT
-------------
                                X             Y             Z
Electronic contribution:     -2.81601      -0.11719      -1.35319
Nuclear contribution   :      3.94609       0.24300       1.80648
                        -----------------------------------------
Total Dipole Moment    :      1.13008       0.12581       0.45329
                        -----------------------------------------
Magnitude (a.u.)       :      1.22409
Magnitude (Debye)      :      3.11139

Rotational constants in cm-1:     1.499723     0.154306     0.140525
Rotational constants in MHz : 44960.554946  4625.989874  4212.834746

                             ****ORCA TERMINATED NORMALLY****
TOTAL RUN TIME: 0 days 0 hours 3 minutes 26 seconds 266 msec
