                         Program Version 5.0.3 -  RELEASE  -
|  1> ! B3LYP cc-pVDZ
|  2> !TightSCF
|  3> %scf
|  4>  ConvForced true
|  5>  convergence tight
|  6>  MaxIter 500
|  7> end
|  8>
|  9> %tddft
| 10>  nroots 1
| 11> end
| 12>
| 13> # 	5011
| 14> * xyz 0 1
| 15> 		C   -1.179358  -0.365827   0.021372
| 16> 		O   -1.663034  -1.185697   0.814703
| 17> 		C   -0.022214   0.478620   0.248616
| 18> 		C    1.268992   0.088207  -0.178465
| 19> 		H   -1.784568  -0.102235  -0.925000
| 20> 		H   -0.230558   1.314041   0.710991
| 21> 		H    1.405225  -0.942090  -0.653454
| 22> 		H    2.164575   0.724703  -0.062281
| 23> *
| 24>
| 25>                          ****END OF INPUT****

CARTESIAN COORDINATES (ANGSTROEM)
---------------------------------
  C     -1.179358   -0.365827    0.021372
  O     -1.663034   -1.185697    0.814703
  C     -0.022214    0.478620    0.248616
  C      1.268992    0.088207   -0.178465
  H     -1.784568   -0.102235   -0.925000
  H     -0.230558    1.314041    0.710991
  H      1.405225   -0.942090   -0.653454
  H      2.164575    0.724703   -0.062281

 Total Charge           Charge          ....    0
 Multiplicity           Mult            ....    1
 Number of Electrons    NEL             ....   30
 Basis Dimension        Dim             ....   76

ORBITAL ENERGIES
----------------

  NO   OCC          E(Eh)            E(eV)
   0   2.0000     -19.146418      -521.0005
   1   2.0000     -10.285547      -279.8840
   2   2.0000     -10.225100      -278.2391
   3   2.0000     -10.209755      -277.8216
   4   2.0000      -1.036246       -28.1977
   5   2.0000      -0.792950       -21.5773
   6   2.0000      -0.656857       -17.8740
   7   2.0000      -0.564824       -15.3696
   8   2.0000      -0.493604       -13.4316
   9   2.0000      -0.454480       -12.3670
  10   2.0000      -0.437983       -11.9181
  11   2.0000      -0.398779       -10.8513
  12   2.0000      -0.367871       -10.0103
  13   2.0000      -0.276303        -7.5186
  14   2.0000      -0.257025        -6.9940
  15   0.0000      -0.042147        -1.1469
  16   0.0000      -0.030612        -0.8330
  17   0.0000       0.080047         2.1782
  18   0.0000       0.092450         2.5157
  19   0.0000       0.103171         2.8074

MULLIKEN ATOMIC CHARGES
-----------------------
   0 C :    0.148883
   1 O :   -0.200222
   2 C :    0.005992
   3 C :   -0.025275
   4 H :    0.002369
   5 H :   -0.024724
   6 H :    0.046799
   7 H :    0.046178
Sum of atomic charges:   -0.0000000

LOEWDIN ATOMIC CHARGES
----------------------
   0 C :   -0.009320
   1 O :   -0.016224
   2 C :   -0.031147
   3 C :   -0.021175
   4 H :    0.002956
   5 H :    0.003718
   6 H :    0.039393
   7 H :    0.031798

  Mayer bond orders larger than 0.100000
B(  0-C ,  1-O ) :   2.2020 B(  0-C ,  2-C ) :   1.0066 B(  0-C ,  4-H ) :   0.9059
B(  2-C ,  3-C ) :   1.9931 B(  2-C ,  5-H ) :   0.9488 B(  3-C ,  6-H ) :   0.9489
B(  3-C ,  7-H ) :   0.9524

-----------------------------------------------------------------------------
         ABSORPTION SPECTRUM VIA TRANSITION ELECTRIC DIPOLE MOMENTS
-----------------------------------------------------------------------------
State   Energy    Wavelength  fosc         T2        TX        TY        TZ
        (cm-1)      (nm)                 (au**2)    (au)      (au)      (au)
-----------------------------------------------------------------------------
   1   31517.0    317.3   0.000496570   0.00519  -0.06745   0.02416   0.00732

FINAL SINGLE POINT ENERGY      -191.631244804941

DIPOLE MOMENT
-------------
                                X             Y             Z
Electronic contribution:     -2.50618      -1.26733       1.25837
Nuclear contribution   :      3.06222       1.96059      -1.74702
                        -----------------------------------------
Total Dipole Moment    :      0.55603       0.69326      -0.48865
                        -----------------------------------------
Magnitude (a.u.)       :      1.01418
Magnitude (Debye)      :      2.57784

Rotational constants in cm-1:     0.989025     0.161166     0.152583
Rotational constants in MHz : 29650.213483  4831.650045  4574.335673

                             ****ORCA TERMINATED NORMALLY****
TOTAL RUN TIME: 0 days 0 hours 3 minutes 18 seconds 921 msec
