                         Program Version 5.0.3 -  RELEASE  -
|  1> ! B3LYP cc-pVDZ
|  2> !TightSCF
|  3> %scf
|  4>  ConvForced true
|  5>  convergence tight
|  6>  MaxIter 500
|  7> end
|  8>
|  9> %tddft
| 10>  nroots 1
| 11> end
| 12>
| 13> # 	16391
| 14> * xyz 0 1
| 15> 		C   -1.185301  -0.311719  -0.100290
| 16> 		O   -1.756012  -0.976348  -0.946143
| 17> 		C    0.029243   0.448787  -0.230855
| 18> 		C    1.228279   0.089890   0.155758
| 19> 		H   -1.539435  -0.394221   1.099941
| 20> 		H   -0.045233   1.345362  -0.879859
| 21> 		H    1.236559  -0.834612   0.751959
| 22> 		H    2.052254   0.657722   0.063079
| 23> *
| 24>
| 25>                          ****END OF INPUT****

CARTESIAN COORDINATES (ANGSTROEM)
---------------------------------
  C     -1.185301   -0.311719   -0.100290
  O     -1.756012   -0.976348   -0.946143
  C      0.029243    0.448787   -0.230855
  C      1.228279    0.089890    0.155758
  H     -1.539435   -0.394221    1.099941
  H     -0.045233    1.345362   -0.879859
  H      1.236559   -0.834612    0.751959
  H      2.052254    0.657722    0.063079

 Total Charge           Charge          ....    0
 Multiplicity           Mult            ....    1
 Number of Electrons    NEL             ....   30
 Basis Dimension        Dim             ....   76

ORBITAL ENERGIES
----------------

  NO   OCC          E(Eh)            E(eV)
   0   2.0000     -19.153422      -521.1911
   1   2.0000     -10.293599      -280.1031
   2   2.0000     -10.207771      -277.7676
   3   2.0000     -10.201535      -277.5979
   4   2.0000      -1.052685       -28.6450
   5   2.0000      -0.813061       -22.1245
   6   2.0000      -0.664117       -18.0716
   7   2.0000      -0.549505       -14.9528
   8   2.0000      -0.495478       -13.4827
   9   2.0000      -0.468158       -12.7392
  10   2.0000      -0.445764       -12.1299
  11   2.0000      -0.400660       -10.9025
  12   2.0000      -0.369122       -10.0443
  13   2.0000      -0.294211        -8.0059
  14   2.0000      -0.259519        -7.0619
  15   0.0000      -0.052236        -1.4214
  16   0.0000       0.001176         0.0320
  17   0.0000       0.076658         2.0860
  18   0.0000       0.089262         2.4289
  19   0.0000       0.099424         2.7055

MULLIKEN ATOMIC CHARGES
-----------------------
   0 C :    0.128211
   1 O :   -0.171809
   2 C :   -0.092632
   3 C :    0.110887
   4 H :   -0.012755
   5 H :    0.022457
   6 H :    0.015369
   7 H :    0.000272
Sum of atomic charges:   -0.0000000

LOEWDIN ATOMIC CHARGES
----------------------
   0 C :   -0.029554
   1 O :    0.009706
   2 C :   -0.065170
   3 C :    0.000916
   4 H :   -0.004370
   5 H :    0.044539
   6 H :    0.033603
   7 H :    0.010331

  Mayer bond orders larger than 0.100000
B(  0-C ,  1-O ) :   2.2249 B(  0-C ,  2-C ) :   1.0017 B(  0-C ,  4-H ) :   0.8787
B(  2-C ,  3-C ) :   2.0483 B(  2-C ,  5-H ) :   0.9255 B(  3-C ,  6-H ) :   0.9379
B(  3-C ,  7-H ) :   0.9351

-----------------------------------------------------------------------------
         ABSORPTION SPECTRUM VIA TRANSITION ELECTRIC DIPOLE MOMENTS
-----------------------------------------------------------------------------
State   Energy    Wavelength  fosc         T2        TX        TY        TZ
        (cm-1)      (nm)                 (au**2)    (au)      (au)      (au)
-----------------------------------------------------------------------------
   1   31570.8    316.7   0.000507171   0.00529   0.02000  -0.01540   0.06820

FINAL SINGLE POINT ENERGY      -191.635418800109

DIPOLE MOMENT
-------------
                                X             Y             Z
Electronic contribution:     -2.59708      -0.96041      -1.59528
Nuclear contribution   :      3.28703       1.52601       2.04581
                        -----------------------------------------
Total Dipole Moment    :      0.68995       0.56561       0.45053
                        -----------------------------------------
Magnitude (a.u.)       :      0.99946
Magnitude (Debye)      :      2.54043

Rotational constants in cm-1:     1.140791     0.159927     0.157487
Rotational constants in MHz : 34200.041639  4794.485237  4721.327157

                             ****ORCA TERMINATED NORMALLY****
TOTAL RUN TIME: 0 days 0 hours 3 minutes 14 seconds 628 msec
