                         Program Version 5.0.3 -  RELEASE  -
|  1> ! HF-3c
|  2> !TightSCF
|  3> %scf
|  4>  ConvForced true
|  5>  convergence tight
|  6>  MaxIter 500
|  7> end
|  8>
|  9> %tddft
| 10>  nroots 1
| 11> end
| 12>
| 13> # 	26149
| 14> * xyz 0 1
| 15> 		C   -0.573515  -0.446560  -0.030315
| 16> 		O   -0.604739  -1.642559   0.014080
| 17> 		C    0.644883   0.410118   0.015948
| 18> 		C    1.844893  -0.120143  -0.016748
| 19> 		H   -1.448613   0.088321   0.033501
| 20> 		H    0.595664   1.606647   0.043650
| 21> 		H    2.019563  -1.075938  -0.000406
| 22> 		H    2.598969   0.570400   0.076383
| 23> *
| 24>
| 25>                          ****END OF INPUT****

CARTESIAN COORDINATES (ANGSTROEM)
---------------------------------
  C     -0.573515   -0.446560   -0.030315
  O     -0.604739   -1.642559    0.014080
  C      0.644883    0.410118    0.015948
  C      1.844893   -0.120143   -0.016748
  H     -1.448613    0.088321    0.033501
  H      0.595664    1.606647    0.043650
  H      2.019563   -1.075938   -0.000406
  H      2.598969    0.570400    0.076383

 Total Charge           Charge          ....    0
 Multiplicity           Mult            ....    1
 Number of Electrons    NEL             ....   30
 Basis Dimension        Dim             ....   24

ORBITAL ENERGIES
----------------

  NO   OCC          E(Eh)            E(eV)
   0   2.0000     -20.380966      -554.5943
   1   2.0000     -11.306128      -307.6554
   2   2.0000     -11.194193      -304.6095
   3   2.0000     -11.191785      -304.5440
   4   2.0000      -1.418836       -38.6085
   5   2.0000      -1.094022       -29.7699
   6   2.0000      -0.910187       -24.7675
   7   2.0000      -0.767269       -20.8784
   8   2.0000      -0.720908       -19.6169
   9   2.0000      -0.626457       -17.0468
  10   2.0000      -0.604619       -16.4525
  11   2.0000      -0.552915       -15.0456
  12   2.0000      -0.541369       -14.7314
  13   2.0000      -0.421260       -11.4631
  14   2.0000      -0.406637       -11.0652
  15   0.0000       0.129812         3.5324
  16   0.0000       0.309737         8.4284
  17   0.0000       0.511670        13.9232
  18   0.0000       0.606392        16.5008
  19   0.0000       0.765750        20.8371

MULLIKEN ATOMIC CHARGES
-----------------------
   0 C :    0.157755
   1 O :   -0.343203
   2 C :   -0.142556
   3 C :   -0.262403
   4 H :    0.135474
   5 H :    0.149989
   6 H :    0.156201
   7 H :    0.148742
Sum of atomic charges:    0.0000000

LOEWDIN ATOMIC CHARGES
----------------------
   0 C :    0.143814
   1 O :   -0.243850
   2 C :   -0.108020
   3 C :   -0.148826
   4 H :    0.064454
   5 H :    0.105239
   6 H :    0.093217
   7 H :    0.093972

  Mayer bond orders larger than 0.100000
B(  0-C ,  1-O ) :   1.9163 B(  0-C ,  2-C ) :   1.0131 B(  0-C ,  4-H ) :   0.9320
B(  2-C ,  3-C ) :   1.9562 B(  2-C ,  5-H ) :   0.9552 B(  3-C ,  6-H ) :   0.9631
B(  3-C ,  7-H ) :   0.9646

-----------------------------------------------------------------------------
         ABSORPTION SPECTRUM VIA TRANSITION ELECTRIC DIPOLE MOMENTS
-----------------------------------------------------------------------------
State   Energy    Wavelength  fosc         T2        TX        TY        TZ
        (cm-1)      (nm)                 (au**2)    (au)      (au)      (au)
-----------------------------------------------------------------------------
   1   32695.9    305.8   0.000051616   0.00052  -0.02164  -0.00536   0.00474

Dispersion correction           -0.025925734
FINAL SINGLE POINT ENERGY      -189.312649326607

DIPOLE MOMENT
-------------
                                X             Y             Z
Electronic contribution:     -2.11762      -1.88221      -0.12859
Nuclear contribution   :      2.37225       2.90339       0.14347
                        -----------------------------------------
Total Dipole Moment    :      0.25463       1.02117       0.01488
                        -----------------------------------------
Magnitude (a.u.)       :      1.05255
Magnitude (Debye)      :      2.67536

Rotational constants in cm-1:     0.807898     0.205785     0.164103
Rotational constants in MHz : 24220.182798  6169.274581  4919.697613

                             ****ORCA TERMINATED NORMALLY****
TOTAL RUN TIME: 0 days 0 hours 0 minutes 11 seconds 869 msec
