                         Program Version 5.0.3 -  RELEASE  -
|  1> ! HF-3c
|  2> !TightSCF
|  3> %scf
|  4>  ConvForced true
|  5>  convergence tight
|  6>  MaxIter 500
|  7> end
|  8>
|  9> %tddft
| 10>  nroots 1
| 11> end
| 12>
| 13> # 	29570
| 14> * xyz 0 1
| 15> 		C   -0.582517  -0.423339   0.038295
| 16> 		O   -0.622881  -1.691761  -0.022754
| 17> 		C    0.647934   0.435818   0.012772
| 18> 		C    1.869831  -0.064996  -0.024175
| 19> 		H   -1.431637   0.076694  -0.054676
| 20> 		H    0.412661   1.363762  -0.148998
| 21> 		H    1.986313  -1.150997   0.238190
| 22> 		H    2.807934   0.423595  -0.003482
| 23> *
| 24>
| 25>                          ****END OF INPUT****

CARTESIAN COORDINATES (ANGSTROEM)
---------------------------------
  C     -0.582517   -0.423339    0.038295
  O     -0.622881   -1.691761   -0.022754
  C      0.647934    0.435818    0.012772
  C      1.869831   -0.064996   -0.024175
  H     -1.431637    0.076694   -0.054676
  H      0.412661    1.363762   -0.148998
  H      1.986313   -1.150997    0.238190
  H      2.807934    0.423595   -0.003482

 Total Charge           Charge          ....    0
 Multiplicity           Mult            ....    1
 Number of Electrons    NEL             ....   30
 Basis Dimension        Dim             ....   24

ORBITAL ENERGIES
----------------

  NO   OCC          E(Eh)            E(eV)
   0   2.0000     -20.359136      -554.0002
   1   2.0000     -11.288804      -307.1840
   2   2.0000     -11.202724      -304.8416
   3   2.0000     -11.200801      -304.7893
   4   2.0000      -1.363502       -37.1028
   5   2.0000      -1.091666       -29.7057
   6   2.0000      -0.917365       -24.9628
   7   2.0000      -0.782504       -21.2930
   8   2.0000      -0.710870       -19.3438
   9   2.0000      -0.632354       -17.2072
  10   2.0000      -0.592156       -16.1134
  11   2.0000      -0.533101       -14.5064
  12   2.0000      -0.522303       -14.2126
  13   2.0000      -0.426377       -11.6023
  14   2.0000      -0.399036       -10.8583
  15   0.0000       0.115998         3.1565
  16   0.0000       0.285552         7.7703
  17   0.0000       0.528037        14.3686
  18   0.0000       0.666863        18.1463
  19   0.0000       0.675988        18.3946

MULLIKEN ATOMIC CHARGES
-----------------------
   0 C :    0.137382
   1 O :   -0.330992
   2 C :   -0.193897
   3 C :   -0.205603
   4 H :    0.139721
   5 H :    0.142481
   6 H :    0.159873
   7 H :    0.151035
Sum of atomic charges:   -0.0000000

LOEWDIN ATOMIC CHARGES
----------------------
   0 C :    0.141889
   1 O :   -0.253871
   2 C :   -0.137664
   3 C :   -0.103750
   4 H :    0.068002
   5 H :    0.081179
   6 H :    0.107956
   7 H :    0.096259

  Mayer bond orders larger than 0.100000
B(  0-C ,  1-O ) :   1.9043 B(  0-C ,  2-C ) :   1.0275 B(  0-C ,  4-H ) :   0.9447
B(  2-C ,  3-C ) :   1.9446 B(  2-C ,  5-H ) :   0.9619 B(  3-C ,  6-H ) :   0.9564
B(  3-C ,  7-H ) :   0.9642

-----------------------------------------------------------------------------
         ABSORPTION SPECTRUM VIA TRANSITION ELECTRIC DIPOLE MOMENTS
-----------------------------------------------------------------------------
State   Energy    Wavelength  fosc         T2        TX        TY        TZ
        (cm-1)      (nm)                 (au**2)    (au)      (au)      (au)
-----------------------------------------------------------------------------
   1   28967.6    345.2   0.000005154   0.00006  -0.00688   0.00040   0.00333

Dispersion correction           -0.025748340
FINAL SINGLE POINT ENERGY      -189.327292112403

DIPOLE MOMENT
-------------
                                X             Y             Z
Electronic contribution:     -1.97577      -1.60301       0.00679
Nuclear contribution   :      2.38460       2.45690       0.02943
                        -----------------------------------------
Total Dipole Moment    :      0.40882       0.85390       0.03623
                        -----------------------------------------
Magnitude (a.u.)       :      0.94741
Magnitude (Debye)      :      2.40813

Rotational constants in cm-1:     0.780247     0.196949     0.157600
Rotational constants in MHz : 23391.223642  5904.386676  4724.740351

                             ****ORCA TERMINATED NORMALLY****
TOTAL RUN TIME: 0 days 0 hours 0 minutes 11 seconds 853 msec
