                         Program Version 5.0.3 -  RELEASE  -
|  1> ! HF-3c
|  2> !TightSCF
|  3> %scf
|  4>  ConvForced true
|  5>  convergence tight
|  6>  MaxIter 500
|  7> end
|  8>
|  9> %tddft
| 10>  nroots 1
| 11> end
| 12>
| 13> # 	29834
| 14> * xyz 0 1
| 15> 		C   -0.577966  -0.430084  -0.017395
| 16> 		O   -0.577701  -1.655149   0.023279
| 17> 		C    0.579702   0.446617   0.070353
| 18> 		C    1.893306  -0.138552  -0.038668
| 19> 		H   -1.379241   0.109611  -0.462266
| 20> 		H    0.406497   1.603379   0.071103
| 21> 		H    1.748598  -1.255543  -0.075177
| 22> 		H    2.769545   0.498978  -0.065527
| 23> *
| 24>
| 25>                          ****END OF INPUT****

CARTESIAN COORDINATES (ANGSTROEM)
---------------------------------
  C     -0.577966   -0.430084   -0.017395
  O     -0.577701   -1.655149    0.023279
  C      0.579702    0.446617    0.070353
  C      1.893306   -0.138552   -0.038668
  H     -1.379241    0.109611   -0.462266
  H      0.406497    1.603379    0.071103
  H      1.748598   -1.255543   -0.075177
  H      2.769545    0.498978   -0.065527

 Total Charge           Charge          ....    0
 Multiplicity           Mult            ....    1
 Number of Electrons    NEL             ....   30
 Basis Dimension        Dim             ....   24

ORBITAL ENERGIES
----------------

  NO   OCC          E(Eh)            E(eV)
   0   2.0000     -20.354737      -553.8805
   1   2.0000     -11.289569      -307.2048
   2   2.0000     -11.185117      -304.3625
   3   2.0000     -11.172489      -304.0189
   4   2.0000      -1.387453       -37.7545
   5   2.0000      -1.050010       -28.5722
   6   2.0000      -0.894436       -24.3388
   7   2.0000      -0.734562       -19.9885
   8   2.0000      -0.686906       -18.6917
   9   2.0000      -0.602107       -16.3842
  10   2.0000      -0.586863       -15.9694
  11   2.0000      -0.532543       -14.4912
  12   2.0000      -0.510916       -13.9027
  13   2.0000      -0.412468       -11.2238
  14   2.0000      -0.361064        -9.8250
  15   0.0000       0.114929         3.1274
  16   0.0000       0.285053         7.7567
  17   0.0000       0.554511        15.0890
  18   0.0000       0.569733        15.5032
  19   0.0000       0.633530        17.2392

MULLIKEN ATOMIC CHARGES
-----------------------
   0 C :    0.141349
   1 O :   -0.358317
   2 C :   -0.163962
   3 C :   -0.212118
   4 H :    0.133643
   5 H :    0.136376
   6 H :    0.171627
   7 H :    0.151401
Sum of atomic charges:    0.0000000

LOEWDIN ATOMIC CHARGES
----------------------
   0 C :    0.135604
   1 O :   -0.269987
   2 C :   -0.134115
   3 C :   -0.111037
   4 H :    0.068044
   5 H :    0.092176
   6 H :    0.119300
   7 H :    0.100014

  Mayer bond orders larger than 0.100000
B(  0-C ,  1-O ) :   1.8784 B(  0-C ,  2-C ) :   1.0586 B(  0-C ,  4-H ) :   0.9280
B(  2-C ,  3-C ) :   1.8999 B(  2-C ,  5-H ) :   0.9614 B(  3-C ,  6-H ) :   0.9539
B(  3-C ,  7-H ) :   0.9662

-----------------------------------------------------------------------------
         ABSORPTION SPECTRUM VIA TRANSITION ELECTRIC DIPOLE MOMENTS
-----------------------------------------------------------------------------
State   Energy    Wavelength  fosc         T2        TX        TY        TZ
        (cm-1)      (nm)                 (au**2)    (au)      (au)      (au)
-----------------------------------------------------------------------------
   1   31029.4    322.3   0.000072309   0.00077   0.01536  -0.00146  -0.02301

Dispersion correction           -0.025744510
FINAL SINGLE POINT ENERGY      -189.316164114948

DIPOLE MOMENT
-------------
                                X             Y             Z
Electronic contribution:     -1.76376      -1.71962       0.37037
Nuclear contribution   :      2.16905       2.68602      -0.49918
                        -----------------------------------------
Total Dipole Moment    :      0.40529       0.96640      -0.12881
                        -----------------------------------------
Magnitude (a.u.)       :      1.05583
Magnitude (Debye)      :      2.68372

Rotational constants in cm-1:     0.711930     0.207540     0.161680
Rotational constants in MHz : 21343.112196  6221.903583  4847.048761

                             ****ORCA TERMINATED NORMALLY****
TOTAL RUN TIME: 0 days 0 hours 0 minutes 10 seconds 98 msec
