                         Program Version 5.0.3 -  RELEASE  -
|  1> ! HF-3c
|  2> !TightSCF
|  3> %scf
|  4>  ConvForced true
|  5>  convergence tight
|  6>  MaxIter 500
|  7> end
|  8>
|  9> %tddft
| 10>  nroots 1
| 11> end
| 12>
| 13> # 	24855
| 14> * xyz 0 1
| 15> 		C   -0.588904  -0.433715  -0.088114
| 16> 		O   -0.610192  -1.677277   0.055222
| 17> 		C    0.654856   0.394944   0.072359
| 18> 		C    1.874530  -0.068008  -0.052476
| 19> 		H   -1.657463   0.289662  -0.262218
| 20> 		H    0.468197   1.459705   0.255718
| 21> 		H    2.008030  -1.159083  -0.127122
| 22> 		H    2.709028   0.575010   0.093065
| 23> *
| 24>
| 25>                          ****END OF INPUT****

CARTESIAN COORDINATES (ANGSTROEM)
---------------------------------
  C     -0.588904   -0.433715   -0.088114
  O     -0.610192   -1.677277    0.055222
  C      0.654856    0.394944    0.072359
  C      1.874530   -0.068008   -0.052476
  H     -1.657463    0.289662   -0.262218
  H      0.468197    1.459705    0.255718
  H      2.008030   -1.159083   -0.127122
  H      2.709028    0.575010    0.093065

 Total Charge           Charge          ....    0
 Multiplicity           Mult            ....    1
 Number of Electrons    NEL             ....   30
 Basis Dimension        Dim             ....   24

ORBITAL ENERGIES
----------------

  NO   OCC          E(Eh)            E(eV)
   0   2.0000     -20.352489      -553.8194
   1   2.0000     -11.282933      -307.0242
   2   2.0000     -11.190727      -304.5152
   3   2.0000     -11.189182      -304.4731
   4   2.0000      -1.366997       -37.1979
   5   2.0000      -1.081447       -29.4277
   6   2.0000      -0.877275       -23.8719
   7   2.0000      -0.724522       -19.7152
   8   2.0000      -0.683883       -18.6094
   9   2.0000      -0.605939       -16.4884
  10   2.0000      -0.584698       -15.9104
  11   2.0000      -0.528605       -14.3841
  12   2.0000      -0.511169       -13.9096
  13   2.0000      -0.399352       -10.8669
  14   2.0000      -0.397955       -10.8289
  15   0.0000       0.133487         3.6324
  16   0.0000       0.301324         8.1994
  17   0.0000       0.438659        11.9365
  18   0.0000       0.597235        16.2516
  19   0.0000       0.622992        16.9525

MULLIKEN ATOMIC CHARGES
-----------------------
   0 C :    0.179047
   1 O :   -0.355534
   2 C :   -0.174596
   3 C :   -0.231618
   4 H :    0.133675
   5 H :    0.139503
   6 H :    0.161701
   7 H :    0.147821
Sum of atomic charges:    0.0000000

LOEWDIN ATOMIC CHARGES
----------------------
   0 C :    0.151720
   1 O :   -0.271227
   2 C :   -0.129196
   3 C :   -0.131292
   4 H :    0.087533
   5 H :    0.088773
   6 H :    0.108464
   7 H :    0.095225

  Mayer bond orders larger than 0.100000
B(  0-C ,  1-O ) :   1.9164 B(  0-C ,  2-C ) :   1.0149 B(  0-C ,  4-H ) :   0.9043
B(  2-C ,  3-C ) :   1.9584 B(  2-C ,  5-H ) :   0.9576 B(  3-C ,  6-H ) :   0.9562
B(  3-C ,  7-H ) :   0.9630

-----------------------------------------------------------------------------
         ABSORPTION SPECTRUM VIA TRANSITION ELECTRIC DIPOLE MOMENTS
-----------------------------------------------------------------------------
State   Energy    Wavelength  fosc         T2        TX        TY        TZ
        (cm-1)      (nm)                 (au**2)    (au)      (au)      (au)
-----------------------------------------------------------------------------
   1   31206.5    320.4   0.000118982   0.00126   0.03426  -0.00638  -0.00638

Dispersion correction           -0.025267016
FINAL SINGLE POINT ENERGY      -189.328320547149

DIPOLE MOMENT
-------------
                                X             Y             Z
Electronic contribution:     -1.91108      -1.86707      -0.03736
Nuclear contribution   :      2.15150       2.87899      -0.03878
                        -----------------------------------------
Total Dipole Moment    :      0.24043       1.01192      -0.07615
                        -----------------------------------------
Magnitude (a.u.)       :      1.04287
Magnitude (Debye)      :      2.65077

Rotational constants in cm-1:     0.757573     0.197332     0.157718
Rotational constants in MHz : 22711.471891  5915.872373  4728.267777

                             ****ORCA TERMINATED NORMALLY****
TOTAL RUN TIME: 0 days 0 hours 0 minutes 13 seconds 729 msec
