                         Program Version 5.0.3 -  RELEASE  -
|  1> ! B3LYP cc-pVDZ
|  2> !TightSCF
|  3> %scf
|  4>  ConvForced true
|  5>  convergence tight
|  6>  MaxIter 500
|  7> end
|  8>
|  9> %tddft
| 10>  nroots 1
| 11> end
| 12>
| 13> # 	602
| 14> * xyz 0 1
| 15> 		C   -1.177695  -0.343368  -0.080984
| 16> 		O   -1.240988  -1.478451   0.240699
| 17> 		C    0.079419   0.498198   0.085921
| 18> 		C    1.256078   0.001203  -0.125709
| 19> 		H   -2.147143   0.196682  -0.451918
| 20> 		H   -0.101240   1.547094   0.492603
| 21> 		H    1.347397  -1.018686  -0.197757
| 22> 		H    1.988960   0.603544   0.062072
| 23> *
| 24>
| 25>                          ****END OF INPUT****

CARTESIAN COORDINATES (ANGSTROEM)
---------------------------------
  C     -1.177695   -0.343368   -0.080984
  O     -1.240988   -1.478451    0.240699
  C      0.079419    0.498198    0.085921
  C      1.256078    0.001203   -0.125709
  H     -2.147143    0.196682   -0.451918
  H     -0.101240    1.547094    0.492603
  H      1.347397   -1.018686   -0.197757
  H      1.988960    0.603544    0.062072

 Total Charge           Charge          ....    0
 Multiplicity           Mult            ....    1
 Number of Electrons    NEL             ....   30
 Basis Dimension        Dim             ....   76

ORBITAL ENERGIES
----------------

  NO   OCC          E(Eh)            E(eV)
   0   2.0000     -19.143972      -520.9340
   1   2.0000     -10.280464      -279.7456
   2   2.0000     -10.204187      -277.6701
   3   2.0000     -10.183097      -277.0961
   4   2.0000      -1.067298       -29.0427
   5   2.0000      -0.804554       -21.8930
   6   2.0000      -0.651121       -17.7179
   7   2.0000      -0.538975       -14.6663
   8   2.0000      -0.516914       -14.0660
   9   2.0000      -0.450363       -12.2550
  10   2.0000      -0.443232       -12.0609
  11   2.0000      -0.404550       -11.0084
  12   2.0000      -0.386976       -10.5302
  13   2.0000      -0.293972        -7.9994
  14   2.0000      -0.253598        -6.9007
  15   0.0000      -0.050164        -1.3650
  16   0.0000       0.034442         0.9372
  17   0.0000       0.075585         2.0568
  18   0.0000       0.097784         2.6608
  19   0.0000       0.116871         3.1802

MULLIKEN ATOMIC CHARGES
-----------------------
   0 C :    0.147148
   1 O :   -0.158104
   2 C :   -0.172253
   3 C :    0.211823
   4 H :   -0.015968
   5 H :    0.011002
   6 H :    0.001162
   7 H :   -0.024811
Sum of atomic charges:   -0.0000000

LOEWDIN ATOMIC CHARGES
----------------------
   0 C :   -0.044524
   1 O :    0.028627
   2 C :   -0.061957
   3 C :    0.023688
   4 H :   -0.006336
   5 H :    0.037814
   6 H :    0.021862
   7 H :    0.000826

  Mayer bond orders larger than 0.100000
B(  0-C ,  1-O ) :   2.2355 B(  0-C ,  2-C ) :   0.9929 B(  0-C ,  4-H ) :   0.8988
B(  2-C ,  3-C ) :   2.0264 B(  2-C ,  5-H ) :   0.9368 B(  3-C ,  6-H ) :   0.9308
B(  3-C ,  7-H ) :   0.9262

-----------------------------------------------------------------------------
         ABSORPTION SPECTRUM VIA TRANSITION ELECTRIC DIPOLE MOMENTS
-----------------------------------------------------------------------------
State   Energy    Wavelength  fosc         T2        TX        TY        TZ
        (cm-1)      (nm)                 (au**2)    (au)      (au)      (au)
-----------------------------------------------------------------------------
   1   31511.1    317.3   0.000034602   0.00036   0.01148  -0.00960  -0.01172

FINAL SINGLE POINT ENERGY      -191.634041745875

DIPOLE MOMENT
-------------
                                X             Y             Z
Electronic contribution:     -1.79943      -1.82185       0.14665
Nuclear contribution   :      2.13552       2.59822      -0.24044
                        -----------------------------------------
Total Dipole Moment    :      0.33609       0.77636      -0.09379
                        -----------------------------------------
Magnitude (a.u.)       :      0.85117
Magnitude (Debye)      :      2.16350

Rotational constants in cm-1:     0.820171     0.200707     0.165536
Rotational constants in MHz : 24588.098769  6017.029616  4962.634138

                             ****ORCA TERMINATED NORMALLY****
TOTAL RUN TIME: 0 days 0 hours 3 minutes 27 seconds 851 msec
