                         Program Version 5.0.3 -  RELEASE  -
|  1> ! B3LYP cc-pVDZ
|  2> !TightSCF
|  3> %scf
|  4>  ConvForced true
|  5>  convergence tight
|  6>  MaxIter 500
|  7> end
|  8>
|  9> %tddft
| 10>  nroots 1
| 11> end
| 12>
| 13> # 	32446
| 14> * xyz 0 1
| 15> 		C   -0.646127  -0.396288  -0.064471
| 16> 		O   -0.580233  -1.683209   0.047434
| 17> 		C    0.659562   0.390733   0.067808
| 18> 		C    1.864032  -0.071832  -0.060134
| 19> 		H   -1.681652   0.042944  -0.344980
| 20> 		H    0.515452   1.527056   0.251359
| 21> 		H    2.057727  -1.104173  -0.068749
| 22> 		H    2.900456   0.432490   0.110059
| 23> *
| 24>
| 25>                          ****END OF INPUT****

CARTESIAN COORDINATES (ANGSTROEM)
---------------------------------
  C     -0.646127   -0.396288   -0.064471
  O     -0.580233   -1.683209    0.047434
  C      0.659562    0.390733    0.067808
  C      1.864032   -0.071832   -0.060134
  H     -1.681652    0.042944   -0.344980
  H      0.515452    1.527056    0.251359
  H      2.057727   -1.104173   -0.068749
  H      2.900456    0.432490    0.110059

 Total Charge           Charge          ....    0
 Multiplicity           Mult            ....    1
 Number of Electrons    NEL             ....   30
 Basis Dimension        Dim             ....   76

ORBITAL ENERGIES
----------------

  NO   OCC          E(Eh)            E(eV)
   0   2.0000     -19.142048      -520.8816
   1   2.0000     -10.293863      -280.1103
   2   2.0000     -10.217962      -278.0449
   3   2.0000     -10.210292      -277.8362
   4   2.0000      -1.006151       -27.3787
   5   2.0000      -0.795087       -21.6354
   6   2.0000      -0.650520       -17.7015
   7   2.0000      -0.549290       -14.9469
   8   2.0000      -0.491430       -13.3725
   9   2.0000      -0.452336       -12.3087
  10   2.0000      -0.418854       -11.3976
  11   2.0000      -0.376206       -10.2371
  12   2.0000      -0.356534        -9.7018
  13   2.0000      -0.292304        -7.9540
  14   2.0000      -0.256640        -6.9835
  15   0.0000      -0.076264        -2.0752
  16   0.0000       0.038106         1.0369
  17   0.0000       0.056256         1.5308
  18   0.0000       0.089006         2.4220
  19   0.0000       0.100575         2.7368

MULLIKEN ATOMIC CHARGES
-----------------------
   0 C :    0.164239
   1 O :   -0.244421
   2 C :   -0.097369
   3 C :    0.064515
   4 H :    0.032276
   5 H :    0.010168
   6 H :    0.021220
   7 H :    0.049373
Sum of atomic charges:    0.0000000

LOEWDIN ATOMIC CHARGES
----------------------
   0 C :    0.022482
   1 O :   -0.075660
   2 C :   -0.082974
   3 C :    0.004800
   4 H :    0.020638
   5 H :    0.037523
   6 H :    0.022250
   7 H :    0.050941

  Mayer bond orders larger than 0.100000
B(  0-C ,  1-O ) :   2.0999 B(  0-C ,  2-C ) :   1.0080 B(  0-C ,  4-H ) :   0.9220
B(  2-C ,  3-C ) :   1.9935 B(  2-C ,  5-H ) :   0.9311 B(  3-C ,  6-H ) :   0.9300
B(  3-C ,  7-H ) :   0.9462

-----------------------------------------------------------------------------
         ABSORPTION SPECTRUM VIA TRANSITION ELECTRIC DIPOLE MOMENTS
-----------------------------------------------------------------------------
State   Energy    Wavelength  fosc         T2        TX        TY        TZ
        (cm-1)      (nm)                 (au**2)    (au)      (au)      (au)
-----------------------------------------------------------------------------
   1   25618.9    390.3   0.000225118   0.00289   0.04739   0.00409   0.02510

FINAL SINGLE POINT ENERGY      -191.663043457214

DIPOLE MOMENT
-------------
                                X             Y             Z
Electronic contribution:     -2.09761      -1.70978       0.00211
Nuclear contribution   :      2.40056       2.62917      -0.04999
                        -----------------------------------------
Total Dipole Moment    :      0.30295       0.91939      -0.04787
                        -----------------------------------------
Magnitude (a.u.)       :      0.96920
Magnitude (Debye)      :      2.46351

Rotational constants in cm-1:     0.734868     0.196549     0.156177
Rotational constants in MHz : 22030.777125  5892.401915  4682.063286

                             ****ORCA TERMINATED NORMALLY****
TOTAL RUN TIME: 0 days 0 hours 3 minutes 21 seconds 658 msec
