                         Program Version 5.0.3 -  RELEASE  -
|  1> ! B3LYP cc-pVDZ
|  2> !TightSCF
|  3> %scf
|  4>  ConvForced true
|  5>  convergence tight
|  6>  MaxIter 500
|  7> end
|  8>
|  9> %tddft
| 10>  nroots 1
| 11> end
| 12>
| 13> # 	31362
| 14> * xyz 0 1
| 15> 		C   -0.600112  -0.462970  -0.022169
| 16> 		O   -0.573202  -1.634448   0.007790
| 17> 		C    0.610684   0.428764   0.071029
| 18> 		C    1.872828  -0.109177  -0.003052
| 19> 		H   -1.724426   0.229340  -0.268008
| 20> 		H    0.597933   1.481468  -0.068026
| 21> 		H    1.975385  -1.343973  -0.019036
| 22> 		H    2.779856   0.542088  -0.330596
| 23> *
| 24>
| 25>                          ****END OF INPUT****

CARTESIAN COORDINATES (ANGSTROEM)
---------------------------------
  C     -0.600112   -0.462970   -0.022169
  O     -0.573202   -1.634448    0.007790
  C      0.610684    0.428764    0.071029
  C      1.872828   -0.109177   -0.003052
  H     -1.724426    0.229340   -0.268008
  H      0.597933    1.481468   -0.068026
  H      1.975385   -1.343973   -0.019036
  H      2.779856    0.542088   -0.330596

 Total Charge           Charge          ....    0
 Multiplicity           Mult            ....    1
 Number of Electrons    NEL             ....   30
 Basis Dimension        Dim             ....   76

ORBITAL ENERGIES
----------------

  NO   OCC          E(Eh)            E(eV)
   0   2.0000     -19.152668      -521.1706
   1   2.0000     -10.296865      -280.1919
   2   2.0000     -10.236473      -278.5486
   3   2.0000     -10.211392      -277.8661
   4   2.0000      -1.078594       -29.3500
   5   2.0000      -0.786338       -21.3973
   6   2.0000      -0.633349       -17.2343
   7   2.0000      -0.528850       -14.3907
   8   2.0000      -0.496273       -13.5043
   9   2.0000      -0.451068       -12.2742
  10   2.0000      -0.417886       -11.3713
  11   2.0000      -0.414348       -11.2750
  12   2.0000      -0.372012       -10.1229
  13   2.0000      -0.287226        -7.8158
  14   2.0000      -0.260314        -7.0835
  15   0.0000      -0.071149        -1.9361
  16   0.0000       0.040020         1.0890
  17   0.0000       0.057998         1.5782
  18   0.0000       0.063916         1.7393
  19   0.0000       0.101551         2.7633

MULLIKEN ATOMIC CHARGES
-----------------------
   0 C :    0.123440
   1 O :   -0.135825
   2 C :   -0.046962
   3 C :   -0.044918
   4 H :   -0.026624
   5 H :   -0.008923
   6 H :    0.076494
   7 H :    0.063318
Sum of atomic charges:   -0.0000000

LOEWDIN ATOMIC CHARGES
----------------------
   0 C :   -0.063928
   1 O :    0.042986
   2 C :   -0.090895
   3 C :    0.000254
   4 H :   -0.015870
   5 H :    0.022501
   6 H :    0.057351
   7 H :    0.047599

  Mayer bond orders larger than 0.100000
B(  0-C ,  1-O ) :   2.2406 B(  0-C ,  2-C ) :   0.9992 B(  0-C ,  4-H ) :   0.8538
B(  2-C ,  3-C ) :   1.9321 B(  2-C ,  5-H ) :   0.9468 B(  3-C ,  6-H ) :   0.9294
B(  3-C ,  7-H ) :   0.9391

-----------------------------------------------------------------------------
         ABSORPTION SPECTRUM VIA TRANSITION ELECTRIC DIPOLE MOMENTS
-----------------------------------------------------------------------------
State   Energy    Wavelength  fosc         T2        TX        TY        TZ
        (cm-1)      (nm)                 (au**2)    (au)      (au)      (au)
-----------------------------------------------------------------------------
   1   29662.4    337.1   0.000847713   0.00941   0.08522   0.01971  -0.04192

FINAL SINGLE POINT ENERGY      -191.635254612354

DIPOLE MOMENT
-------------
                                X             Y             Z
Electronic contribution:     -1.72971      -1.89149       0.52071
Nuclear contribution   :      2.24623       2.63997      -0.64206
                        -----------------------------------------
Total Dipole Moment    :      0.51652       0.74848      -0.12135
                        -----------------------------------------
Magnitude (a.u.)       :      0.91746
Magnitude (Debye)      :      2.33201

Rotational constants in cm-1:     0.732227     0.204025     0.160339
Rotational constants in MHz : 21951.610766  6116.521378  4806.843331

                             ****ORCA TERMINATED NORMALLY****
TOTAL RUN TIME: 0 days 0 hours 3 minutes 20 seconds 958 msec
