                         Program Version 5.0.3 -  RELEASE  -
|  1> ! B3LYP cc-pVDZ
|  2> !TightSCF
|  3> %scf
|  4>  ConvForced true
|  5>  convergence tight
|  6>  MaxIter 500
|  7> end
|  8>
|  9> %tddft
| 10>  nroots 1
| 11> end
| 12>
| 13> # 	25643
| 14> * xyz 0 1
| 15> 		C   -0.588286  -0.431910   0.010088
| 16> 		O   -0.545473  -1.635122  -0.005306
| 17> 		C    0.647524   0.457661  -0.023586
| 18> 		C    1.788152  -0.137544   0.032911
| 19> 		H   -1.616203   0.022181  -0.003615
| 20> 		H    0.538866   1.508198   0.075810
| 21> 		H    1.732265  -1.232338  -0.042206
| 22> 		H    2.939755   0.211678  -0.183167
| 23> *
| 24>
| 25>                          ****END OF INPUT****

CARTESIAN COORDINATES (ANGSTROEM)
---------------------------------
  C     -0.588286   -0.431910    0.010088
  O     -0.545473   -1.635122   -0.005306
  C      0.647524    0.457661   -0.023586
  C      1.788152   -0.137544    0.032911
  H     -1.616203    0.022181   -0.003615
  H      0.538866    1.508198    0.075810
  H      1.732265   -1.232338   -0.042206
  H      2.939755    0.211678   -0.183167

 Total Charge           Charge          ....    0
 Multiplicity           Mult            ....    1
 Number of Electrons    NEL             ....   30
 Basis Dimension        Dim             ....   76

ORBITAL ENERGIES
----------------

  NO   OCC          E(Eh)            E(eV)
   0   2.0000     -19.140509      -520.8397
   1   2.0000     -10.279624      -279.7228
   2   2.0000     -10.212271      -277.8900
   3   2.0000     -10.200718      -277.5757
   4   2.0000      -1.053238       -28.6601
   5   2.0000      -0.800778       -21.7903
   6   2.0000      -0.639546       -17.4029
   7   2.0000      -0.543938       -14.8013
   8   2.0000      -0.506391       -13.7796
   9   2.0000      -0.449900       -12.2424
  10   2.0000      -0.425333       -11.5739
  11   2.0000      -0.402548       -10.9539
  12   2.0000      -0.358515        -9.7557
  13   2.0000      -0.295001        -8.0274
  14   2.0000      -0.258512        -7.0345
  15   0.0000      -0.062841        -1.7100
  16   0.0000       0.050673         1.3789
  17   0.0000       0.069240         1.8841
  18   0.0000       0.090481         2.4621
  19   0.0000       0.116590         3.1726

MULLIKEN ATOMIC CHARGES
-----------------------
   0 C :    0.173889
   1 O :   -0.183723
   2 C :   -0.074703
   3 C :    0.018127
   4 H :   -0.009817
   5 H :   -0.019203
   6 H :    0.037860
   7 H :    0.057570
Sum of atomic charges:    0.0000000

LOEWDIN ATOMIC CHARGES
----------------------
   0 C :   -0.021765
   1 O :    0.002791
   2 C :   -0.085935
   3 C :    0.002433
   4 H :   -0.001579
   5 H :    0.020595
   6 H :    0.029650
   7 H :    0.053810

  Mayer bond orders larger than 0.100000
B(  0-C ,  1-O ) :   2.1864 B(  0-C ,  2-C ) :   1.0040 B(  0-C ,  4-H ) :   0.9234
B(  2-C ,  3-C ) :   1.9701 B(  2-C ,  5-H ) :   0.9549 B(  3-C ,  6-H ) :   0.9134
B(  3-C ,  7-H ) :   0.9490

-----------------------------------------------------------------------------
         ABSORPTION SPECTRUM VIA TRANSITION ELECTRIC DIPOLE MOMENTS
-----------------------------------------------------------------------------
State   Energy    Wavelength  fosc         T2        TX        TY        TZ
        (cm-1)      (nm)                 (au**2)    (au)      (au)      (au)
-----------------------------------------------------------------------------
   1   29746.5    336.2   0.000206729   0.00229  -0.02869  -0.00183  -0.03823

FINAL SINGLE POINT ENERGY      -191.652402933843

DIPOLE MOMENT
-------------
                                X             Y             Z
Electronic contribution:     -1.93088      -1.43997       0.11998
Nuclear contribution   :      2.21624       2.26770      -0.14337
                        -----------------------------------------
Total Dipole Moment    :      0.28537       0.82773      -0.02340
                        -----------------------------------------
Magnitude (a.u.)       :      0.87586
Magnitude (Debye)      :      2.22625

Rotational constants in cm-1:     0.753957     0.215529     0.167823
Rotational constants in MHz : 22603.068643  6461.392640  5031.206800

                             ****ORCA TERMINATED NORMALLY****
TOTAL RUN TIME: 0 days 0 hours 3 minutes 27 seconds 903 msec
