                         Program Version 5.0.3 -  RELEASE  -
|  1> ! HF-3c
|  2> !TightSCF
|  3> %scf
|  4>  ConvForced true
|  5>  convergence tight
|  6>  MaxIter 500
|  7> end
|  8>
|  9> %tddft
| 10>  nroots 1
| 11> end
| 12>
| 13> # 	29545
| 14> * xyz 0 1
| 15> 		C   -0.554135  -0.451869   0.009335
| 16> 		O   -0.629943  -1.683421  -0.010540
| 17> 		C    0.680943   0.443592   0.010728
| 18> 		C    1.828736  -0.089047   0.001836
| 19> 		H   -1.500483   0.102737   0.031099
| 20> 		H    0.416544   1.588118  -0.131574
| 21> 		H    1.993286  -1.110976   0.047936
| 22> 		H    2.786371   0.551188  -0.050809
| 23> *
| 24>
| 25>                          ****END OF INPUT****

CARTESIAN COORDINATES (ANGSTROEM)
---------------------------------
  C     -0.554135   -0.451869    0.009335
  O     -0.629943   -1.683421   -0.010540
  C      0.680943    0.443592    0.010728
  C      1.828736   -0.089047    0.001836
  H     -1.500483    0.102737    0.031099
  H      0.416544    1.588118   -0.131574
  H      1.993286   -1.110976    0.047936
  H      2.786371    0.551188   -0.050809

 Total Charge           Charge          ....    0
 Multiplicity           Mult            ....    1
 Number of Electrons    NEL             ....   30
 Basis Dimension        Dim             ....   24

ORBITAL ENERGIES
----------------

  NO   OCC          E(Eh)            E(eV)
   0   2.0000     -20.360392      -554.0344
   1   2.0000     -11.286139      -307.1115
   2   2.0000     -11.196746      -304.6789
   3   2.0000     -11.194145      -304.6082
   4   2.0000      -1.382206       -37.6117
   5   2.0000      -1.094875       -29.7931
   6   2.0000      -0.883916       -24.0526
   7   2.0000      -0.743328       -20.2270
   8   2.0000      -0.692665       -18.8484
   9   2.0000      -0.620670       -16.8893
  10   2.0000      -0.586127       -15.9493
  11   2.0000      -0.530641       -14.4395
  12   2.0000      -0.519307       -14.1311
  13   2.0000      -0.413356       -11.2480
  14   2.0000      -0.406763       -11.0686
  15   0.0000       0.142128         3.8675
  16   0.0000       0.313775         8.5382
  17   0.0000       0.486896        13.2491
  18   0.0000       0.550080        14.9684
  19   0.0000       0.657063        17.8796

MULLIKEN ATOMIC CHARGES
-----------------------
   0 C :    0.163907
   1 O :   -0.350246
   2 C :   -0.166555
   3 C :   -0.235261
   4 H :    0.129442
   5 H :    0.151320
   6 H :    0.158233
   7 H :    0.149159
Sum of atomic charges:    0.0000000

LOEWDIN ATOMIC CHARGES
----------------------
   0 C :    0.149666
   1 O :   -0.261794
   2 C :   -0.126261
   3 C :   -0.135918
   4 H :    0.066768
   5 H :    0.105274
   6 H :    0.099480
   7 H :    0.102785

  Mayer bond orders larger than 0.100000
B(  0-C ,  1-O ) :   1.9220 B(  0-C ,  2-C ) :   0.9962 B(  0-C ,  4-H ) :   0.9316
B(  2-C ,  3-C ) :   1.9790 B(  2-C ,  5-H ) :   0.9505 B(  3-C ,  6-H ) :   0.9563
B(  3-C ,  7-H ) :   0.9557

-----------------------------------------------------------------------------
         ABSORPTION SPECTRUM VIA TRANSITION ELECTRIC DIPOLE MOMENTS
-----------------------------------------------------------------------------
State   Energy    Wavelength  fosc         T2        TX        TY        TZ
        (cm-1)      (nm)                 (au**2)    (au)      (au)      (au)
-----------------------------------------------------------------------------
   1   31803.2    314.4   0.000019179   0.00020  -0.01133  -0.00109   0.00831

Dispersion correction           -0.025411802
FINAL SINGLE POINT ENERGY      -189.332755258856

DIPOLE MOMENT
-------------
                                X             Y             Z
Electronic contribution:     -1.95397      -1.81567       0.07275
Nuclear contribution   :      2.30646       2.84808      -0.09646
                        -----------------------------------------
Total Dipole Moment    :      0.35249       1.03241      -0.02371
                        -----------------------------------------
Magnitude (a.u.)       :      1.09118
Magnitude (Debye)      :      2.77357

Rotational constants in cm-1:     0.795579     0.198170     0.158734
Rotational constants in MHz : 23850.846139  5940.986136  4758.723995

                             ****ORCA TERMINATED NORMALLY****
TOTAL RUN TIME: 0 days 0 hours 0 minutes 11 seconds 547 msec
