                         Program Version 5.0.3 -  RELEASE  -
|  1> ! B3LYP cc-pVDZ
|  2> !TightSCF
|  3> %scf
|  4>  ConvForced true
|  5>  convergence tight
|  6>  MaxIter 500
|  7> end
|  8>
|  9> %tddft
| 10>  nroots 1
| 11> end
| 12>
| 13> # 	29101
| 14> * xyz 0 1
| 15> 		C   -0.544217  -0.444204   0.025880
| 16> 		O   -0.598178  -1.656839  -0.011102
| 17> 		C    0.658145   0.439294  -0.033879
| 18> 		C    1.808370  -0.120042   0.004492
| 19> 		H   -1.503238   0.180813   0.098675
| 20> 		H    0.604123   1.497808  -0.027192
| 21> 		H    1.836840  -1.265518   0.012769
| 22> 		H    2.664938   0.612979   0.138064
| 23> *
| 24>
| 25>                          ****END OF INPUT****

CARTESIAN COORDINATES (ANGSTROEM)
---------------------------------
  C     -0.544217   -0.444204    0.025880
  O     -0.598178   -1.656839   -0.011102
  C      0.658145    0.439294   -0.033879
  C      1.808370   -0.120042    0.004492
  H     -1.503238    0.180813    0.098675
  H      0.604123    1.497808   -0.027192
  H      1.836840   -1.265518    0.012769
  H      2.664938    0.612979    0.138064

 Total Charge           Charge          ....    0
 Multiplicity           Mult            ....    1
 Number of Electrons    NEL             ....   30
 Basis Dimension        Dim             ....   76

ORBITAL ENERGIES
----------------

  NO   OCC          E(Eh)            E(eV)
   0   2.0000     -19.143909      -520.9323
   1   2.0000     -10.279925      -279.7310
   2   2.0000     -10.211121      -277.8587
   3   2.0000     -10.194151      -277.3970
   4   2.0000      -1.046839       -28.4859
   5   2.0000      -0.811035       -22.0694
   6   2.0000      -0.647455       -17.6182
   7   2.0000      -0.538352       -14.6493
   8   2.0000      -0.510249       -13.8846
   9   2.0000      -0.445944       -12.1347
  10   2.0000      -0.414938       -11.2910
  11   2.0000      -0.400462       -10.8971
  12   2.0000      -0.381954       -10.3935
  13   2.0000      -0.298342        -8.1183
  14   2.0000      -0.257214        -6.9992
  15   0.0000      -0.063750        -1.7347
  16   0.0000       0.058539         1.5929
  17   0.0000       0.067680         1.8417
  18   0.0000       0.083680         2.2771
  19   0.0000       0.123431         3.3587

MULLIKEN ATOMIC CHARGES
-----------------------
   0 C :    0.180440
   1 O :   -0.192352
   2 C :   -0.087590
   3 C :    0.057903
   4 H :   -0.020157
   5 H :   -0.024457
   6 H :    0.050830
   7 H :    0.035382
Sum of atomic charges:    0.0000000

LOEWDIN ATOMIC CHARGES
----------------------
   0 C :   -0.023954
   1 O :   -0.007347
   2 C :   -0.093114
   3 C :    0.013921
   4 H :   -0.007373
   5 H :    0.025082
   6 H :    0.048073
   7 H :    0.044713

  Mayer bond orders larger than 0.100000
B(  0-C ,  1-O ) :   2.1890 B(  0-C ,  2-C ) :   1.0367 B(  0-C ,  4-H ) :   0.9096
B(  2-C ,  3-C ) :   1.9874 B(  2-C ,  5-H ) :   0.9456 B(  3-C ,  6-H ) :   0.9171
B(  3-C ,  7-H ) :   0.9309

-----------------------------------------------------------------------------
         ABSORPTION SPECTRUM VIA TRANSITION ELECTRIC DIPOLE MOMENTS
-----------------------------------------------------------------------------
State   Energy    Wavelength  fosc         T2        TX        TY        TZ
        (cm-1)      (nm)                 (au**2)    (au)      (au)      (au)
-----------------------------------------------------------------------------
   1   29319.6    341.1   0.000232454   0.00261   0.01815   0.00141   0.04773

FINAL SINGLE POINT ENERGY      -191.661110215486

DIPOLE MOMENT
-------------
                                X             Y             Z
Electronic contribution:     -1.78776      -1.83075      -0.15354
Nuclear contribution   :      2.21861       2.75081       0.20812
                        -----------------------------------------
Total Dipole Moment    :      0.43086       0.92006       0.05457
                        -----------------------------------------
Magnitude (a.u.)       :      1.01741
Magnitude (Debye)      :      2.58605

Rotational constants in cm-1:     0.798463     0.208617     0.165577
Rotational constants in MHz : 23937.315594  6254.168788  4963.873792

                             ****ORCA TERMINATED NORMALLY****
TOTAL RUN TIME: 0 days 0 hours 3 minutes 21 seconds 463 msec
