                         Program Version 5.0.3 -  RELEASE  -
|  1> ! B3LYP cc-pVDZ
|  2> !TightSCF
|  3> %scf
|  4>  ConvForced true
|  5>  convergence tight
|  6>  MaxIter 500
|  7> end
|  8>
|  9> %tddft
| 10>  nroots 1
| 11> end
| 12>
| 13> # 	14367
| 14> * xyz 0 1
| 15> 		C   -1.174345  -0.389288   0.025641
| 16> 		O   -1.469195  -1.398327   0.604384
| 17> 		C    0.028467   0.489444   0.143474
| 18> 		C    1.214643  -0.005729  -0.129880
| 19> 		H   -2.016137   0.140056  -0.628972
| 20> 		H   -0.158624   1.421138   0.520505
| 21> 		H    1.435257  -0.949431  -0.462659
| 22> 		H    2.117830   0.687399  -0.013663
| 23> *
| 24>
| 25>                          ****END OF INPUT****

CARTESIAN COORDINATES (ANGSTROEM)
---------------------------------
  C     -1.174345   -0.389288    0.025641
  O     -1.469195   -1.398327    0.604384
  C      0.028467    0.489444    0.143474
  C      1.214643   -0.005729   -0.129880
  H     -2.016137    0.140056   -0.628972
  H     -0.158624    1.421138    0.520505
  H      1.435257   -0.949431   -0.462659
  H      2.117830    0.687399   -0.013663

 Total Charge           Charge          ....    0
 Multiplicity           Mult            ....    1
 Number of Electrons    NEL             ....   30
 Basis Dimension        Dim             ....   76

ORBITAL ENERGIES
----------------

  NO   OCC          E(Eh)            E(eV)
   0   2.0000     -19.147619      -521.0332
   1   2.0000     -10.284135      -279.8455
   2   2.0000     -10.206498      -277.7329
   3   2.0000     -10.202991      -277.6375
   4   2.0000      -1.056993       -28.7622
   5   2.0000      -0.805477       -21.9181
   6   2.0000      -0.654279       -17.8038
   7   2.0000      -0.556059       -15.1311
   8   2.0000      -0.497697       -13.5430
   9   2.0000      -0.461081       -12.5466
  10   2.0000      -0.444734       -12.1018
  11   2.0000      -0.391618       -10.6565
  12   2.0000      -0.386159       -10.5079
  13   2.0000      -0.293809        -7.9950
  14   2.0000      -0.252300        -6.8654
  15   0.0000      -0.044385        -1.2078
  16   0.0000       0.009596         0.2611
  17   0.0000       0.071602         1.9484
  18   0.0000       0.095612         2.6017
  19   0.0000       0.111751         3.0409

MULLIKEN ATOMIC CHARGES
-----------------------
   0 C :    0.139411
   1 O :   -0.164669
   2 C :   -0.041233
   3 C :    0.064126
   4 H :   -0.025928
   5 H :   -0.011516
   6 H :    0.006045
   7 H :    0.033765
Sum of atomic charges:   -0.0000000

LOEWDIN ATOMIC CHARGES
----------------------
   0 C :   -0.030814
   1 O :    0.017451
   2 C :   -0.054502
   3 C :    0.003428
   4 H :   -0.012310
   5 H :    0.021596
   6 H :    0.012867
   7 H :    0.042285

  Mayer bond orders larger than 0.100000
B(  0-C ,  1-O ) :   2.2460 B(  0-C ,  2-C ) :   0.9987 B(  0-C ,  4-H ) :   0.8861
B(  2-C ,  3-C ) :   2.0220 B(  2-C ,  5-H ) :   0.9394 B(  3-C ,  6-H ) :   0.9484
B(  3-C ,  7-H ) :   0.9442

-----------------------------------------------------------------------------
         ABSORPTION SPECTRUM VIA TRANSITION ELECTRIC DIPOLE MOMENTS
-----------------------------------------------------------------------------
State   Energy    Wavelength  fosc         T2        TX        TY        TZ
        (cm-1)      (nm)                 (au**2)    (au)      (au)      (au)
-----------------------------------------------------------------------------
   1   31877.2    313.7   0.001541118   0.01592  -0.12344   0.02533   0.00601

FINAL SINGLE POINT ENERGY      -191.641209916176

DIPOLE MOMENT
-------------
                                X             Y             Z
Electronic contribution:     -2.18072      -1.79469       0.87619
Nuclear contribution   :      2.70209       2.53733      -1.18154
                        -----------------------------------------
Total Dipole Moment    :      0.52138       0.74264      -0.30535
                        -----------------------------------------
Magnitude (a.u.)       :      0.95739
Magnitude (Debye)      :      2.43349

Rotational constants in cm-1:     0.901412     0.180265     0.158271
Rotational constants in MHz : 27023.663666  5404.195468  4744.832841

                             ****ORCA TERMINATED NORMALLY****
TOTAL RUN TIME: 0 days 0 hours 3 minutes 23 seconds 490 msec
