                         Program Version 5.0.3 -  RELEASE  -
|  1> ! B3LYP cc-pVDZ
|  2> !TightSCF
|  3> %scf
|  4>  ConvForced true
|  5>  convergence tight
|  6>  MaxIter 500
|  7> end
|  8>
|  9> %tddft
| 10>  nroots 1
| 11> end
| 12>
| 13> # 	32165
| 14> * xyz 0 1
| 15> 		C   -0.580649  -0.435046   0.048712
| 16> 		O   -0.552253  -1.634859  -0.019704
| 17> 		C    0.595592   0.455619  -0.013719
| 18> 		C    1.830247  -0.152553   0.016882
| 19> 		H   -1.479337   0.126692  -0.151651
| 20> 		H    0.549750   1.614632  -0.041724
| 21> 		H    1.912501  -1.285376   0.021944
| 22> 		H    2.766726   0.323367  -0.141976
| 23> *
| 24>
| 25>                          ****END OF INPUT****

CARTESIAN COORDINATES (ANGSTROEM)
---------------------------------
  C     -0.580649   -0.435046    0.048712
  O     -0.552253   -1.634859   -0.019704
  C      0.595592    0.455619   -0.013719
  C      1.830247   -0.152553    0.016882
  H     -1.479337    0.126692   -0.151651
  H      0.549750    1.614632   -0.041724
  H      1.912501   -1.285376    0.021944
  H      2.766726    0.323367   -0.141976

 Total Charge           Charge          ....    0
 Multiplicity           Mult            ....    1
 Number of Electrons    NEL             ....   30
 Basis Dimension        Dim             ....   76

ORBITAL ENERGIES
----------------

  NO   OCC          E(Eh)            E(eV)
   0   2.0000     -19.138184      -520.7765
   1   2.0000     -10.271546      -279.5030
   2   2.0000     -10.217199      -278.0241
   3   2.0000     -10.213474      -277.9227
   4   2.0000      -1.050833       -28.5946
   5   2.0000      -0.785153       -21.3651
   6   2.0000      -0.657803       -17.8997
   7   2.0000      -0.543967       -14.8021
   8   2.0000      -0.502303       -13.6684
   9   2.0000      -0.445450       -12.1213
  10   2.0000      -0.418726       -11.3941
  11   2.0000      -0.400577       -10.9003
  12   2.0000      -0.376123       -10.2348
  13   2.0000      -0.281996        -7.6735
  14   2.0000      -0.256345        -6.9755
  15   0.0000      -0.073788        -2.0079
  16   0.0000       0.053476         1.4551
  17   0.0000       0.066878         1.8199
  18   0.0000       0.091143         2.4801
  19   0.0000       0.121418         3.3040

MULLIKEN ATOMIC CHARGES
-----------------------
   0 C :    0.222400
   1 O :   -0.187070
   2 C :   -0.167100
   3 C :    0.057741
   4 H :   -0.027373
   5 H :    0.021981
   6 H :    0.054480
   7 H :    0.024942
Sum of atomic charges:    0.0000000

LOEWDIN ATOMIC CHARGES
----------------------
   0 C :   -0.044689
   1 O :    0.006325
   2 C :   -0.089371
   3 C :    0.034638
   4 H :   -0.011104
   5 H :    0.043456
   6 H :    0.041716
   7 H :    0.019027

  Mayer bond orders larger than 0.100000
B(  0-C ,  1-O ) :   2.1873 B(  0-C ,  2-C ) :   1.0491 B(  0-C ,  4-H ) :   0.9234
B(  2-C ,  3-C ) :   1.9322 B(  2-C ,  5-H ) :   0.9431 B(  3-C ,  6-H ) :   0.9397
B(  3-C ,  7-H ) :   0.9528

-----------------------------------------------------------------------------
         ABSORPTION SPECTRUM VIA TRANSITION ELECTRIC DIPOLE MOMENTS
-----------------------------------------------------------------------------
State   Energy    Wavelength  fosc         T2        TX        TY        TZ
        (cm-1)      (nm)                 (au**2)    (au)      (au)      (au)
-----------------------------------------------------------------------------
   1   27397.4    365.0   0.000066275   0.00080  -0.01209   0.00501  -0.02500

FINAL SINGLE POINT ENERGY      -191.671008000706

DIPOLE MOMENT
-------------
                                X             Y             Z
Electronic contribution:     -1.94516      -1.64978       0.27745
Nuclear contribution   :      2.36009       2.51838      -0.29378
                        -----------------------------------------
Total Dipole Moment    :      0.41493       0.86860      -0.01633
                        -----------------------------------------
Magnitude (a.u.)       :      0.96276
Magnitude (Debye)      :      2.44714

Rotational constants in cm-1:     0.716587     0.216048     0.166282
Rotational constants in MHz : 21482.743240  6476.950119  4984.998118

                             ****ORCA TERMINATED NORMALLY****
TOTAL RUN TIME: 0 days 0 hours 3 minutes 27 seconds 868 msec
