                         Program Version 5.0.3 -  RELEASE  -
|  1> ! HF-3c
|  2> !TightSCF
|  3> %scf
|  4>  ConvForced true
|  5>  convergence tight
|  6>  MaxIter 500
|  7> end
|  8>
|  9> %tddft
| 10>  nroots 1
| 11> end
| 12>
| 13> # 	18008
| 14> * xyz 0 1
| 15> 		C   -1.213433  -0.333831   0.068553
| 16> 		O   -1.604293  -1.227674  -0.701729
| 17> 		C   -0.014289   0.542829  -0.202361
| 18> 		C    1.190134   0.044223   0.041962
| 19> 		H   -1.804510  -0.145879   0.953272
| 20> 		H   -0.164178   1.434924  -0.645090
| 21> 		H    1.458474  -0.937560   0.544458
| 22> 		H    2.193610   0.655682  -0.003465
| 23> *
| 24>
| 25>                          ****END OF INPUT****

CARTESIAN COORDINATES (ANGSTROEM)
---------------------------------
  C     -1.213433   -0.333831    0.068553
  O     -1.604293   -1.227674   -0.701729
  C     -0.014289    0.542829   -0.202361
  C      1.190134    0.044223    0.041962
  H     -1.804510   -0.145879    0.953272
  H     -0.164178    1.434924   -0.645090
  H      1.458474   -0.937560    0.544458
  H      2.193610    0.655682   -0.003465

 Total Charge           Charge          ....    0
 Multiplicity           Mult            ....    1
 Number of Electrons    NEL             ....   30
 Basis Dimension        Dim             ....   24

ORBITAL ENERGIES
----------------

  NO   OCC          E(Eh)            E(eV)
   0   2.0000     -20.365828      -554.1824
   1   2.0000     -11.291097      -307.2464
   2   2.0000     -11.194333      -304.6133
   3   2.0000     -11.185341      -304.3686
   4   2.0000      -1.381620       -37.5958
   5   2.0000      -1.077000       -29.3066
   6   2.0000      -0.874975       -23.8093
   7   2.0000      -0.774500       -21.0752
   8   2.0000      -0.686150       -18.6711
   9   2.0000      -0.629453       -17.1283
  10   2.0000      -0.598861       -16.2958
  11   2.0000      -0.524701       -14.2778
  12   2.0000      -0.490789       -13.3551
  13   2.0000      -0.414088       -11.2679
  14   2.0000      -0.404539       -11.0081
  15   0.0000       0.181223         4.9313
  16   0.0000       0.212659         5.7868
  17   0.0000       0.504853        13.7377
  18   0.0000       0.614987        16.7347
  19   0.0000       0.636521        17.3206

MULLIKEN ATOMIC CHARGES
-----------------------
   0 C :    0.160036
   1 O :   -0.334863
   2 C :   -0.195499
   3 C :   -0.204730
   4 H :    0.141824
   5 H :    0.153571
   6 H :    0.141000
   7 H :    0.138661
Sum of atomic charges:    0.0000000

LOEWDIN ATOMIC CHARGES
----------------------
   0 C :    0.152165
   1 O :   -0.249257
   2 C :   -0.141213
   3 C :   -0.121130
   4 H :    0.076651
   5 H :    0.094331
   6 H :    0.093621
   7 H :    0.094832

  Mayer bond orders larger than 0.100000
B(  0-C ,  1-O ) :   1.9484 B(  0-C ,  2-C ) :   0.9842 B(  0-C ,  4-H ) :   0.9276
B(  2-C ,  3-C ) :   1.9953 B(  2-C ,  5-H ) :   0.9529 B(  3-C ,  6-H ) :   0.9642
B(  3-C ,  7-H ) :   0.9608

-----------------------------------------------------------------------------
         ABSORPTION SPECTRUM VIA TRANSITION ELECTRIC DIPOLE MOMENTS
-----------------------------------------------------------------------------
State   Energy    Wavelength  fosc         T2        TX        TY        TZ
        (cm-1)      (nm)                 (au**2)    (au)      (au)      (au)
-----------------------------------------------------------------------------
   1   32518.2    307.5   0.000009997   0.00010   0.00362  -0.00393  -0.00852

Dispersion correction           -0.024853001
FINAL SINGLE POINT ENERGY      -189.320380095143

DIPOLE MOMENT
-------------
                                X             Y             Z
Electronic contribution:     -2.63276      -1.32471      -0.92822
Nuclear contribution   :      3.19673       1.97405       1.55736
                        -----------------------------------------
Total Dipole Moment    :      0.56397       0.64934       0.62914
                        -----------------------------------------
Magnitude (a.u.)       :      1.06561
Magnitude (Debye)      :      2.70857

Rotational constants in cm-1:     0.893822     0.172534     0.158757
Rotational constants in MHz : 26796.110637  5172.431009  4759.400828

                             ****ORCA TERMINATED NORMALLY****
TOTAL RUN TIME: 0 days 0 hours 0 minutes 9 seconds 934 msec
