                         Program Version 5.0.3 -  RELEASE  -
|  1> ! HF-3c
|  2> !TightSCF
|  3> %scf
|  4>  ConvForced true
|  5>  convergence tight
|  6>  MaxIter 500
|  7> end
|  8>
|  9> %tddft
| 10>  nroots 1
| 11> end
| 12>
| 13> # 	15776
| 14> * xyz 0 1
| 15> 		C   -1.167559  -0.270109   0.089719
| 16> 		O   -1.941884  -0.607128   1.005993
| 17> 		C    0.067377   0.511168   0.279212
| 18> 		C    1.166792   0.113841  -0.318870
| 19> 		H   -1.379898  -0.757946  -0.986715
| 20> 		H   -0.018863   1.170847   0.988565
| 21> 		H    1.190679  -0.703322  -1.007951
| 22> 		H    2.086045   0.535516  -0.063634
| 23> *
| 24>
| 25>                          ****END OF INPUT****

CARTESIAN COORDINATES (ANGSTROEM)
---------------------------------
  C     -1.167559   -0.270109    0.089719
  O     -1.941884   -0.607128    1.005993
  C      0.067377    0.511168    0.279212
  C      1.166792    0.113841   -0.318870
  H     -1.379898   -0.757946   -0.986715
  H     -0.018863    1.170847    0.988565
  H      1.190679   -0.703322   -1.007951
  H      2.086045    0.535516   -0.063634

 Total Charge           Charge          ....    0
 Multiplicity           Mult            ....    1
 Number of Electrons    NEL             ....   30
 Basis Dimension        Dim             ....   24

ORBITAL ENERGIES
----------------

  NO   OCC          E(Eh)            E(eV)
   0   2.0000     -20.353294      -553.8413
   1   2.0000     -11.285651      -307.0982
   2   2.0000     -11.209606      -305.0289
   3   2.0000     -11.206321      -304.9395
   4   2.0000      -1.373993       -37.3883
   5   2.0000      -1.108255       -30.1572
   6   2.0000      -0.890568       -24.2336
   7   2.0000      -0.786749       -21.4085
   8   2.0000      -0.670556       -18.2468
   9   2.0000      -0.662414       -18.0252
  10   2.0000      -0.588581       -16.0161
  11   2.0000      -0.559704       -15.2303
  12   2.0000      -0.516457       -14.0535
  13   2.0000      -0.410885       -11.1808
  14   2.0000      -0.405340       -11.0299
  15   0.0000       0.137850         3.7511
  16   0.0000       0.268625         7.3097
  17   0.0000       0.526442        14.3252
  18   0.0000       0.600119        16.3301
  19   0.0000       0.693782        18.8788

MULLIKEN ATOMIC CHARGES
-----------------------
   0 C :    0.174351
   1 O :   -0.350583
   2 C :   -0.188048
   3 C :   -0.230381
   4 H :    0.133997
   5 H :    0.159631
   6 H :    0.149660
   7 H :    0.151374
Sum of atomic charges:    0.0000000

LOEWDIN ATOMIC CHARGES
----------------------
   0 C :    0.153260
   1 O :   -0.266884
   2 C :   -0.125080
   3 C :   -0.126893
   4 H :    0.079558
   5 H :    0.093893
   6 H :    0.096618
   7 H :    0.095528

  Mayer bond orders larger than 0.100000
B(  0-C ,  1-O ) :   1.9156 B(  0-C ,  2-C ) :   1.0187 B(  0-C ,  4-H ) :   0.9193
B(  2-C ,  3-C ) :   1.9590 B(  2-C ,  5-H ) :   0.9559 B(  3-C ,  6-H ) :   0.9634
B(  3-C ,  7-H ) :   0.9631

-----------------------------------------------------------------------------
         ABSORPTION SPECTRUM VIA TRANSITION ELECTRIC DIPOLE MOMENTS
-----------------------------------------------------------------------------
State   Energy    Wavelength  fosc         T2        TX        TY        TZ
        (cm-1)      (nm)                 (au**2)    (au)      (au)      (au)
-----------------------------------------------------------------------------
   1   31864.9    313.8   0.000065451   0.00068  -0.00097   0.01945   0.01723

Dispersion correction           -0.025709858
FINAL SINGLE POINT ENERGY      -189.323888594320

DIPOLE MOMENT
-------------
                                X             Y             Z
Electronic contribution:     -2.78228      -0.38016       1.30016
Nuclear contribution   :      3.63995       0.57065      -2.03824
                        -----------------------------------------
Total Dipole Moment    :      0.85767       0.19049      -0.73809
                        -----------------------------------------
Magnitude (a.u.)       :      1.14745
Magnitude (Debye)      :      2.91659

Rotational constants in cm-1:     1.309475     0.158891     0.149387
Rotational constants in MHz : 39257.058054  4763.429998  4478.516852

                             ****ORCA TERMINATED NORMALLY****
TOTAL RUN TIME: 0 days 0 hours 0 minutes 12 seconds 118 msec
