                         Program Version 5.0.3 -  RELEASE  -
|  1> ! B3LYP cc-pVDZ
|  2> !TightSCF
|  3> %scf
|  4>  ConvForced true
|  5>  convergence tight
|  6>  MaxIter 500
|  7> end
|  8>
|  9> %tddft
| 10>  nroots 1
| 11> end
| 12>
| 13> # 	10633
| 14> * xyz 0 1
| 15> 		C   -1.203299  -0.285052  -0.069269
| 16> 		O   -1.691434  -0.945832  -0.929502
| 17> 		C    0.012672   0.463832  -0.179061
| 18> 		C    1.143312   0.076148   0.348393
| 19> 		H   -1.472930  -0.287298   1.061805
| 20> 		H   -0.154061   1.328199  -0.802048
| 21> 		H    1.318782  -0.952665   0.617582
| 22> 		H    2.121711   0.556431  -0.057702
| 23> *
| 24>
| 25>                          ****END OF INPUT****

CARTESIAN COORDINATES (ANGSTROEM)
---------------------------------
  C     -1.203299   -0.285052   -0.069269
  O     -1.691434   -0.945832   -0.929502
  C      0.012672    0.463832   -0.179061
  C      1.143312    0.076148    0.348393
  H     -1.472930   -0.287298    1.061805
  H     -0.154061    1.328199   -0.802048
  H      1.318782   -0.952665    0.617582
  H      2.121711    0.556431   -0.057702

 Total Charge           Charge          ....    0
 Multiplicity           Mult            ....    1
 Number of Electrons    NEL             ....   30
 Basis Dimension        Dim             ....   76

ORBITAL ENERGIES
----------------

  NO   OCC          E(Eh)            E(eV)
   0   2.0000     -19.150670      -521.1162
   1   2.0000     -10.280895      -279.7574
   2   2.0000     -10.207228      -277.7528
   3   2.0000     -10.203318      -277.6464
   4   2.0000      -1.067697       -29.0535
   5   2.0000      -0.812343       -22.1050
   6   2.0000      -0.659052       -17.9337
   7   2.0000      -0.558885       -15.2080
   8   2.0000      -0.481772       -13.1097
   9   2.0000      -0.474419       -12.9096
  10   2.0000      -0.449929       -12.2432
  11   2.0000      -0.390728       -10.6323
  12   2.0000      -0.376435       -10.2433
  13   2.0000      -0.292503        -7.9594
  14   2.0000      -0.256490        -6.9795
  15   0.0000      -0.045634        -1.2418
  16   0.0000      -0.002647        -0.0720
  17   0.0000       0.078085         2.1248
  18   0.0000       0.089743         2.4420
  19   0.0000       0.105659         2.8751

MULLIKEN ATOMIC CHARGES
-----------------------
   0 C :    0.139932
   1 O :   -0.162518
   2 C :   -0.034997
   3 C :   -0.012936
   4 H :   -0.019176
   5 H :    0.014041
   6 H :    0.028185
   7 H :    0.047468
Sum of atomic charges:   -0.0000000

LOEWDIN ATOMIC CHARGES
----------------------
   0 C :   -0.048940
   1 O :    0.034667
   2 C :   -0.051179
   3 C :   -0.045567
   4 H :   -0.005685
   5 H :    0.038124
   6 H :    0.028997
   7 H :    0.049583

  Mayer bond orders larger than 0.100000
B(  0-C ,  1-O ) :   2.2451 B(  0-C ,  2-C ) :   1.0160 B(  0-C ,  4-H ) :   0.8974
B(  2-C ,  3-C ) :   2.0139 B(  2-C ,  5-H ) :   0.9314 B(  3-C ,  6-H ) :   0.9433
B(  3-C ,  7-H ) :   0.9411

-----------------------------------------------------------------------------
         ABSORPTION SPECTRUM VIA TRANSITION ELECTRIC DIPOLE MOMENTS
-----------------------------------------------------------------------------
State   Energy    Wavelength  fosc         T2        TX        TY        TZ
        (cm-1)      (nm)                 (au**2)    (au)      (au)      (au)
-----------------------------------------------------------------------------
   1   32814.9    304.7   0.000550623   0.00552   0.04045   0.00096  -0.06234

FINAL SINGLE POINT ENERGY      -191.625714418147

DIPOLE MOMENT
-------------
                                X             Y             Z
Electronic contribution:     -2.88193      -0.88909      -1.26223
Nuclear contribution   :      3.41023       1.35829       1.61827
                        -----------------------------------------
Total Dipole Moment    :      0.52831       0.46920       0.35604
                        -----------------------------------------
Magnitude (a.u.)       :      0.79121
Magnitude (Debye)      :      2.01110

Rotational constants in cm-1:     1.104126     0.168034     0.164127
Rotational constants in MHz : 33100.854266  5037.518718  4920.390475

                             ****ORCA TERMINATED NORMALLY****
TOTAL RUN TIME: 0 days 0 hours 2 minutes 55 seconds 782 msec
