                         Program Version 5.0.3 -  RELEASE  -
|  1> ! HF-3c
|  2> !TightSCF
|  3> %scf
|  4>  ConvForced true
|  5>  convergence tight
|  6>  MaxIter 500
|  7> end
|  8>
|  9> %tddft
| 10>  nroots 1
| 11> end
| 12>
| 13> # 	6922
| 14> * xyz 0 1
| 15> 		C   -1.231714  -0.329301  -0.040756
| 16> 		O   -1.167960  -1.490021   0.123743
| 17> 		C    0.038152   0.510268   0.044259
| 18> 		C    1.227995  -0.045365  -0.086393
| 19> 		H   -2.213873   0.295834  -0.071473
| 20> 		H   -0.143998   1.630947  -0.003582
| 21> 		H    1.270603  -1.171758  -0.146803
| 22> 		H    2.199508   0.633781   0.130483
| 23> *
| 24>
| 25>                          ****END OF INPUT****

CARTESIAN COORDINATES (ANGSTROEM)
---------------------------------
  C     -1.231714   -0.329301   -0.040756
  O     -1.167960   -1.490021    0.123743
  C      0.038152    0.510268    0.044259
  C      1.227995   -0.045365   -0.086393
  H     -2.213873    0.295834   -0.071473
  H     -0.143998    1.630947   -0.003582
  H      1.270603   -1.171758   -0.146803
  H      2.199508    0.633781    0.130483

 Total Charge           Charge          ....    0
 Multiplicity           Mult            ....    1
 Number of Electrons    NEL             ....   30
 Basis Dimension        Dim             ....   24

ORBITAL ENERGIES
----------------

  NO   OCC          E(Eh)            E(eV)
   0   2.0000     -20.373685      -554.3961
   1   2.0000     -11.299314      -307.4700
   2   2.0000     -11.177454      -304.1540
   3   2.0000     -11.170068      -303.9530
   4   2.0000      -1.428790       -38.8793
   5   2.0000      -1.060596       -28.8603
   6   2.0000      -0.863188       -23.4885
   7   2.0000      -0.720647       -19.6098
   8   2.0000      -0.691153       -18.8072
   9   2.0000      -0.610183       -16.6039
  10   2.0000      -0.576094       -15.6763
  11   2.0000      -0.551329       -15.0024
  12   2.0000      -0.513445       -13.9716
  13   2.0000      -0.399266       -10.8646
  14   2.0000      -0.389948       -10.6110
  15   0.0000       0.151075         4.1110
  16   0.0000       0.311820         8.4851
  17   0.0000       0.494284        13.4502
  18   0.0000       0.564394        15.3579
  19   0.0000       0.609439        16.5837

MULLIKEN ATOMIC CHARGES
-----------------------
   0 C :    0.185303
   1 O :   -0.366528
   2 C :   -0.177336
   3 C :   -0.216041
   4 H :    0.134236
   5 H :    0.133193
   6 H :    0.158642
   7 H :    0.148532
Sum of atomic charges:   -0.0000000

LOEWDIN ATOMIC CHARGES
----------------------
   0 C :    0.150778
   1 O :   -0.257333
   2 C :   -0.142240
   3 C :   -0.128780
   4 H :    0.075064
   5 H :    0.087210
   6 H :    0.108142
   7 H :    0.107159

  Mayer bond orders larger than 0.100000
B(  0-C ,  1-O ) :   1.9255 B(  0-C ,  2-C ) :   0.9909 B(  0-C ,  4-H ) :   0.9122
B(  2-C ,  3-C ) :   1.9656 B(  2-C ,  5-H ) :   0.9591 B(  3-C ,  6-H ) :   0.9528
B(  3-C ,  7-H ) :   0.9572

-----------------------------------------------------------------------------
         ABSORPTION SPECTRUM VIA TRANSITION ELECTRIC DIPOLE MOMENTS
-----------------------------------------------------------------------------
State   Energy    Wavelength  fosc         T2        TX        TY        TZ
        (cm-1)      (nm)                 (au**2)    (au)      (au)      (au)
-----------------------------------------------------------------------------
   1   35109.6    284.8   0.000382096   0.00358   0.05922   0.00185  -0.00853

Dispersion correction           -0.025572154
FINAL SINGLE POINT ENERGY      -189.312813898299

DIPOLE MOMENT
-------------
                                X             Y             Z
Electronic contribution:     -1.94487      -1.76877       0.04179
Nuclear contribution   :      2.17878       2.67935      -0.14384
                        -----------------------------------------
Total Dipole Moment    :      0.23391       0.91058      -0.10206
                        -----------------------------------------
Magnitude (a.u.)       :      0.94566
Magnitude (Debye)      :      2.40369

Rotational constants in cm-1:     0.752308     0.212086     0.166363
Rotational constants in MHz : 22553.620517  6358.192703  4987.447626

                             ****ORCA TERMINATED NORMALLY****
TOTAL RUN TIME: 0 days 0 hours 0 minutes 13 seconds 658 msec
