                         Program Version 5.0.3 -  RELEASE  -
|  1> ! HF-3c
|  2> !TightSCF
|  3> %scf
|  4>  ConvForced true
|  5>  convergence tight
|  6>  MaxIter 500
|  7> end
|  8>
|  9> %tddft
| 10>  nroots 1
| 11> end
| 12>
| 13> # 	26090
| 14> * xyz 0 1
| 15> 		C   -0.525453  -0.410641  -0.059663
| 16> 		O   -0.596828  -1.608455   0.028059
| 17> 		C    0.595147   0.382052   0.095559
| 18> 		C    1.837329  -0.127217  -0.037819
| 19> 		H   -1.631589  -0.129041  -0.180135
| 20> 		H    0.429553   1.573362  -0.129049
| 21> 		H    2.105520  -1.145722  -0.110726
| 22> 		H    2.799235   0.338428  -0.003231
| 23> *
| 24>
| 25>                          ****END OF INPUT****

CARTESIAN COORDINATES (ANGSTROEM)
---------------------------------
  C     -0.525453   -0.410641   -0.059663
  O     -0.596828   -1.608455    0.028059
  C      0.595147    0.382052    0.095559
  C      1.837329   -0.127217   -0.037819
  H     -1.631589   -0.129041   -0.180135
  H      0.429553    1.573362   -0.129049
  H      2.105520   -1.145722   -0.110726
  H      2.799235    0.338428   -0.003231

 Total Charge           Charge          ....    0
 Multiplicity           Mult            ....    1
 Number of Electrons    NEL             ....   30
 Basis Dimension        Dim             ....   24

ORBITAL ENERGIES
----------------

  NO   OCC          E(Eh)            E(eV)
   0   2.0000     -20.337889      -553.4221
   1   2.0000     -11.282825      -307.0213
   2   2.0000     -11.201655      -304.8125
   3   2.0000     -11.200319      -304.7762
   4   2.0000      -1.398874       -38.0653
   5   2.0000      -1.084796       -29.5188
   6   2.0000      -0.903197       -24.5772
   7   2.0000      -0.749188       -20.3865
   8   2.0000      -0.695241       -18.9185
   9   2.0000      -0.627280       -17.0692
  10   2.0000      -0.578563       -15.7435
  11   2.0000      -0.545896       -14.8546
  12   2.0000      -0.503449       -13.6995
  13   2.0000      -0.398847       -10.8532
  14   2.0000      -0.385305       -10.4847
  15   0.0000       0.119146         3.2421
  16   0.0000       0.323320         8.7980
  17   0.0000       0.459950        12.5159
  18   0.0000       0.590110        16.0577
  19   0.0000       0.672187        18.2911

MULLIKEN ATOMIC CHARGES
-----------------------
   0 C :    0.132988
   1 O :   -0.357706
   2 C :   -0.174093
   3 C :   -0.207215
   4 H :    0.148472
   5 H :    0.156407
   6 H :    0.153684
   7 H :    0.147463
Sum of atomic charges:    0.0000000

LOEWDIN ATOMIC CHARGES
----------------------
   0 C :    0.114777
   1 O :   -0.267563
   2 C :   -0.137726
   3 C :   -0.100557
   4 H :    0.087164
   5 H :    0.113489
   6 H :    0.096487
   7 H :    0.093929

  Mayer bond orders larger than 0.100000
B(  0-C ,  1-O ) :   1.8594 B(  0-C ,  2-C ) :   1.0818 B(  0-C ,  4-H ) :   0.9323
B(  2-C ,  3-C ) :   1.9078 B(  2-C ,  5-H ) :   0.9456 B(  3-C ,  6-H ) :   0.9618
B(  3-C ,  7-H ) :   0.9657

-----------------------------------------------------------------------------
         ABSORPTION SPECTRUM VIA TRANSITION ELECTRIC DIPOLE MOMENTS
-----------------------------------------------------------------------------
State   Energy    Wavelength  fosc         T2        TX        TY        TZ
        (cm-1)      (nm)                 (au**2)    (au)      (au)      (au)
-----------------------------------------------------------------------------
   1   28836.5    346.8   0.000469995   0.00537  -0.06877  -0.01013   0.02311

Dispersion correction           -0.025488547
FINAL SINGLE POINT ENERGY      -189.302178401913

DIPOLE MOMENT
-------------
                                X             Y             Z
Electronic contribution:     -1.86295      -1.44962       0.24315
Nuclear contribution   :      2.31660       2.38576      -0.39652
                        -----------------------------------------
Total Dipole Moment    :      0.45366       0.93614      -0.15337
                        -----------------------------------------
Magnitude (a.u.)       :      1.05152
Magnitude (Debye)      :      2.67274

Rotational constants in cm-1:     0.789152     0.212534     0.168255
Rotational constants in MHz : 23658.179786  6371.596598  5044.146218

                             ****ORCA TERMINATED NORMALLY****
TOTAL RUN TIME: 0 days 0 hours 0 minutes 12 seconds 683 msec
