                         Program Version 5.0.3 -  RELEASE  -
|  1> ! HF-3c
|  2> !TightSCF
|  3> %scf
|  4>  ConvForced true
|  5>  convergence tight
|  6>  MaxIter 500
|  7> end
|  8>
|  9> %tddft
| 10>  nroots 1
| 11> end
| 12>
| 13> # 	18256
| 14> * xyz 0 1
| 15> 		C   -1.234073  -0.383825  -0.086016
| 16> 		O   -2.194101  -0.326665  -0.777828
| 17> 		C    0.080571   0.318472  -0.430213
| 18> 		C    1.134409   0.074459   0.162431
| 19> 		H   -1.191344  -0.934477   1.130964
| 20> 		H    0.129570   1.045624  -1.217205
| 21> 		H    1.177753  -0.601814   1.037417
| 22> 		H    2.088510   0.824658   0.182678
| 23> *
| 24>
| 25>                          ****END OF INPUT****

CARTESIAN COORDINATES (ANGSTROEM)
---------------------------------
  C     -1.234073   -0.383825   -0.086016
  O     -2.194101   -0.326665   -0.777828
  C      0.080571    0.318472   -0.430213
  C      1.134409    0.074459    0.162431
  H     -1.191344   -0.934477    1.130964
  H      0.129570    1.045624   -1.217205
  H      1.177753   -0.601814    1.037417
  H      2.088510    0.824658    0.182678

 Total Charge           Charge          ....    0
 Multiplicity           Mult            ....    1
 Number of Electrons    NEL             ....   30
 Basis Dimension        Dim             ....   24

ORBITAL ENERGIES
----------------

  NO   OCC          E(Eh)            E(eV)
   0   2.0000     -20.380061      -554.5696
   1   2.0000     -11.302493      -307.5565
   2   2.0000     -11.191486      -304.5358
   3   2.0000     -11.187409      -304.4249
   4   2.0000      -1.421612       -38.6840
   5   2.0000      -1.106424       -30.1073
   6   2.0000      -0.843762       -22.9599
   7   2.0000      -0.756324       -20.5806
   8   2.0000      -0.656950       -17.8765
   9   2.0000      -0.641539       -17.4572
  10   2.0000      -0.582447       -15.8492
  11   2.0000      -0.545253       -14.8371
  12   2.0000      -0.513969       -13.9858
  13   2.0000      -0.424972       -11.5641
  14   2.0000      -0.389126       -10.5887
  15   0.0000       0.158428         4.3110
  16   0.0000       0.314528         8.5587
  17   0.0000       0.424447        11.5498
  18   0.0000       0.492752        13.4085
  19   0.0000       0.617780        16.8106

MULLIKEN ATOMIC CHARGES
-----------------------
   0 C :    0.216299
   1 O :   -0.361688
   2 C :   -0.197525
   3 C :   -0.223196
   4 H :    0.126937
   5 H :    0.158133
   6 H :    0.131911
   7 H :    0.149127
Sum of atomic charges:   -0.0000000

LOEWDIN ATOMIC CHARGES
----------------------
   0 C :    0.164187
   1 O :   -0.253043
   2 C :   -0.146190
   3 C :   -0.139631
   4 H :    0.081528
   5 H :    0.102012
   6 H :    0.084270
   7 H :    0.106868

  Mayer bond orders larger than 0.100000
B(  0-C ,  1-O ) :   1.9469 B(  0-C ,  2-C ) :   0.9738 B(  0-C ,  4-H ) :   0.8839
B(  2-C ,  3-C ) :   1.9958 B(  2-C ,  5-H ) :   0.9458 B(  3-C ,  6-H ) :   0.9574
B(  3-C ,  7-H ) :   0.9523

-----------------------------------------------------------------------------
         ABSORPTION SPECTRUM VIA TRANSITION ELECTRIC DIPOLE MOMENTS
-----------------------------------------------------------------------------
State   Energy    Wavelength  fosc         T2        TX        TY        TZ
        (cm-1)      (nm)                 (au**2)    (au)      (au)      (au)
-----------------------------------------------------------------------------
   1   35575.9    281.1   0.000071688   0.00066   0.01973  -0.00534  -0.01567

Dispersion correction           -0.025480580
FINAL SINGLE POINT ENERGY      -189.274924791776

DIPOLE MOMENT
-------------
                                X             Y             Z
Electronic contribution:     -3.29210      -0.55649      -1.41695
Nuclear contribution   :      4.26078       0.62975       2.09728
                        -----------------------------------------
Total Dipole Moment    :      0.96868       0.07326       0.68033
                        -----------------------------------------
Magnitude (a.u.)       :      1.18598
Magnitude (Debye)      :      3.01453

Rotational constants in cm-1:     1.486635     0.157768     0.143535
Rotational constants in MHz : 44568.206937  4729.778647  4303.078069

                             ****ORCA TERMINATED NORMALLY****
TOTAL RUN TIME: 0 days 0 hours 0 minutes 13 seconds 496 msec
