                         Program Version 5.0.3 -  RELEASE  -
|  1> ! HF-3c
|  2> !TightSCF
|  3> %scf
|  4>  ConvForced true
|  5>  convergence tight
|  6>  MaxIter 500
|  7> end
|  8>
|  9> %tddft
| 10>  nroots 1
| 11> end
| 12>
| 13> # 	31867
| 14> * xyz 0 1
| 15> 		C   -0.550126  -0.435715   0.014875
| 16> 		O   -0.589952  -1.628776  -0.011435
| 17> 		C    0.614466   0.432395   0.015525
| 18> 		C    1.843786  -0.135481  -0.023151
| 19> 		H   -1.479657  -0.014782  -0.032786
| 20> 		H    0.459119   1.516567  -0.065052
| 21> 		H    1.860659  -1.214693   0.204799
| 22> 		H    2.751447   0.445379  -0.018273
| 23> *
| 24>
| 25>                          ****END OF INPUT****

CARTESIAN COORDINATES (ANGSTROEM)
---------------------------------
  C     -0.550126   -0.435715    0.014875
  O     -0.589952   -1.628776   -0.011435
  C      0.614466    0.432395    0.015525
  C      1.843786   -0.135481   -0.023151
  H     -1.479657   -0.014782   -0.032786
  H      0.459119    1.516567   -0.065052
  H      1.860659   -1.214693    0.204799
  H      2.751447    0.445379   -0.018273

 Total Charge           Charge          ....    0
 Multiplicity           Mult            ....    1
 Number of Electrons    NEL             ....   30
 Basis Dimension        Dim             ....   24

ORBITAL ENERGIES
----------------

  NO   OCC          E(Eh)            E(eV)
   0   2.0000     -20.363400      -554.1163
   1   2.0000     -11.298106      -307.4371
   2   2.0000     -11.194910      -304.6290
   3   2.0000     -11.189822      -304.4905
   4   2.0000      -1.415077       -38.5062
   5   2.0000      -1.081018       -29.4160
   6   2.0000      -0.900785       -24.5116
   7   2.0000      -0.761237       -20.7143
   8   2.0000      -0.712879       -19.3984
   9   2.0000      -0.613952       -16.7065
  10   2.0000      -0.599974       -16.3261
  11   2.0000      -0.552002       -15.0207
  12   2.0000      -0.535968       -14.5844
  13   2.0000      -0.417360       -11.3569
  14   2.0000      -0.390868       -10.6360
  15   0.0000       0.125283         3.4091
  16   0.0000       0.310310         8.4440
  17   0.0000       0.581852        15.8330
  18   0.0000       0.622409        16.9366
  19   0.0000       0.642800        17.4915

MULLIKEN ATOMIC CHARGES
-----------------------
   0 C :    0.146697
   1 O :   -0.354871
   2 C :   -0.177151
   3 C :   -0.209441
   4 H :    0.136106
   5 H :    0.146666
   6 H :    0.163551
   7 H :    0.148445
Sum of atomic charges:   -0.0000000

LOEWDIN ATOMIC CHARGES
----------------------
   0 C :    0.135203
   1 O :   -0.257938
   2 C :   -0.135237
   3 C :   -0.107690
   4 H :    0.064618
   5 H :    0.094952
   6 H :    0.109766
   7 H :    0.096326

  Mayer bond orders larger than 0.100000
B(  0-C ,  1-O ) :   1.8914 B(  0-C ,  2-C ) :   1.0394 B(  0-C ,  4-H ) :   0.9362
B(  2-C ,  3-C ) :   1.9281 B(  2-C ,  5-H ) :   0.9594 B(  3-C ,  6-H ) :   0.9568
B(  3-C ,  7-H ) :   0.9657

-----------------------------------------------------------------------------
         ABSORPTION SPECTRUM VIA TRANSITION ELECTRIC DIPOLE MOMENTS
-----------------------------------------------------------------------------
State   Energy    Wavelength  fosc         T2        TX        TY        TZ
        (cm-1)      (nm)                 (au**2)    (au)      (au)      (au)
-----------------------------------------------------------------------------
   1   32480.8    307.9   0.000041403   0.00042   0.01494  -0.00110  -0.01397

Dispersion correction           -0.026077052
FINAL SINGLE POINT ENERGY      -189.332190408306

DIPOLE MOMENT
-------------
                                X             Y             Z
Electronic contribution:     -1.79697      -1.58113      -0.04680
Nuclear contribution   :      2.21167       2.47666       0.08347
                        -----------------------------------------
Total Dipole Moment    :      0.41470       0.89553       0.03667
                        -----------------------------------------
Magnitude (a.u.)       :      0.98757
Magnitude (Debye)      :      2.51020

Rotational constants in cm-1:     0.783776     0.211472     0.166743
Rotational constants in MHz : 23497.017684  6339.783588  4998.819583

                             ****ORCA TERMINATED NORMALLY****
TOTAL RUN TIME: 0 days 0 hours 0 minutes 13 seconds 34 msec
