                         Program Version 5.0.3 -  RELEASE  -
|  1> ! B3LYP cc-pVDZ
|  2> !TightSCF
|  3> %scf
|  4>  ConvForced true
|  5>  convergence tight
|  6>  MaxIter 500
|  7> end
|  8>
|  9> %tddft
| 10>  nroots 1
| 11> end
| 12>
| 13> # 	25035
| 14> * xyz 0 1
| 15> 		C   -0.519862  -0.405143   0.015246
| 16> 		O   -0.579786  -1.680088  -0.019088
| 17> 		C    0.575652   0.470866  -0.015113
| 18> 		C    1.814141  -0.143423   0.016945
| 19> 		H   -1.439002   0.195930   0.162862
| 20> 		H    0.606262   1.565620  -0.095521
| 21> 		H    1.977971  -1.349210   0.127702
| 22> 		H    2.784330   0.445988  -0.110184
| 23> *
| 24>
| 25>                          ****END OF INPUT****

CARTESIAN COORDINATES (ANGSTROEM)
---------------------------------
  C     -0.519862   -0.405143    0.015246
  O     -0.579786   -1.680088   -0.019088
  C      0.575652    0.470866   -0.015113
  C      1.814141   -0.143423    0.016945
  H     -1.439002    0.195930    0.162862
  H      0.606262    1.565620   -0.095521
  H      1.977971   -1.349210    0.127702
  H      2.784330    0.445988   -0.110184

 Total Charge           Charge          ....    0
 Multiplicity           Mult            ....    1
 Number of Electrons    NEL             ....   30
 Basis Dimension        Dim             ....   76

ORBITAL ENERGIES
----------------

  NO   OCC          E(Eh)            E(eV)
   0   2.0000     -19.133771      -520.6564
   1   2.0000     -10.271788      -279.5096
   2   2.0000     -10.241506      -278.6856
   3   2.0000     -10.213811      -277.9319
   4   2.0000      -1.005952       -27.3734
   5   2.0000      -0.802948       -21.8493
   6   2.0000      -0.663139       -18.0449
   7   2.0000      -0.539626       -14.6840
   8   2.0000      -0.507281       -13.8038
   9   2.0000      -0.436432       -11.8759
  10   2.0000      -0.402564       -10.9543
  11   2.0000      -0.381765       -10.3884
  12   2.0000      -0.377473       -10.2716
  13   2.0000      -0.283082        -7.7030
  14   2.0000      -0.251579        -6.8458
  15   0.0000      -0.086644        -2.3577
  16   0.0000       0.053873         1.4660
  17   0.0000       0.060549         1.6476
  18   0.0000       0.069804         1.8995
  19   0.0000       0.120016         3.2658

MULLIKEN ATOMIC CHARGES
-----------------------
   0 C :    0.218842
   1 O :   -0.248952
   2 C :   -0.081643
   3 C :   -0.012486
   4 H :   -0.021560
   5 H :    0.010722
   6 H :    0.087144
   7 H :    0.047933
Sum of atomic charges:    0.0000000

LOEWDIN ATOMIC CHARGES
----------------------
   0 C :   -0.015170
   1 O :   -0.072081
   2 C :   -0.093725
   3 C :    0.044224
   4 H :   -0.003423
   5 H :    0.042115
   6 H :    0.062236
   7 H :    0.035825

  Mayer bond orders larger than 0.100000
B(  0-C ,  1-O ) :   2.1016 B(  0-C ,  2-C ) :   1.1156 B(  0-C ,  4-H ) :   0.9255
B(  1-O ,  3-C ) :   0.1255 B(  2-C ,  3-C ) :   1.8725 B(  2-C ,  5-H ) :   0.9493
B(  3-C ,  6-H ) :   0.9339 B(  3-C ,  7-H ) :   0.9432

-----------------------------------------------------------------------------
         ABSORPTION SPECTRUM VIA TRANSITION ELECTRIC DIPOLE MOMENTS
-----------------------------------------------------------------------------
State   Energy    Wavelength  fosc         T2        TX        TY        TZ
        (cm-1)      (nm)                 (au**2)    (au)      (au)      (au)
-----------------------------------------------------------------------------
   1   23653.0    422.8   0.000077042   0.00107   0.01248   0.00434   0.02996

FINAL SINGLE POINT ENERGY      -191.673448642531

DIPOLE MOMENT
-------------
                                X             Y             Z
Electronic contribution:     -1.87447      -1.55005      -0.06806
Nuclear contribution   :      2.52592       2.59130       0.08032
                        -----------------------------------------
Total Dipole Moment    :      0.65145       1.04126       0.01226
                        -----------------------------------------
Magnitude (a.u.)       :      1.22831
Magnitude (Debye)      :      3.12213

Rotational constants in cm-1:     0.703902     0.213521     0.164079
Rotational constants in MHz : 21102.462284  6401.196376  4918.974114

                             ****ORCA TERMINATED NORMALLY****
TOTAL RUN TIME: 0 days 0 hours 3 minutes 22 seconds 745 msec
