                         Program Version 5.0.3 -  RELEASE  -
|  1> ! HF-3c
|  2> !TightSCF
|  3> %scf
|  4>  ConvForced true
|  5>  convergence tight
|  6>  MaxIter 500
|  7> end
|  8>
|  9> %tddft
| 10>  nroots 1
| 11> end
| 12>
| 13> # 	21125
| 14> * xyz 0 1
| 15> 		C   -0.610322  -0.409268   0.003257
| 16> 		O   -0.536355  -1.654677  -0.004446
| 17> 		C    0.601063   0.484455  -0.001915
| 18> 		C    1.851342  -0.169326  -0.005881
| 19> 		H   -1.514220  -0.035022   0.090025
| 20> 		H    0.535696   1.634751  -0.085809
| 21> 		H    1.809221  -1.296072   0.019152
| 22> 		H    2.702332   0.314824   0.101383
| 23> *
| 24>
| 25>                          ****END OF INPUT****

CARTESIAN COORDINATES (ANGSTROEM)
---------------------------------
  C     -0.610322   -0.409268    0.003257
  O     -0.536355   -1.654677   -0.004446
  C      0.601063    0.484455   -0.001915
  C      1.851342   -0.169326   -0.005881
  H     -1.514220   -0.035022    0.090025
  H      0.535696    1.634751   -0.085809
  H      1.809221   -1.296072    0.019152
  H      2.702332    0.314824    0.101383

 Total Charge           Charge          ....    0
 Multiplicity           Mult            ....    1
 Number of Electrons    NEL             ....   30
 Basis Dimension        Dim             ....   24

ORBITAL ENERGIES
----------------

  NO   OCC          E(Eh)            E(eV)
   0   2.0000     -20.354883      -553.8845
   1   2.0000     -11.291454      -307.2561
   2   2.0000     -11.187403      -304.4247
   3   2.0000     -11.185436      -304.3712
   4   2.0000      -1.378571       -37.5128
   5   2.0000      -1.053294       -28.6616
   6   2.0000      -0.901603       -24.5339
   7   2.0000      -0.773353       -21.0440
   8   2.0000      -0.692106       -18.8332
   9   2.0000      -0.597797       -16.2669
  10   2.0000      -0.597198       -16.2506
  11   2.0000      -0.529885       -14.4189
  12   2.0000      -0.521361       -14.1869
  13   2.0000      -0.424767       -11.5585
  14   2.0000      -0.370797       -10.0899
  15   0.0000       0.115157         3.1336
  16   0.0000       0.280544         7.6340
  17   0.0000       0.547869        14.9083
  18   0.0000       0.573201        15.5976
  19   0.0000       0.662855        18.0372

MULLIKEN ATOMIC CHARGES
-----------------------
   0 C :    0.127275
   1 O :   -0.344007
   2 C :   -0.153112
   3 C :   -0.226004
   4 H :    0.141516
   5 H :    0.147093
   6 H :    0.168217
   7 H :    0.139022
Sum of atomic charges:   -0.0000000

LOEWDIN ATOMIC CHARGES
----------------------
   0 C :    0.132391
   1 O :   -0.262161
   2 C :   -0.116510
   3 C :   -0.120301
   4 H :    0.068382
   5 H :    0.100166
   6 H :    0.116122
   7 H :    0.081911

  Mayer bond orders larger than 0.100000
B(  0-C ,  1-O ) :   1.8915 B(  0-C ,  2-C ) :   1.0380 B(  0-C ,  4-H ) :   0.9443
B(  2-C ,  3-C ) :   1.9245 B(  2-C ,  5-H ) :   0.9595 B(  3-C ,  6-H ) :   0.9560
B(  3-C ,  7-H ) :   0.9722

-----------------------------------------------------------------------------
         ABSORPTION SPECTRUM VIA TRANSITION ELECTRIC DIPOLE MOMENTS
-----------------------------------------------------------------------------
State   Energy    Wavelength  fosc         T2        TX        TY        TZ
        (cm-1)      (nm)                 (au**2)    (au)      (au)      (au)
-----------------------------------------------------------------------------
   1   30292.5    330.1   0.000050620   0.00055   0.01990   0.00401  -0.01175

Dispersion correction           -0.025652797
FINAL SINGLE POINT ENERGY      -189.316840774520

DIPOLE MOMENT
-------------
                                X             Y             Z
Electronic contribution:     -1.88635      -1.47054      -0.09283
Nuclear contribution   :      2.15719       2.36886       0.11697
                        -----------------------------------------
Total Dipole Moment    :      0.27084       0.89831       0.02414
                        -----------------------------------------
Magnitude (a.u.)       :      0.93857
Magnitude (Debye)      :      2.38564

Rotational constants in cm-1:     0.684954     0.214605     0.163494
Rotational constants in MHz : 20534.406088  6433.697966  4901.413825

                             ****ORCA TERMINATED NORMALLY****
TOTAL RUN TIME: 0 days 0 hours 0 minutes 10 seconds 973 msec
