                         Program Version 5.0.3 -  RELEASE  -
|  1> ! HF-3c
|  2> !TightSCF
|  3> %scf
|  4>  ConvForced true
|  5>  convergence tight
|  6>  MaxIter 500
|  7> end
|  8>
|  9> %tddft
| 10>  nroots 1
| 11> end
| 12>
| 13> # 	27347
| 14> * xyz 0 1
| 15> 		C   -0.571950  -0.390143  -0.048983
| 16> 		O   -0.596458  -1.639599   0.014350
| 17> 		C    0.646912   0.355336   0.080793
| 18> 		C    1.830669  -0.102987  -0.036626
| 19> 		H   -1.550134   0.125629  -0.140062
| 20> 		H    0.539275   1.400968  -0.007181
| 21> 		H    2.159045  -1.130219   0.188982
| 22> 		H    2.581050   0.547962  -0.224644
| 23> *
| 24>
| 25>                          ****END OF INPUT****

CARTESIAN COORDINATES (ANGSTROEM)
---------------------------------
  C     -0.571950   -0.390143   -0.048983
  O     -0.596458   -1.639599    0.014350
  C      0.646912    0.355336    0.080793
  C      1.830669   -0.102987   -0.036626
  H     -1.550134    0.125629   -0.140062
  H      0.539275    1.400968   -0.007181
  H      2.159045   -1.130219    0.188982
  H      2.581050    0.547962   -0.224644

 Total Charge           Charge          ....    0
 Multiplicity           Mult            ....    1
 Number of Electrons    NEL             ....   30
 Basis Dimension        Dim             ....   24

ORBITAL ENERGIES
----------------

  NO   OCC          E(Eh)            E(eV)
   0   2.0000     -20.351276      -553.7864
   1   2.0000     -11.287655      -307.1527
   2   2.0000     -11.202760      -304.8426
   3   2.0000     -11.201304      -304.8030
   4   2.0000      -1.372791       -37.3555
   5   2.0000      -1.110725       -30.2244
   6   2.0000      -0.911535       -24.8041
   7   2.0000      -0.756137       -20.5755
   8   2.0000      -0.717706       -19.5298
   9   2.0000      -0.631607       -17.1869
  10   2.0000      -0.595265       -16.1980
  11   2.0000      -0.541633       -14.7386
  12   2.0000      -0.523756       -14.2521
  13   2.0000      -0.421168       -11.4606
  14   2.0000      -0.400206       -10.8902
  15   0.0000       0.121391         3.3032
  16   0.0000       0.310389         8.4461
  17   0.0000       0.558683        15.2025
  18   0.0000       0.660054        17.9610
  19   0.0000       0.675037        18.3687

MULLIKEN ATOMIC CHARGES
-----------------------
   0 C :    0.148306
   1 O :   -0.340345
   2 C :   -0.188400
   3 C :   -0.221577
   4 H :    0.144898
   5 H :    0.146020
   6 H :    0.165020
   7 H :    0.146077
Sum of atomic charges:   -0.0000000

LOEWDIN ATOMIC CHARGES
----------------------
   0 C :    0.139160
   1 O :   -0.259373
   2 C :   -0.134910
   3 C :   -0.116773
   4 H :    0.082239
   5 H :    0.090481
   6 H :    0.110348
   7 H :    0.088827

  Mayer bond orders larger than 0.100000
B(  0-C ,  1-O ) :   1.8904 B(  0-C ,  2-C ) :   1.0497 B(  0-C ,  4-H ) :   0.9321
B(  2-C ,  3-C ) :   1.9413 B(  2-C ,  5-H ) :   0.9534 B(  3-C ,  6-H ) :   0.9564
B(  3-C ,  7-H ) :   0.9637

-----------------------------------------------------------------------------
         ABSORPTION SPECTRUM VIA TRANSITION ELECTRIC DIPOLE MOMENTS
-----------------------------------------------------------------------------
State   Energy    Wavelength  fosc         T2        TX        TY        TZ
        (cm-1)      (nm)                 (au**2)    (au)      (au)      (au)
-----------------------------------------------------------------------------
   1   29301.3    341.3   0.000115091   0.00129  -0.03535   0.00336   0.00568

Dispersion correction           -0.026013279
FINAL SINGLE POINT ENERGY      -189.337343598945

DIPOLE MOMENT
-------------
                                X             Y             Z
Electronic contribution:     -2.02185      -1.73695       0.10044
Nuclear contribution   :      2.34041       2.67174      -0.17054
                        -----------------------------------------
Total Dipole Moment    :      0.31857       0.93479      -0.07010
                        -----------------------------------------
Magnitude (a.u.)       :      0.99007
Magnitude (Debye)      :      2.51655

Rotational constants in cm-1:     0.803958     0.209582     0.167010
Rotational constants in MHz : 24102.039651  6283.122921  5006.819840

                             ****ORCA TERMINATED NORMALLY****
TOTAL RUN TIME: 0 days 0 hours 0 minutes 16 seconds 88 msec
