                         Program Version 5.0.3 -  RELEASE  -
|  1> ! HF-3c
|  2> !TightSCF
|  3> %scf
|  4>  ConvForced true
|  5>  convergence tight
|  6>  MaxIter 500
|  7> end
|  8>
|  9> %tddft
| 10>  nroots 1
| 11> end
| 12>
| 13> # 	7712
| 14> * xyz 0 1
| 15> 		C   -1.168151  -0.415736  -0.005377
| 16> 		O   -1.793652  -1.126500   0.844685
| 17> 		C    0.007782   0.366279   0.300264
| 18> 		C    1.184013   0.065856  -0.159573
| 19> 		H   -1.489814  -0.307089  -1.063541
| 20> 		H   -0.133525   1.320440   0.874261
| 21> 		H    1.341199  -0.670302  -0.850627
| 22> 		H    2.043970   0.726794   0.033108
| 23> *
| 24>
| 25>                          ****END OF INPUT****

CARTESIAN COORDINATES (ANGSTROEM)
---------------------------------
  C     -1.168151   -0.415736   -0.005377
  O     -1.793652   -1.126500    0.844685
  C      0.007782    0.366279    0.300264
  C      1.184013    0.065856   -0.159573
  H     -1.489814   -0.307089   -1.063541
  H     -0.133525    1.320440    0.874261
  H      1.341199   -0.670302   -0.850627
  H      2.043970    0.726794    0.033108

 Total Charge           Charge          ....    0
 Multiplicity           Mult            ....    1
 Number of Electrons    NEL             ....   30
 Basis Dimension        Dim             ....   24

ORBITAL ENERGIES
----------------

  NO   OCC          E(Eh)            E(eV)
   0   2.0000     -20.364129      -554.1361
   1   2.0000     -11.290834      -307.2392
   2   2.0000     -11.200558      -304.7827
   3   2.0000     -11.186743      -304.4068
   4   2.0000      -1.364035       -37.1173
   5   2.0000      -1.102256       -29.9939
   6   2.0000      -0.899540       -24.4777
   7   2.0000      -0.769690       -20.9443
   8   2.0000      -0.679321       -18.4853
   9   2.0000      -0.643362       -17.5068
  10   2.0000      -0.600756       -16.3474
  11   2.0000      -0.546911       -14.8822
  12   2.0000      -0.477840       -13.0027
  13   2.0000      -0.424102       -11.5404
  14   2.0000      -0.409754       -11.1500
  15   0.0000       0.157534         4.2867
  16   0.0000       0.228164         6.2087
  17   0.0000       0.576138        15.6775
  18   0.0000       0.603656        16.4263
  19   0.0000       0.684681        18.6311

MULLIKEN ATOMIC CHARGES
-----------------------
   0 C :    0.151738
   1 O :   -0.326601
   2 C :   -0.164815
   3 C :   -0.252346
   4 H :    0.144995
   5 H :    0.161021
   6 H :    0.139331
   7 H :    0.146676
Sum of atomic charges:   -0.0000000

LOEWDIN ATOMIC CHARGES
----------------------
   0 C :    0.148855
   1 O :   -0.250207
   2 C :   -0.114987
   3 C :   -0.157837
   4 H :    0.082836
   5 H :    0.109478
   6 H :    0.084785
   7 H :    0.097077

  Mayer bond orders larger than 0.100000
B(  0-C ,  1-O ) :   1.9366 B(  0-C ,  2-C ) :   1.0132 B(  0-C ,  4-H ) :   0.9229
B(  2-C ,  3-C ) :   1.9913 B(  2-C ,  5-H ) :   0.9405 B(  3-C ,  6-H ) :   0.9666
B(  3-C ,  7-H ) :   0.9612

-----------------------------------------------------------------------------
         ABSORPTION SPECTRUM VIA TRANSITION ELECTRIC DIPOLE MOMENTS
-----------------------------------------------------------------------------
State   Energy    Wavelength  fosc         T2        TX        TY        TZ
        (cm-1)      (nm)                 (au**2)    (au)      (au)      (au)
-----------------------------------------------------------------------------
   1   30810.1    324.6   0.000013391   0.00014  -0.00995  -0.00665  -0.00015

Dispersion correction           -0.025449988
FINAL SINGLE POINT ENERGY      -189.331832739904

DIPOLE MOMENT
-------------
                                X             Y             Z
Electronic contribution:     -2.82699      -1.42864       1.20724
Nuclear contribution   :      3.41637       2.11247      -1.88123
                        -----------------------------------------
Total Dipole Moment    :      0.58937       0.68383      -0.67399
                        -----------------------------------------
Magnitude (a.u.)       :      1.12661
Magnitude (Debye)      :      2.86362

Rotational constants in cm-1:     1.147472     0.159166     0.156707
Rotational constants in MHz : 34400.356970  4771.662949  4697.967722

                             ****ORCA TERMINATED NORMALLY****
TOTAL RUN TIME: 0 days 0 hours 0 minutes 10 seconds 872 msec
