                         Program Version 5.0.3 -  RELEASE  -
|  1> ! B3LYP cc-pVDZ
|  2> !TightSCF
|  3> %scf
|  4>  ConvForced true
|  5>  convergence tight
|  6>  MaxIter 500
|  7> end
|  8>
|  9> %tddft
| 10>  nroots 1
| 11> end
| 12>
| 13> # 	28268
| 14> * xyz 0 1
| 15> 		C   -0.610480  -0.451414  -0.014214
| 16> 		O   -0.568010  -1.647625   0.001709
| 17> 		C    0.636725   0.445839   0.006943
| 18> 		C    1.837344  -0.135656  -0.034929
| 19> 		H   -1.491216   0.185968   0.126444
| 20> 		H    0.551957   1.524859  -0.001910
| 21> 		H    1.860613  -1.110121   0.188792
| 22> 		H    2.850656   0.481767   0.166802
| 23> *
| 24>
| 25>                          ****END OF INPUT****

CARTESIAN COORDINATES (ANGSTROEM)
---------------------------------
  C     -0.610480   -0.451414   -0.014214
  O     -0.568010   -1.647625    0.001709
  C      0.636725    0.445839    0.006943
  C      1.837344   -0.135656   -0.034929
  H     -1.491216    0.185968    0.126444
  H      0.551957    1.524859   -0.001910
  H      1.860613   -1.110121    0.188792
  H      2.850656    0.481767    0.166802

 Total Charge           Charge          ....    0
 Multiplicity           Mult            ....    1
 Number of Electrons    NEL             ....   30
 Basis Dimension        Dim             ....   76

ORBITAL ENERGIES
----------------

  NO   OCC          E(Eh)            E(eV)
   0   2.0000     -19.147191      -521.0216
   1   2.0000     -10.281176      -279.7650
   2   2.0000     -10.206699      -277.7384
   3   2.0000     -10.202377      -277.6208
   4   2.0000      -1.059393       -28.8275
   5   2.0000      -0.790753       -21.5175
   6   2.0000      -0.651941       -17.7402
   7   2.0000      -0.549407       -14.9501
   8   2.0000      -0.500849       -13.6288
   9   2.0000      -0.452958       -12.3256
  10   2.0000      -0.417267       -11.3544
  11   2.0000      -0.404714       -11.0128
  12   2.0000      -0.380465       -10.3530
  13   2.0000      -0.287790        -7.8312
  14   2.0000      -0.260317        -7.0836
  15   0.0000      -0.068820        -1.8727
  16   0.0000       0.049344         1.3427
  17   0.0000       0.064999         1.7687
  18   0.0000       0.095095         2.5877
  19   0.0000       0.124584         3.3901

MULLIKEN ATOMIC CHARGES
-----------------------
   0 C :    0.203535
   1 O :   -0.174658
   2 C :   -0.132301
   3 C :    0.071763
   4 H :   -0.014648
   5 H :   -0.009186
   6 H :    0.006168
   7 H :    0.049327
Sum of atomic charges:    0.0000000

LOEWDIN ATOMIC CHARGES
----------------------
   0 C :   -0.028304
   1 O :    0.016428
   2 C :   -0.074830
   3 C :    0.019067
   4 H :   -0.008468
   5 H :    0.022957
   6 H :    0.001688
   7 H :    0.051462

  Mayer bond orders larger than 0.100000
B(  0-C ,  1-O ) :   2.2110 B(  0-C ,  2-C ) :   1.0168 B(  0-C ,  4-H ) :   0.9157
B(  2-C ,  3-C ) :   1.9704 B(  2-C ,  5-H ) :   0.9467 B(  3-C ,  6-H ) :   0.9323
B(  3-C ,  7-H ) :   0.9470

-----------------------------------------------------------------------------
         ABSORPTION SPECTRUM VIA TRANSITION ELECTRIC DIPOLE MOMENTS
-----------------------------------------------------------------------------
State   Energy    Wavelength  fosc         T2        TX        TY        TZ
        (cm-1)      (nm)                 (au**2)    (au)      (au)      (au)
-----------------------------------------------------------------------------
   1   29130.7    343.3   0.000177342   0.00200  -0.03598   0.01130   0.02412

FINAL SINGLE POINT ENERGY      -191.653854749252

DIPOLE MOMENT
-------------
                                X             Y             Z
Electronic contribution:     -2.12488      -1.94783      -0.35981
Nuclear contribution   :      2.38142       2.80327       0.45017
                        -----------------------------------------
Total Dipole Moment    :      0.25653       0.85544       0.09036
                        -----------------------------------------
Magnitude (a.u.)       :      0.89764
Magnitude (Debye)      :      2.28161

Rotational constants in cm-1:     0.755382     0.207296     0.162966
Rotational constants in MHz : 22645.773014  6214.580943  4885.597575

                             ****ORCA TERMINATED NORMALLY****
TOTAL RUN TIME: 0 days 0 hours 3 minutes 19 seconds 68 msec
