                         Program Version 5.0.3 -  RELEASE  -
|  1> ! HF-3c
|  2> !TightSCF
|  3> %scf
|  4>  ConvForced true
|  5>  convergence tight
|  6>  MaxIter 500
|  7> end
|  8>
|  9> %tddft
| 10>  nroots 1
| 11> end
| 12>
| 13> # 	14110
| 14> * xyz 0 1
| 15> 		C   -1.184654  -0.294324  -0.001389
| 16> 		O   -1.780626  -0.882771   0.973316
| 17> 		C   -0.021910   0.536688   0.252517
| 18> 		C    1.198919   0.005366  -0.166145
| 19> 		H   -1.521871  -0.391823  -1.139248
| 20> 		H   -0.090038   1.324653   1.044892
| 21> 		H    1.233949  -0.899992  -0.891761
| 22> 		H    2.168993   0.653630  -0.052191
| 23> *
| 24>
| 25>                          ****END OF INPUT****

CARTESIAN COORDINATES (ANGSTROEM)
---------------------------------
  C     -1.184654   -0.294324   -0.001389
  O     -1.780626   -0.882771    0.973316
  C     -0.021910    0.536688    0.252517
  C      1.198919    0.005366   -0.166145
  H     -1.521871   -0.391823   -1.139248
  H     -0.090038    1.324653    1.044892
  H      1.233949   -0.899992   -0.891761
  H      2.168993    0.653630   -0.052191

 Total Charge           Charge          ....    0
 Multiplicity           Mult            ....    1
 Number of Electrons    NEL             ....   30
 Basis Dimension        Dim             ....   24

ORBITAL ENERGIES
----------------

  NO   OCC          E(Eh)            E(eV)
   0   2.0000     -20.341634      -553.5240
   1   2.0000     -11.277010      -306.8630
   2   2.0000     -11.181938      -304.2760
   3   2.0000     -11.178265      -304.1761
   4   2.0000      -1.345519       -36.6134
   5   2.0000      -1.060111       -28.8471
   6   2.0000      -0.860922       -23.4269
   7   2.0000      -0.746492       -20.3131
   8   2.0000      -0.640945       -17.4410
   9   2.0000      -0.611396       -16.6369
  10   2.0000      -0.570639       -15.5279
  11   2.0000      -0.527985       -14.3672
  12   2.0000      -0.467699       -12.7267
  13   2.0000      -0.407267       -11.0823
  14   2.0000      -0.372814       -10.1448
  15   0.0000       0.143892         3.9155
  16   0.0000       0.227449         6.1892
  17   0.0000       0.530523        14.4363
  18   0.0000       0.553834        15.0706
  19   0.0000       0.573942        15.6177

MULLIKEN ATOMIC CHARGES
-----------------------
   0 C :    0.150575
   1 O :   -0.342435
   2 C :   -0.179306
   3 C :   -0.208126
   4 H :    0.142068
   5 H :    0.158856
   6 H :    0.136839
   7 H :    0.141529
Sum of atomic charges:   -0.0000000

LOEWDIN ATOMIC CHARGES
----------------------
   0 C :    0.145717
   1 O :   -0.270381
   2 C :   -0.135450
   3 C :   -0.126762
   4 H :    0.087546
   5 H :    0.107980
   6 H :    0.093365
   7 H :    0.097984

  Mayer bond orders larger than 0.100000
B(  0-C ,  1-O ) :   1.9157 B(  0-C ,  2-C ) :   1.0283 B(  0-C ,  4-H ) :   0.9174
B(  2-C ,  3-C ) :   1.9525 B(  2-C ,  5-H ) :   0.9476 B(  3-C ,  6-H ) :   0.9642
B(  3-C ,  7-H ) :   0.9616

-----------------------------------------------------------------------------
         ABSORPTION SPECTRUM VIA TRANSITION ELECTRIC DIPOLE MOMENTS
-----------------------------------------------------------------------------
State   Energy    Wavelength  fosc         T2        TX        TY        TZ
        (cm-1)      (nm)                 (au**2)    (au)      (au)      (au)
-----------------------------------------------------------------------------
   1   30320.8    329.8   0.000309873   0.00336  -0.05747   0.00679   0.00397

Dispersion correction           -0.024814491
FINAL SINGLE POINT ENERGY      -189.309710589036

DIPOLE MOMENT
-------------
                                X             Y             Z
Electronic contribution:     -2.72918      -0.86040       1.22028
Nuclear contribution   :      3.45323       1.33362      -2.00442
                        -----------------------------------------
Total Dipole Moment    :      0.72405       0.47322      -0.78414
                        -----------------------------------------
Magnitude (a.u.)       :      1.16750
Magnitude (Debye)      :      2.96756

Rotational constants in cm-1:     0.943718     0.162260     0.158574
Rotational constants in MHz : 28291.956865  4864.443457  4753.939086

                             ****ORCA TERMINATED NORMALLY****
TOTAL RUN TIME: 0 days 0 hours 0 minutes 11 seconds 555 msec
