                         Program Version 5.0.3 -  RELEASE  -
|  1> ! HF-3c
|  2> !TightSCF
|  3> %scf
|  4>  ConvForced true
|  5>  convergence tight
|  6>  MaxIter 500
|  7> end
|  8>
|  9> %tddft
| 10>  nroots 1
| 11> end
| 12>
| 13> # 	13442
| 14> * xyz 0 1
| 15> 		C   -1.218634  -0.328427  -0.065581
| 16> 		O   -1.340119  -1.531489  -0.378163
| 17> 		C    0.033751   0.442759  -0.182970
| 18> 		C    1.198404   0.015232   0.007971
| 19> 		H   -2.163669   0.206689   0.605235
| 20> 		H   -0.025366   1.542921  -0.348541
| 21> 		H    1.410339  -0.900348   0.379331
| 22> 		H    2.095293   0.496240  -0.020833
| 23> *
| 24>
| 25>                          ****END OF INPUT****

CARTESIAN COORDINATES (ANGSTROEM)
---------------------------------
  C     -1.218634   -0.328427   -0.065581
  O     -1.340119   -1.531489   -0.378163
  C      0.033751    0.442759   -0.182970
  C      1.198404    0.015232    0.007971
  H     -2.163669    0.206689    0.605235
  H     -0.025366    1.542921   -0.348541
  H      1.410339   -0.900348    0.379331
  H      2.095293    0.496240   -0.020833

 Total Charge           Charge          ....    0
 Multiplicity           Mult            ....    1
 Number of Electrons    NEL             ....   30
 Basis Dimension        Dim             ....   24

ORBITAL ENERGIES
----------------

  NO   OCC          E(Eh)            E(eV)
   0   2.0000     -20.360920      -554.0488
   1   2.0000     -11.290757      -307.2371
   2   2.0000     -11.208487      -304.9984
   3   2.0000     -11.197687      -304.7045
   4   2.0000      -1.374671       -37.4067
   5   2.0000      -1.111251       -30.2387
   6   2.0000      -0.896513       -24.3953
   7   2.0000      -0.758861       -20.6497
   8   2.0000      -0.694681       -18.9032
   9   2.0000      -0.637257       -17.3406
  10   2.0000      -0.598446       -16.2845
  11   2.0000      -0.528965       -14.3939
  12   2.0000      -0.507286       -13.8039
  13   2.0000      -0.424240       -11.5441
  14   2.0000      -0.404079       -10.9955
  15   0.0000       0.141168         3.8414
  16   0.0000       0.284060         7.7297
  17   0.0000       0.468319        12.7436
  18   0.0000       0.596039        16.2190
  19   0.0000       0.616062        16.7639

MULLIKEN ATOMIC CHARGES
-----------------------
   0 C :    0.177093
   1 O :   -0.342753
   2 C :   -0.172018
   3 C :   -0.256876
   4 H :    0.139352
   5 H :    0.154155
   6 H :    0.150164
   7 H :    0.150882
Sum of atomic charges:    0.0000000

LOEWDIN ATOMIC CHARGES
----------------------
   0 C :    0.150328
   1 O :   -0.258350
   2 C :   -0.119937
   3 C :   -0.149312
   4 H :    0.090670
   5 H :    0.102463
   6 H :    0.090915
   7 H :    0.093224

  Mayer bond orders larger than 0.100000
B(  0-C ,  1-O ) :   1.9246 B(  0-C ,  2-C ) :   1.0150 B(  0-C ,  4-H ) :   0.9069
B(  2-C ,  3-C ) :   1.9775 B(  2-C ,  5-H ) :   0.9450 B(  3-C ,  6-H ) :   0.9591
B(  3-C ,  7-H ) :   0.9607

-----------------------------------------------------------------------------
         ABSORPTION SPECTRUM VIA TRANSITION ELECTRIC DIPOLE MOMENTS
-----------------------------------------------------------------------------
State   Energy    Wavelength  fosc         T2        TX        TY        TZ
        (cm-1)      (nm)                 (au**2)    (au)      (au)      (au)
-----------------------------------------------------------------------------
   1   30993.5    322.6   0.000051087   0.00054  -0.00239   0.00886   0.02141

Dispersion correction           -0.025362402
FINAL SINGLE POINT ENERGY      -189.307581074123

DIPOLE MOMENT
-------------
                                X             Y             Z
Electronic contribution:     -2.27974      -1.70503      -0.75732
Nuclear contribution   :      2.55609       2.69050       1.13065
                        -----------------------------------------
Total Dipole Moment    :      0.27634       0.98547       0.37333
                        -----------------------------------------
Magnitude (a.u.)       :      1.08944
Magnitude (Debye)      :      2.76915

Rotational constants in cm-1:     0.837135     0.192095     0.160691
Rotational constants in MHz : 25096.661911  5758.855529  4817.402951

                             ****ORCA TERMINATED NORMALLY****
TOTAL RUN TIME: 0 days 0 hours 0 minutes 11 seconds 317 msec
