                         Program Version 5.0.3 -  RELEASE  -
|  1> ! HF-3c
|  2> !TightSCF
|  3> %scf
|  4>  ConvForced true
|  5>  convergence tight
|  6>  MaxIter 500
|  7> end
|  8>
|  9> %tddft
| 10>  nroots 1
| 11> end
| 12>
| 13> # 	11981
| 14> * xyz 0 1
| 15> 		C   -1.205426  -0.312640  -0.033185
| 16> 		O   -1.286697  -1.509019  -0.206945
| 17> 		C   -0.039378   0.579577  -0.165758
| 18> 		C    1.191814   0.029655  -0.040912
| 19> 		H   -2.009440   0.095895   0.310743
| 20> 		H   -0.146030   1.567107   0.014745
| 21> 		H    1.314255  -1.050601   0.103702
| 22> 		H    2.169320   0.616524  -0.016056
| 23> *
| 24>
| 25>                          ****END OF INPUT****

CARTESIAN COORDINATES (ANGSTROEM)
---------------------------------
  C     -1.205426   -0.312640   -0.033185
  O     -1.286697   -1.509019   -0.206945
  C     -0.039378    0.579577   -0.165758
  C      1.191814    0.029655   -0.040912
  H     -2.009440    0.095895    0.310743
  H     -0.146030    1.567107    0.014745
  H      1.314255   -1.050601    0.103702
  H      2.169320    0.616524   -0.016056

 Total Charge           Charge          ....    0
 Multiplicity           Mult            ....    1
 Number of Electrons    NEL             ....   30
 Basis Dimension        Dim             ....   24

ORBITAL ENERGIES
----------------

  NO   OCC          E(Eh)            E(eV)
   0   2.0000     -20.365051      -554.1612
   1   2.0000     -11.299803      -307.4833
   2   2.0000     -11.200143      -304.7714
   3   2.0000     -11.191528      -304.5370
   4   2.0000      -1.403397       -38.1884
   5   2.0000      -1.084628       -29.5142
   6   2.0000      -0.906125       -24.6569
   7   2.0000      -0.777251       -21.1501
   8   2.0000      -0.718787       -19.5592
   9   2.0000      -0.617281       -16.7971
  10   2.0000      -0.597435       -16.2570
  11   2.0000      -0.546594       -14.8736
  12   2.0000      -0.535803       -14.5799
  13   2.0000      -0.422226       -11.4893
  14   2.0000      -0.392043       -10.6680
  15   0.0000       0.126451         3.4409
  16   0.0000       0.287475         7.8226
  17   0.0000       0.557923        15.1819
  18   0.0000       0.613108        16.6835
  19   0.0000       0.668677        18.1956

MULLIKEN ATOMIC CHARGES
-----------------------
   0 C :    0.142383
   1 O :   -0.346134
   2 C :   -0.199337
   3 C :   -0.185367
   4 H :    0.137184
   5 H :    0.148066
   6 H :    0.155149
   7 H :    0.148055
Sum of atomic charges:    0.0000000

LOEWDIN ATOMIC CHARGES
----------------------
   0 C :    0.139756
   1 O :   -0.254411
   2 C :   -0.151627
   3 C :   -0.086459
   4 H :    0.061618
   5 H :    0.089813
   6 H :    0.101262
   7 H :    0.100048

  Mayer bond orders larger than 0.100000
B(  0-C ,  1-O ) :   1.9006 B(  0-C ,  2-C ) :   1.0311 B(  0-C ,  4-H ) :   0.9407
B(  2-C ,  3-C ) :   1.9282 B(  2-C ,  5-H ) :   0.9615 B(  3-C ,  6-H ) :   0.9616
B(  3-C ,  7-H ) :   0.9637

-----------------------------------------------------------------------------
         ABSORPTION SPECTRUM VIA TRANSITION ELECTRIC DIPOLE MOMENTS
-----------------------------------------------------------------------------
State   Energy    Wavelength  fosc         T2        TX        TY        TZ
        (cm-1)      (nm)                 (au**2)    (au)      (au)      (au)
-----------------------------------------------------------------------------
   1   32347.5    309.1   0.000195311   0.00199   0.04385   0.00014   0.00807

Dispersion correction           -0.025877510
FINAL SINGLE POINT ENERGY      -189.312033618791

DIPOLE MOMENT
-------------
                                X             Y             Z
Electronic contribution:     -2.01567      -1.57919      -0.51089
Nuclear contribution   :      2.56314       2.43039       0.77264
                        -----------------------------------------
Total Dipole Moment    :      0.54747       0.85120       0.26174
                        -----------------------------------------
Magnitude (a.u.)       :      1.04536
Magnitude (Debye)      :      2.65708

Rotational constants in cm-1:     0.799601     0.202009     0.162722
Rotational constants in MHz : 23971.421873  6056.065090  4878.291392

                             ****ORCA TERMINATED NORMALLY****
TOTAL RUN TIME: 0 days 0 hours 0 minutes 16 seconds 67 msec
