                         Program Version 5.0.3 -  RELEASE  -
|  1> ! HF-3c
|  2> !TightSCF
|  3> %scf
|  4>  ConvForced true
|  5>  convergence tight
|  6>  MaxIter 500
|  7> end
|  8>
|  9> %tddft
| 10>  nroots 1
| 11> end
| 12>
| 13> # 	336
| 14> * xyz 0 1
| 15> 		C   -1.167807  -0.356780   0.016081
| 16> 		O   -1.961751  -0.635155   0.947628
| 17> 		C    0.020091   0.396536   0.293999
| 18> 		C    1.135023   0.023821  -0.177683
| 19> 		H   -1.324151  -0.615192  -0.953682
| 20> 		H   -0.143088   1.313834   0.963978
| 21> 		H    1.281816  -0.570617  -0.856623
| 22> 		H    2.134119   0.502721  -0.233284
| 23> *
| 24>
| 25>                          ****END OF INPUT****

CARTESIAN COORDINATES (ANGSTROEM)
---------------------------------
  C     -1.167807   -0.356780    0.016081
  O     -1.961751   -0.635155    0.947628
  C      0.020091    0.396536    0.293999
  C      1.135023    0.023821   -0.177683
  H     -1.324151   -0.615192   -0.953682
  H     -0.143088    1.313834    0.963978
  H      1.281816   -0.570617   -0.856623
  H      2.134119    0.502721   -0.233284

 Total Charge           Charge          ....    0
 Multiplicity           Mult            ....    1
 Number of Electrons    NEL             ....   30
 Basis Dimension        Dim             ....   24

ORBITAL ENERGIES
----------------

  NO   OCC          E(Eh)            E(eV)
   0   2.0000     -20.369252      -554.2755
   1   2.0000     -11.297229      -307.4132
   2   2.0000     -11.212560      -305.1093
   3   2.0000     -11.194012      -304.6045
   4   2.0000      -1.381774       -37.6000
   5   2.0000      -1.120450       -30.4890
   6   2.0000      -0.917962       -24.9790
   7   2.0000      -0.811584       -22.0843
   8   2.0000      -0.701358       -19.0849
   9   2.0000      -0.660006       -17.9597
  10   2.0000      -0.603393       -16.4192
  11   2.0000      -0.535720       -14.5777
  12   2.0000      -0.506377       -13.7792
  13   2.0000      -0.428150       -11.6506
  14   2.0000      -0.418931       -11.3997
  15   0.0000       0.135910         3.6983
  16   0.0000       0.268325         7.3015
  17   0.0000       0.528717        14.3871
  18   0.0000       0.628494        17.1022
  19   0.0000       0.726785        19.7768

MULLIKEN ATOMIC CHARGES
-----------------------
   0 C :    0.141636
   1 O :   -0.324119
   2 C :   -0.149275
   3 C :   -0.280437
   4 H :    0.147820
   5 H :    0.168994
   6 H :    0.139176
   7 H :    0.156206
Sum of atomic charges:    0.0000000

LOEWDIN ATOMIC CHARGES
----------------------
   0 C :    0.142770
   1 O :   -0.243846
   2 C :   -0.097563
   3 C :   -0.176055
   4 H :    0.076193
   5 H :    0.116591
   6 H :    0.076672
   7 H :    0.105236

  Mayer bond orders larger than 0.100000
B(  0-C ,  1-O ) :   1.9166 B(  0-C ,  2-C ) :   1.0253 B(  0-C ,  4-H ) :   0.9347
B(  2-C ,  3-C ) :   1.9790 B(  2-C ,  5-H ) :   0.9402 B(  3-C ,  6-H ) :   0.9656
B(  3-C ,  7-H ) :   0.9555

-----------------------------------------------------------------------------
         ABSORPTION SPECTRUM VIA TRANSITION ELECTRIC DIPOLE MOMENTS
-----------------------------------------------------------------------------
State   Energy    Wavelength  fosc         T2        TX        TY        TZ
        (cm-1)      (nm)                 (au**2)    (au)      (au)      (au)
-----------------------------------------------------------------------------
   1   30370.6    329.3   0.000103671   0.00112   0.03197   0.00499  -0.00876

Dispersion correction           -0.026028315
FINAL SINGLE POINT ENERGY      -189.281398494804

DIPOLE MOMENT
-------------
                                X             Y             Z
Electronic contribution:     -3.06012      -0.81108       1.35453
Nuclear contribution   :      3.78659       1.17119      -2.05141
                        -----------------------------------------
Total Dipole Moment    :      0.72648       0.36011      -0.69688
                        -----------------------------------------
Magnitude (a.u.)       :      1.06915
Magnitude (Debye)      :      2.71758

Rotational constants in cm-1:     1.375755     0.165010     0.156290
Rotational constants in MHz : 41244.108604  4946.877185  4685.458579

                             ****ORCA TERMINATED NORMALLY****
TOTAL RUN TIME: 0 days 0 hours 0 minutes 15 seconds 575 msec
