                         Program Version 5.0.3 -  RELEASE  -
|  1> ! HF-3c
|  2> !TightSCF
|  3> %scf
|  4>  ConvForced true
|  5>  convergence tight
|  6>  MaxIter 500
|  7> end
|  8>
|  9> %tddft
| 10>  nroots 1
| 11> end
| 12>
| 13> # 	4256
| 14> * xyz 0 1
| 15> 		C   -1.139618  -0.350863   0.080102
| 16> 		O   -1.970827  -0.608773   0.926841
| 17> 		C    0.057913   0.464476   0.307001
| 18> 		C    1.237731   0.093724  -0.270782
| 19> 		H   -1.315528  -0.795749  -0.958049
| 20> 		H   -0.192212   1.153303   1.036213
| 21> 		H    1.210947  -0.723439  -0.964493
| 22> 		H    2.088504   0.725942  -0.146130
| 23> *
| 24>
| 25>                          ****END OF INPUT****

CARTESIAN COORDINATES (ANGSTROEM)
---------------------------------
  C     -1.139618   -0.350863    0.080102
  O     -1.970827   -0.608773    0.926841
  C      0.057913    0.464476    0.307001
  C      1.237731    0.093724   -0.270782
  H     -1.315528   -0.795749   -0.958049
  H     -0.192212    1.153303    1.036213
  H      1.210947   -0.723439   -0.964493
  H      2.088504    0.725942   -0.146130

 Total Charge           Charge          ....    0
 Multiplicity           Mult            ....    1
 Number of Electrons    NEL             ....   30
 Basis Dimension        Dim             ....   24

ORBITAL ENERGIES
----------------

  NO   OCC          E(Eh)            E(eV)
   0   2.0000     -20.360665      -554.0418
   1   2.0000     -11.288915      -307.1870
   2   2.0000     -11.199622      -304.7572
   3   2.0000     -11.196675      -304.6770
   4   2.0000      -1.398014       -38.0419
   5   2.0000      -1.085680       -29.5429
   6   2.0000      -0.888006       -24.1639
   7   2.0000      -0.780481       -21.2380
   8   2.0000      -0.666909       -18.1475
   9   2.0000      -0.651320       -17.7233
  10   2.0000      -0.589082       -16.0297
  11   2.0000      -0.564056       -15.3488
  12   2.0000      -0.522774       -14.2254
  13   2.0000      -0.407313       -11.0836
  14   2.0000      -0.394885       -10.7454
  15   0.0000       0.131401         3.5756
  16   0.0000       0.277269         7.5449
  17   0.0000       0.565575        15.3901
  18   0.0000       0.621713        16.9177
  19   0.0000       0.652191        17.7470

MULLIKEN ATOMIC CHARGES
-----------------------
   0 C :    0.166637
   1 O :   -0.354438
   2 C :   -0.171997
   3 C :   -0.231035
   4 H :    0.130654
   5 H :    0.159508
   6 H :    0.148368
   7 H :    0.152304
Sum of atomic charges:    0.0000000

LOEWDIN ATOMIC CHARGES
----------------------
   0 C :    0.144858
   1 O :   -0.261279
   2 C :   -0.118766
   3 C :   -0.130721
   4 H :    0.070988
   5 H :    0.099587
   6 H :    0.096505
   7 H :    0.098829

  Mayer bond orders larger than 0.100000
B(  0-C ,  1-O ) :   1.9114 B(  0-C ,  2-C ) :   1.0231 B(  0-C ,  4-H ) :   0.9221
B(  2-C ,  3-C ) :   1.9515 B(  2-C ,  5-H ) :   0.9558 B(  3-C ,  6-H ) :   0.9643
B(  3-C ,  7-H ) :   0.9645

-----------------------------------------------------------------------------
         ABSORPTION SPECTRUM VIA TRANSITION ELECTRIC DIPOLE MOMENTS
-----------------------------------------------------------------------------
State   Energy    Wavelength  fosc         T2        TX        TY        TZ
        (cm-1)      (nm)                 (au**2)    (au)      (au)      (au)
-----------------------------------------------------------------------------
   1   32647.7    306.3   0.000096066   0.00097   0.02463  -0.01174  -0.01497

Dispersion correction           -0.025623039
FINAL SINGLE POINT ENERGY      -189.330320748426

DIPOLE MOMENT
-------------
                                X             Y             Z
Electronic contribution:     -2.66903      -0.55340       1.29008
Nuclear contribution   :      3.52339       0.79157      -1.97535
                        -----------------------------------------
Total Dipole Moment    :      0.85437       0.23817      -0.68527
                        -----------------------------------------
Magnitude (a.u.)       :      1.12083
Magnitude (Debye)      :      2.84893

Rotational constants in cm-1:     1.380179     0.157431     0.146996
Rotational constants in MHz : 41376.734344  4719.661898  4406.833094

                             ****ORCA TERMINATED NORMALLY****
TOTAL RUN TIME: 0 days 0 hours 0 minutes 12 seconds 301 msec
