                         Program Version 5.0.3 -  RELEASE  -
|  1> ! HF-3c
|  2> !TightSCF
|  3> %scf
|  4>  ConvForced true
|  5>  convergence tight
|  6>  MaxIter 500
|  7> end
|  8>
|  9> %tddft
| 10>  nroots 1
| 11> end
| 12>
| 13> # 	31082
| 14> * xyz 0 1
| 15> 		C   -0.584512  -0.429394  -0.021544
| 16> 		O   -0.575952  -1.630672   0.000504
| 17> 		C    0.624750   0.408295   0.035222
| 18> 		C    1.840517  -0.114408  -0.013743
| 19> 		H   -1.599670   0.120332   0.056907
| 20> 		H    0.505202   1.431779  -0.111805
| 21> 		H    1.974042  -1.160319   0.092127
| 22> 		H    2.790935   0.358971  -0.054171
| 23> *
| 24>
| 25>                          ****END OF INPUT****

CARTESIAN COORDINATES (ANGSTROEM)
---------------------------------
  C     -0.584512   -0.429394   -0.021544
  O     -0.575952   -1.630672    0.000504
  C      0.624750    0.408295    0.035222
  C      1.840517   -0.114408   -0.013743
  H     -1.599670    0.120332    0.056907
  H      0.505202    1.431779   -0.111805
  H      1.974042   -1.160319    0.092127
  H      2.790935    0.358971   -0.054171

 Total Charge           Charge          ....    0
 Multiplicity           Mult            ....    1
 Number of Electrons    NEL             ....   30
 Basis Dimension        Dim             ....   24

ORBITAL ENERGIES
----------------

  NO   OCC          E(Eh)            E(eV)
   0   2.0000     -20.366468      -554.1998
   1   2.0000     -11.298290      -307.4421
   2   2.0000     -11.197346      -304.6953
   3   2.0000     -11.193896      -304.6014
   4   2.0000      -1.408424       -38.3252
   5   2.0000      -1.087370       -29.5888
   6   2.0000      -0.895428       -24.3658
   7   2.0000      -0.756347       -20.5812
   8   2.0000      -0.710260       -19.3271
   9   2.0000      -0.627994       -17.0886
  10   2.0000      -0.598556       -16.2875
  11   2.0000      -0.547237       -14.8911
  12   2.0000      -0.533662       -14.5217
  13   2.0000      -0.412375       -11.2213
  14   2.0000      -0.400924       -10.9097
  15   0.0000       0.129602         3.5267
  16   0.0000       0.309784         8.4297
  17   0.0000       0.527584        14.3563
  18   0.0000       0.661213        17.9925
  19   0.0000       0.674076        18.3425

MULLIKEN ATOMIC CHARGES
-----------------------
   0 C :    0.175574
   1 O :   -0.355770
   2 C :   -0.187977
   3 C :   -0.215703
   4 H :    0.135759
   5 H :    0.144087
   6 H :    0.154650
   7 H :    0.149380
Sum of atomic charges:   -0.0000000

LOEWDIN ATOMIC CHARGES
----------------------
   0 C :    0.149576
   1 O :   -0.258241
   2 C :   -0.139723
   3 C :   -0.109481
   4 H :    0.076101
   5 H :    0.088294
   6 H :    0.098038
   7 H :    0.095436

  Mayer bond orders larger than 0.100000
B(  0-C ,  1-O ) :   1.9090 B(  0-C ,  2-C ) :   1.0235 B(  0-C ,  4-H ) :   0.9195
B(  2-C ,  3-C ) :   1.9453 B(  2-C ,  5-H ) :   0.9601 B(  3-C ,  6-H ) :   0.9605
B(  3-C ,  7-H ) :   0.9652

-----------------------------------------------------------------------------
         ABSORPTION SPECTRUM VIA TRANSITION ELECTRIC DIPOLE MOMENTS
-----------------------------------------------------------------------------
State   Energy    Wavelength  fosc         T2        TX        TY        TZ
        (cm-1)      (nm)                 (au**2)    (au)      (au)      (au)
-----------------------------------------------------------------------------
   1   32800.5    304.9   0.000254362   0.00255  -0.04951  -0.00145   0.00997

Dispersion correction           -0.025816797
FINAL SINGLE POINT ENERGY      -189.338609787313

DIPOLE MOMENT
-------------
                                X             Y             Z
Electronic contribution:     -1.96791      -1.60394      -0.01047
Nuclear contribution   :      2.28763       2.49194      -0.01523
                        -----------------------------------------
Total Dipole Moment    :      0.31972       0.88800      -0.02570
                        -----------------------------------------
Magnitude (a.u.)       :      0.94415
Magnitude (Debye)      :      2.39984

Rotational constants in cm-1:     0.777977     0.210315     0.165722
Rotational constants in MHz : 23323.171101  6305.087796  4968.214947

                             ****ORCA TERMINATED NORMALLY****
TOTAL RUN TIME: 0 days 0 hours 0 minutes 12 seconds 471 msec
