                         Program Version 5.0.3 -  RELEASE  -
|  1> ! B3LYP cc-pVDZ
|  2> !TightSCF
|  3> %scf
|  4>  ConvForced true
|  5>  convergence tight
|  6>  MaxIter 500
|  7> end
|  8>
|  9> %tddft
| 10>  nroots 1
| 11> end
| 12>
| 13> # 	24645
| 14> * xyz 0 1
| 15> 		C   -0.560946  -0.459913   0.034377
| 16> 		O   -0.567708  -1.609009  -0.028322
| 17> 		C    0.637323   0.457967  -0.046599
| 18> 		C    1.819651  -0.144586   0.016038
| 19> 		H   -1.689141  -0.092360   0.268788
| 20> 		H    0.514679   1.500608  -0.079947
| 21> 		H    1.709024  -1.219968   0.199429
| 22> 		H    2.835862   0.296010   0.005216
| 23> *
| 24>
| 25>                          ****END OF INPUT****

CARTESIAN COORDINATES (ANGSTROEM)
---------------------------------
  C     -0.560946   -0.459913    0.034377
  O     -0.567708   -1.609009   -0.028322
  C      0.637323    0.457967   -0.046599
  C      1.819651   -0.144586    0.016038
  H     -1.689141   -0.092360    0.268788
  H      0.514679    1.500608   -0.079947
  H      1.709024   -1.219968    0.199429
  H      2.835862    0.296010    0.005216

 Total Charge           Charge          ....    0
 Multiplicity           Mult            ....    1
 Number of Electrons    NEL             ....   30
 Basis Dimension        Dim             ....   76

ORBITAL ENERGIES
----------------

  NO   OCC          E(Eh)            E(eV)
   0   2.0000     -19.138496      -520.7850
   1   2.0000     -10.278307      -279.6870
   2   2.0000     -10.211627      -277.8725
   3   2.0000     -10.204365      -277.6749
   4   2.0000      -1.084495       -29.5106
   5   2.0000      -0.797981       -21.7142
   6   2.0000      -0.636435       -17.3183
   7   2.0000      -0.537455       -14.6249
   8   2.0000      -0.516895       -14.0654
   9   2.0000      -0.450255       -12.2521
  10   2.0000      -0.434982       -11.8365
  11   2.0000      -0.415823       -11.3151
  12   2.0000      -0.380937       -10.3658
  13   2.0000      -0.292501        -7.9593
  14   2.0000      -0.249162        -6.7800
  15   0.0000      -0.057554        -1.5661
  16   0.0000       0.060523         1.6469
  17   0.0000       0.073663         2.0045
  18   0.0000       0.091743         2.4964
  19   0.0000       0.115405         3.1403

MULLIKEN ATOMIC CHARGES
-----------------------
   0 C :    0.130884
   1 O :   -0.134074
   2 C :   -0.086198
   3 C :    0.072473
   4 H :   -0.030616
   5 H :   -0.024972
   6 H :    0.032775
   7 H :    0.039729
Sum of atomic charges:    0.0000000

LOEWDIN ATOMIC CHARGES
----------------------
   0 C :   -0.071642
   1 O :    0.050624
   2 C :   -0.073936
   3 C :    0.022509
   4 H :   -0.010350
   5 H :    0.016554
   6 H :    0.031615
   7 H :    0.034626

  Mayer bond orders larger than 0.100000
B(  0-C ,  1-O ) :   2.2417 B(  0-C ,  2-C ) :   0.9804 B(  0-C ,  4-H ) :   0.9068
B(  2-C ,  3-C ) :   1.9669 B(  2-C ,  5-H ) :   0.9629 B(  3-C ,  6-H ) :   0.9170
B(  3-C ,  7-H ) :   0.9520

-----------------------------------------------------------------------------
         ABSORPTION SPECTRUM VIA TRANSITION ELECTRIC DIPOLE MOMENTS
-----------------------------------------------------------------------------
State   Energy    Wavelength  fosc         T2        TX        TY        TZ
        (cm-1)      (nm)                 (au**2)    (au)      (au)      (au)
-----------------------------------------------------------------------------
   1   29724.9    336.4   0.000221282   0.00245  -0.01267  -0.00593  -0.04749

FINAL SINGLE POINT ENERGY      -191.651577524213

DIPOLE MOMENT
-------------
                                X             Y             Z
Electronic contribution:     -1.57257      -1.48987      -0.30409
Nuclear contribution   :      2.00536       2.24592       0.36946
                        -----------------------------------------
Total Dipole Moment    :      0.43278       0.75604       0.06536
                        -----------------------------------------
Magnitude (a.u.)       :      0.87360
Magnitude (Debye)      :      2.22051

Rotational constants in cm-1:     0.786678     0.213193     0.168322
Rotational constants in MHz : 23584.026101  6391.352203  5046.166124

                             ****ORCA TERMINATED NORMALLY****
TOTAL RUN TIME: 0 days 0 hours 3 minutes 23 seconds 223 msec
