                         Program Version 5.0.3 -  RELEASE  -
|  1> ! HF-3c
|  2> !TightSCF
|  3> %scf
|  4>  ConvForced true
|  5>  convergence tight
|  6>  MaxIter 500
|  7> end
|  8>
|  9> %tddft
| 10>  nroots 1
| 11> end
| 12>
| 13> # 	28076
| 14> * xyz 0 1
| 15> 		C   -0.660857  -0.497032   0.008117
| 16> 		O   -0.590789  -1.610178   0.001433
| 17> 		C    0.658496   0.414752   0.008489
| 18> 		C    1.892158  -0.089009   0.008082
| 19> 		H   -1.519185   0.121667  -0.079825
| 20> 		H    0.330879   1.410499  -0.102734
| 21> 		H    2.077267  -1.239485  -0.182458
| 22> 		H    2.896770   0.562109   0.050184
| 23> *
| 24>
| 25>                          ****END OF INPUT****

CARTESIAN COORDINATES (ANGSTROEM)
---------------------------------
  C     -0.660857   -0.497032    0.008117
  O     -0.590789   -1.610178    0.001433
  C      0.658496    0.414752    0.008489
  C      1.892158   -0.089009    0.008082
  H     -1.519185    0.121667   -0.079825
  H      0.330879    1.410499   -0.102734
  H      2.077267   -1.239485   -0.182458
  H      2.896770    0.562109    0.050184

 Total Charge           Charge          ....    0
 Multiplicity           Mult            ....    1
 Number of Electrons    NEL             ....   30
 Basis Dimension        Dim             ....   24

ORBITAL ENERGIES
----------------

  NO   OCC          E(Eh)            E(eV)
   0   2.0000     -20.408746      -555.3502
   1   2.0000     -11.324353      -308.1513
   2   2.0000     -11.175659      -304.1051
   3   2.0000     -11.162331      -303.7425
   4   2.0000      -1.483873       -40.3782
   5   2.0000      -1.043923       -28.4066
   6   2.0000      -0.873062       -23.7572
   7   2.0000      -0.750527       -20.4229
   8   2.0000      -0.696732       -18.9591
   9   2.0000      -0.627245       -17.0682
  10   2.0000      -0.593790       -16.1579
  11   2.0000      -0.586005       -15.9460
  12   2.0000      -0.518666       -14.1136
  13   2.0000      -0.397503       -10.8166
  14   2.0000      -0.379426       -10.3247
  15   0.0000       0.164318         4.4713
  16   0.0000       0.310561         8.4508
  17   0.0000       0.460063        12.5189
  18   0.0000       0.563208        15.3257
  19   0.0000       0.644342        17.5335

MULLIKEN ATOMIC CHARGES
-----------------------
   0 C :    0.206310
   1 O :   -0.366055
   2 C :   -0.187090
   3 C :   -0.210105
   4 H :    0.135710
   5 H :    0.128442
   6 H :    0.151605
   7 H :    0.141183
Sum of atomic charges:   -0.0000000

LOEWDIN ATOMIC CHARGES
----------------------
   0 C :    0.158457
   1 O :   -0.230356
   2 C :   -0.151236
   3 C :   -0.126320
   4 H :    0.065197
   5 H :    0.077940
   6 H :    0.106582
   7 H :    0.099736

  Mayer bond orders larger than 0.100000
B(  0-C ,  1-O ) :   1.9539 B(  0-C ,  2-C ) :   0.9430 B(  0-C ,  4-H ) :   0.9139
B(  2-C ,  3-C ) :   1.9877 B(  2-C ,  5-H ) :   0.9653 B(  3-C ,  6-H ) :   0.9541
B(  3-C ,  7-H ) :   0.9577

-----------------------------------------------------------------------------
         ABSORPTION SPECTRUM VIA TRANSITION ELECTRIC DIPOLE MOMENTS
-----------------------------------------------------------------------------
State   Energy    Wavelength  fosc         T2        TX        TY        TZ
        (cm-1)      (nm)                 (au**2)    (au)      (au)      (au)
-----------------------------------------------------------------------------
   1   38015.1    263.1   0.000056111   0.00049   0.00646   0.00019  -0.02108

Dispersion correction           -0.025022318
FINAL SINGLE POINT ENERGY      -189.278270384986

DIPOLE MOMENT
-------------
                                X             Y             Z
Electronic contribution:     -2.19595      -1.80839       0.22417
Nuclear contribution   :      2.39636       2.58964      -0.29549
                        -----------------------------------------
Total Dipole Moment    :      0.20041       0.78124      -0.07132
                        -----------------------------------------
Magnitude (a.u.)       :      0.80969
Magnitude (Debye)      :      2.05806

Rotational constants in cm-1:     0.792657     0.197233     0.158099
Rotational constants in MHz : 23763.245084  5912.882236  4739.692080

                             ****ORCA TERMINATED NORMALLY****
TOTAL RUN TIME: 0 days 0 hours 0 minutes 15 seconds 910 msec
