                         Program Version 5.0.3 -  RELEASE  -
|  1> ! HF-3c
|  2> !TightSCF
|  3> %scf
|  4>  ConvForced true
|  5>  convergence tight
|  6>  MaxIter 500
|  7> end
|  8>
|  9> %tddft
| 10>  nroots 1
| 11> end
| 12>
| 13> # 	4855
| 14> * xyz 0 1
| 15> 		C   -1.149762  -0.409545   0.027430
| 16> 		O   -1.920796  -0.847214  -0.790563
| 17> 		C   -0.004587   0.422851  -0.372520
| 18> 		C    1.225892   0.112508   0.197005
| 19> 		H   -1.363704  -0.545321   0.981857
| 20> 		H   -0.207523   1.363878  -0.882140
| 21> 		H    1.407401  -0.822147   0.838204
| 22> 		H    2.097794   0.795774   0.041244
| 23> *
| 24>
| 25>                          ****END OF INPUT****

CARTESIAN COORDINATES (ANGSTROEM)
---------------------------------
  C     -1.149762   -0.409545    0.027430
  O     -1.920796   -0.847214   -0.790563
  C     -0.004587    0.422851   -0.372520
  C      1.225892    0.112508    0.197005
  H     -1.363704   -0.545321    0.981857
  H     -0.207523    1.363878   -0.882140
  H      1.407401   -0.822147    0.838204
  H      2.097794    0.795774    0.041244

 Total Charge           Charge          ....    0
 Multiplicity           Mult            ....    1
 Number of Electrons    NEL             ....   30
 Basis Dimension        Dim             ....   24

ORBITAL ENERGIES
----------------

  NO   OCC          E(Eh)            E(eV)
   0   2.0000     -20.372115      -554.3534
   1   2.0000     -11.299572      -307.4770
   2   2.0000     -11.185130      -304.3629
   3   2.0000     -11.181406      -304.2615
   4   2.0000      -1.410937       -38.3936
   5   2.0000      -1.063898       -28.9501
   6   2.0000      -0.880709       -23.9653
   7   2.0000      -0.792601       -21.5678
   8   2.0000      -0.678201       -18.4548
   9   2.0000      -0.634822       -17.2744
  10   2.0000      -0.592814       -16.1313
  11   2.0000      -0.544912       -14.8278
  12   2.0000      -0.509548       -13.8655
  13   2.0000      -0.419907       -11.4263
  14   2.0000      -0.382709       -10.4141
  15   0.0000       0.149843         4.0774
  16   0.0000       0.242051         6.5865
  17   0.0000       0.557004        15.1569
  18   0.0000       0.610784        16.6203
  19   0.0000       0.641955        17.4685

MULLIKEN ATOMIC CHARGES
-----------------------
   0 C :    0.138457
   1 O :   -0.334915
   2 C :   -0.167377
   3 C :   -0.214803
   4 H :    0.143239
   5 H :    0.156013
   6 H :    0.140730
   7 H :    0.138657
Sum of atomic charges:   -0.0000000

LOEWDIN ATOMIC CHARGES
----------------------
   0 C :    0.133330
   1 O :   -0.239449
   2 C :   -0.125797
   3 C :   -0.126859
   4 H :    0.068775
   5 H :    0.103007
   6 H :    0.095657
   7 H :    0.091335

  Mayer bond orders larger than 0.100000
B(  0-C ,  1-O ) :   1.9235 B(  0-C ,  2-C ) :   1.0111 B(  0-C ,  4-H ) :   0.9351
B(  2-C ,  3-C ) :   1.9670 B(  2-C ,  5-H ) :   0.9527 B(  3-C ,  6-H ) :   0.9653
B(  3-C ,  7-H ) :   0.9660

-----------------------------------------------------------------------------
         ABSORPTION SPECTRUM VIA TRANSITION ELECTRIC DIPOLE MOMENTS
-----------------------------------------------------------------------------
State   Energy    Wavelength  fosc         T2        TX        TY        TZ
        (cm-1)      (nm)                 (au**2)    (au)      (au)      (au)
-----------------------------------------------------------------------------
   1   32745.8    305.4   0.000100646   0.00101  -0.02938  -0.01004  -0.00691

Dispersion correction           -0.025168276
FINAL SINGLE POINT ENERGY      -189.312263167025

DIPOLE MOMENT
-------------
                                X             Y             Z
Electronic contribution:     -2.87133      -1.07240      -1.14832
Nuclear contribution   :      3.66236       1.48633       1.81010
                        -----------------------------------------
Total Dipole Moment    :      0.79103       0.41393       0.66178
                        -----------------------------------------
Magnitude (a.u.)       :      1.11132
Magnitude (Debye)      :      2.82474

Rotational constants in cm-1:     1.237433     0.159163     0.150370
Rotational constants in MHz : 37097.320676  4771.590166  4507.971162

                             ****ORCA TERMINATED NORMALLY****
TOTAL RUN TIME: 0 days 0 hours 0 minutes 10 seconds 749 msec
