                         Program Version 5.0.3 -  RELEASE  -
|  1> ! HF-3c
|  2> !TightSCF
|  3> %scf
|  4>  ConvForced true
|  5>  convergence tight
|  6>  MaxIter 500
|  7> end
|  8>
|  9> %tddft
| 10>  nroots 1
| 11> end
| 12>
| 13> # 	20333
| 14> * xyz 0 1
| 15> 		C   -0.646866  -0.425883   0.036939
| 16> 		O   -0.558301  -1.680801  -0.002214
| 17> 		C    0.656573   0.479383  -0.079990
| 18> 		C    1.873167  -0.112177   0.016206
| 19> 		H   -1.601962   0.038553   0.042327
| 20> 		H    0.386554   1.474610   0.199502
| 21> 		H    1.749596  -1.248311  -0.113014
| 22> 		H    2.824753   0.336701   0.248842
| 23> *
| 24>
| 25>                          ****END OF INPUT****

CARTESIAN COORDINATES (ANGSTROEM)
---------------------------------
  C     -0.646866   -0.425883    0.036939
  O     -0.558301   -1.680801   -0.002214
  C      0.656573    0.479383   -0.079990
  C      1.873167   -0.112177    0.016206
  H     -1.601962    0.038553    0.042327
  H      0.386554    1.474610    0.199502
  H      1.749596   -1.248311   -0.113014
  H      2.824753    0.336701    0.248842

 Total Charge           Charge          ....    0
 Multiplicity           Mult            ....    1
 Number of Electrons    NEL             ....   30
 Basis Dimension        Dim             ....   24

ORBITAL ENERGIES
----------------

  NO   OCC          E(Eh)            E(eV)
   0   2.0000     -20.353034      -553.8342
   1   2.0000     -11.283015      -307.0264
   2   2.0000     -11.186198      -304.3919
   3   2.0000     -11.180285      -304.2310
   4   2.0000      -1.367213       -37.2038
   5   2.0000      -1.054854       -28.7040
   6   2.0000      -0.877700       -23.8834
   7   2.0000      -0.753853       -20.5134
   8   2.0000      -0.683617       -18.6022
   9   2.0000      -0.604899       -16.4601
  10   2.0000      -0.588456       -16.0127
  11   2.0000      -0.515767       -14.0347
  12   2.0000      -0.509042       -13.8517
  13   2.0000      -0.412037       -11.2121
  14   2.0000      -0.383843       -10.4449
  15   0.0000       0.130752         3.5580
  16   0.0000       0.271288         7.3821
  17   0.0000       0.480800        13.0832
  18   0.0000       0.606276        16.4976
  19   0.0000       0.662695        18.0328

MULLIKEN ATOMIC CHARGES
-----------------------
   0 C :    0.148491
   1 O :   -0.350600
   2 C :   -0.169722
   3 C :   -0.223298
   4 H :    0.142889
   5 H :    0.133303
   6 H :    0.168135
   7 H :    0.150801
Sum of atomic charges:   -0.0000000

LOEWDIN ATOMIC CHARGES
----------------------
   0 C :    0.143721
   1 O :   -0.268207
   2 C :   -0.127678
   3 C :   -0.123927
   4 H :    0.077457
   5 H :    0.081769
   6 H :    0.117956
   7 H :    0.098910

  Mayer bond orders larger than 0.100000
B(  0-C ,  1-O ) :   1.9194 B(  0-C ,  2-C ) :   0.9900 B(  0-C ,  4-H ) :   0.9359
B(  2-C ,  3-C ) :   1.9616 B(  2-C ,  5-H ) :   0.9628 B(  3-C ,  6-H ) :   0.9482
B(  3-C ,  7-H ) :   0.9636

-----------------------------------------------------------------------------
         ABSORPTION SPECTRUM VIA TRANSITION ELECTRIC DIPOLE MOMENTS
-----------------------------------------------------------------------------
State   Energy    Wavelength  fosc         T2        TX        TY        TZ
        (cm-1)      (nm)                 (au**2)    (au)      (au)      (au)
-----------------------------------------------------------------------------
   1   30907.8    323.5   0.000442612   0.00471   0.06793   0.00958   0.00285

Dispersion correction           -0.025396464
FINAL SINGLE POINT ENERGY      -189.331764529596

DIPOLE MOMENT
-------------
                                X             Y             Z
Electronic contribution:     -1.78515      -1.49759      -0.23107
Nuclear contribution   :      1.99600       2.35320       0.35274
                        -----------------------------------------
Total Dipole Moment    :      0.21086       0.85561       0.12167
                        -----------------------------------------
Magnitude (a.u.)       :      0.88957
Magnitude (Debye)      :      2.26110

Rotational constants in cm-1:     0.701655     0.201696     0.157287
Rotational constants in MHz : 21035.079475  6046.707990  4715.337926

                             ****ORCA TERMINATED NORMALLY****
TOTAL RUN TIME: 0 days 0 hours 0 minutes 11 seconds 282 msec
