                         Program Version 5.0.3 -  RELEASE  -
|  1> ! HF-3c
|  2> !TightSCF
|  3> %scf
|  4>  ConvForced true
|  5>  convergence tight
|  6>  MaxIter 500
|  7> end
|  8>
|  9> %tddft
| 10>  nroots 1
| 11> end
| 12>
| 13> # 	7918
| 14> * xyz 0 1
| 15> 		C   -1.188156  -0.349738  -0.044458
| 16> 		O   -2.151130  -0.321980  -0.635245
| 17> 		C    0.026209   0.461416  -0.293573
| 18> 		C    1.251841   0.070461   0.229476
| 19> 		H   -1.176593  -1.064769   0.738908
| 20> 		H    0.021916   1.310038  -1.076907
| 21> 		H    1.198327  -0.868081   0.970101
| 22> 		H    2.032542   0.726796   0.098674
| 23> *
| 24>
| 25>                          ****END OF INPUT****

CARTESIAN COORDINATES (ANGSTROEM)
---------------------------------
  C     -1.188156   -0.349738   -0.044458
  O     -2.151130   -0.321980   -0.635245
  C      0.026209    0.461416   -0.293573
  C      1.251841    0.070461    0.229476
  H     -1.176593   -1.064769    0.738908
  H      0.021916    1.310038   -1.076907
  H      1.198327   -0.868081    0.970101
  H      2.032542    0.726796    0.098674

 Total Charge           Charge          ....    0
 Multiplicity           Mult            ....    1
 Number of Electrons    NEL             ....   30
 Basis Dimension        Dim             ....   24

ORBITAL ENERGIES
----------------

  NO   OCC          E(Eh)            E(eV)
   0   2.0000     -20.387187      -554.7636
   1   2.0000     -11.317763      -307.9720
   2   2.0000     -11.184956      -304.3581
   3   2.0000     -11.179830      -304.2186
   4   2.0000      -1.467526       -39.9334
   5   2.0000      -1.064208       -28.9586
   6   2.0000      -0.873337       -23.7647
   7   2.0000      -0.785015       -21.3614
   8   2.0000      -0.666716       -18.1423
   9   2.0000      -0.654861       -17.8197
  10   2.0000      -0.589772       -16.0485
  11   2.0000      -0.574154       -15.6235
  12   2.0000      -0.526867       -14.3368
  13   2.0000      -0.409376       -11.1397
  14   2.0000      -0.383647       -10.4396
  15   0.0000       0.137119         3.7312
  16   0.0000       0.313436         8.5290
  17   0.0000       0.520339        14.1591
  18   0.0000       0.559081        15.2134
  19   0.0000       0.640031        17.4161

MULLIKEN ATOMIC CHARGES
-----------------------
   0 C :    0.172256
   1 O :   -0.362362
   2 C :   -0.155975
   3 C :   -0.228018
   4 H :    0.129731
   5 H :    0.151235
   6 H :    0.148551
   7 H :    0.144582
Sum of atomic charges:    0.0000000

LOEWDIN ATOMIC CHARGES
----------------------
   0 C :    0.137128
   1 O :   -0.239691
   2 C :   -0.123661
   3 C :   -0.133965
   4 H :    0.060604
   5 H :    0.103152
   6 H :    0.106668
   7 H :    0.089765

  Mayer bond orders larger than 0.100000
B(  0-C ,  1-O ) :   1.9109 B(  0-C ,  2-C ) :   1.0119 B(  0-C ,  4-H ) :   0.9208
B(  2-C ,  3-C ) :   1.9438 B(  2-C ,  5-H ) :   0.9554 B(  3-C ,  6-H ) :   0.9603
B(  3-C ,  7-H ) :   0.9679

-----------------------------------------------------------------------------
         ABSORPTION SPECTRUM VIA TRANSITION ELECTRIC DIPOLE MOMENTS
-----------------------------------------------------------------------------
State   Energy    Wavelength  fosc         T2        TX        TY        TZ
        (cm-1)      (nm)                 (au**2)    (au)      (au)      (au)
-----------------------------------------------------------------------------
   1   36556.3    273.6   0.000180598   0.00163  -0.03866   0.00800  -0.00824

Dispersion correction           -0.025382465
FINAL SINGLE POINT ENERGY      -189.284703334014

DIPOLE MOMENT
-------------
                                X             Y             Z
Electronic contribution:     -3.04356      -0.26391      -0.93546
Nuclear contribution   :      4.01557       0.28491       1.39729
                        -----------------------------------------
Total Dipole Moment    :      0.97201       0.02100       0.46183
                        -----------------------------------------
Magnitude (a.u.)       :      1.07635
Magnitude (Debye)      :      2.73586

Rotational constants in cm-1:     1.493624     0.157391     0.143458
Rotational constants in MHz : 44777.721127  4718.451435  4300.752383

                             ****ORCA TERMINATED NORMALLY****
TOTAL RUN TIME: 0 days 0 hours 0 minutes 10 seconds 211 msec
