                         Program Version 5.0.3 -  RELEASE  -
|  1> ! HF-3c
|  2> !TightSCF
|  3> %scf
|  4>  ConvForced true
|  5>  convergence tight
|  6>  MaxIter 500
|  7> end
|  8>
|  9> %tddft
| 10>  nroots 1
| 11> end
| 12>
| 13> # 	23476
| 14> * xyz 0 1
| 15> 		C   -0.647271  -0.427971   0.002465
| 16> 		O   -0.565445  -1.641322  -0.001404
| 17> 		C    0.633113   0.392188  -0.009167
| 18> 		C    1.874235  -0.100166   0.012746
| 19> 		H   -1.521039   0.104320   0.098116
| 20> 		H    0.580382   1.524088  -0.114309
| 21> 		H    1.936937  -1.112063  -0.145863
| 22> 		H    2.759202   0.402884   0.114177
| 23> *
| 24>
| 25>                          ****END OF INPUT****

CARTESIAN COORDINATES (ANGSTROEM)
---------------------------------
  C     -0.647271   -0.427971    0.002465
  O     -0.565445   -1.641322   -0.001404
  C      0.633113    0.392188   -0.009167
  C      1.874235   -0.100166    0.012746
  H     -1.521039    0.104320    0.098116
  H      0.580382    1.524088   -0.114309
  H      1.936937   -1.112063   -0.145863
  H      2.759202    0.402884    0.114177

 Total Charge           Charge          ....    0
 Multiplicity           Mult            ....    1
 Number of Electrons    NEL             ....   30
 Basis Dimension        Dim             ....   24

ORBITAL ENERGIES
----------------

  NO   OCC          E(Eh)            E(eV)
   0   2.0000     -20.379468      -554.5535
   1   2.0000     -11.307862      -307.7026
   2   2.0000     -11.186252      -304.3934
   3   2.0000     -11.184574      -304.3477
   4   2.0000      -1.408323       -38.3224
   5   2.0000      -1.072434       -29.1824
   6   2.0000      -0.904940       -24.6247
   7   2.0000      -0.771968       -21.0063
   8   2.0000      -0.703774       -19.1507
   9   2.0000      -0.619872       -16.8676
  10   2.0000      -0.615921       -16.7601
  11   2.0000      -0.547067       -14.8864
  12   2.0000      -0.522890       -14.2286
  13   2.0000      -0.427389       -11.6298
  14   2.0000      -0.390385       -10.6229
  15   0.0000       0.126719         3.4482
  16   0.0000       0.293549         7.9879
  17   0.0000       0.548540        14.9265
  18   0.0000       0.592645        16.1267
  19   0.0000       0.736172        20.0323

MULLIKEN ATOMIC CHARGES
-----------------------
   0 C :    0.152886
   1 O :   -0.336923
   2 C :   -0.148571
   3 C :   -0.252824
   4 H :    0.147067
   5 H :    0.137474
   6 H :    0.153379
   7 H :    0.147513
Sum of atomic charges:   -0.0000000

LOEWDIN ATOMIC CHARGES
----------------------
   0 C :    0.144816
   1 O :   -0.243239
   2 C :   -0.111148
   3 C :   -0.144189
   4 H :    0.075672
   5 H :    0.090249
   6 H :    0.095632
   7 H :    0.092206

  Mayer bond orders larger than 0.100000
B(  0-C ,  1-O ) :   1.9192 B(  0-C ,  2-C ) :   1.0107 B(  0-C ,  4-H ) :   0.9323
B(  2-C ,  3-C ) :   1.9585 B(  2-C ,  5-H ) :   0.9600 B(  3-C ,  6-H ) :   0.9613
B(  3-C ,  7-H ) :   0.9670

-----------------------------------------------------------------------------
         ABSORPTION SPECTRUM VIA TRANSITION ELECTRIC DIPOLE MOMENTS
-----------------------------------------------------------------------------
State   Energy    Wavelength  fosc         T2        TX        TY        TZ
        (cm-1)      (nm)                 (au**2)    (au)      (au)      (au)
-----------------------------------------------------------------------------
   1   31944.0    313.0   0.000081485   0.00084   0.02846   0.00493   0.00230

Dispersion correction           -0.025630758
FINAL SINGLE POINT ENERGY      -189.330190263183

DIPOLE MOMENT
-------------
                                X             Y             Z
Electronic contribution:     -2.22658      -1.73441       0.02743
Nuclear contribution   :      2.36714       2.65022      -0.04507
                        -----------------------------------------
Total Dipole Moment    :      0.14056       0.91581      -0.01763
                        -----------------------------------------
Magnitude (a.u.)       :      0.92670
Magnitude (Debye)      :      2.35549

Rotational constants in cm-1:     0.770111     0.204660     0.161878
Rotational constants in MHz : 23087.350613  6135.540923  4852.976988

                             ****ORCA TERMINATED NORMALLY****
TOTAL RUN TIME: 0 days 0 hours 0 minutes 13 seconds 453 msec
