                         Program Version 5.0.3 -  RELEASE  -
|  1> ! B3LYP cc-pVDZ
|  2> !TightSCF
|  3> %scf
|  4>  ConvForced true
|  5>  convergence tight
|  6>  MaxIter 500
|  7> end
|  8>
|  9> %tddft
| 10>  nroots 1
| 11> end
| 12>
| 13> # 	22570
| 14> * xyz 0 1
| 15> 		C   -0.649193  -0.403771  -0.035583
| 16> 		O   -0.533771  -1.595389   0.016300
| 17> 		C    0.656487   0.370801  -0.005500
| 18> 		C    1.827675  -0.155663   0.012496
| 19> 		H   -1.759416   0.065356   0.109049
| 20> 		H    0.452411   1.441723   0.082352
| 21> 		H    2.127548  -1.089241  -0.127542
| 22> 		H    2.708474   0.440712   0.023468
| 23> *
| 24>
| 25>                          ****END OF INPUT****

CARTESIAN COORDINATES (ANGSTROEM)
---------------------------------
  C     -0.649193   -0.403771   -0.035583
  O     -0.533771   -1.595389    0.016300
  C      0.656487    0.370801   -0.005500
  C      1.827675   -0.155663    0.012496
  H     -1.759416    0.065356    0.109049
  H      0.452411    1.441723    0.082352
  H      2.127548   -1.089241   -0.127542
  H      2.708474    0.440712    0.023468

 Total Charge           Charge          ....    0
 Multiplicity           Mult            ....    1
 Number of Electrons    NEL             ....   30
 Basis Dimension        Dim             ....   76

ORBITAL ENERGIES
----------------

  NO   OCC          E(Eh)            E(eV)
   0   2.0000     -19.137493      -520.7577
   1   2.0000     -10.282027      -279.7882
   2   2.0000     -10.202397      -277.6213
   3   2.0000     -10.191526      -277.3255
   4   2.0000      -1.055448       -28.7202
   5   2.0000      -0.798334       -21.7238
   6   2.0000      -0.652244       -17.7485
   7   2.0000      -0.548455       -14.9242
   8   2.0000      -0.501887       -13.6570
   9   2.0000      -0.462710       -12.5910
  10   2.0000      -0.427180       -11.6242
  11   2.0000      -0.403106       -10.9691
  12   2.0000      -0.372257       -10.1296
  13   2.0000      -0.292982        -7.9724
  14   2.0000      -0.251235        -6.8365
  15   0.0000      -0.061778        -1.6811
  16   0.0000       0.055079         1.4988
  17   0.0000       0.067783         1.8445
  18   0.0000       0.096365         2.6222
  19   0.0000       0.112725         3.0674

MULLIKEN ATOMIC CHARGES
-----------------------
   0 C :    0.123216
   1 O :   -0.169537
   2 C :   -0.103843
   3 C :    0.166859
   4 H :    0.001441
   5 H :   -0.016440
   6 H :   -0.016698
   7 H :    0.015001
Sum of atomic charges:   -0.0000000

LOEWDIN ATOMIC CHARGES
----------------------
   0 C :   -0.041632
   1 O :    0.008633
   2 C :   -0.071495
   3 C :    0.030445
   4 H :    0.007679
   5 H :    0.024793
   6 H :    0.006981
   7 H :    0.034597

  Mayer bond orders larger than 0.100000
B(  0-C ,  1-O ) :   2.2074 B(  0-C ,  2-C ) :   1.0070 B(  0-C ,  4-H ) :   0.8973
B(  2-C ,  3-C ) :   2.0199 B(  2-C ,  5-H ) :   0.9362 B(  3-C ,  6-H ) :   0.9363
B(  3-C ,  7-H ) :   0.9343

-----------------------------------------------------------------------------
         ABSORPTION SPECTRUM VIA TRANSITION ELECTRIC DIPOLE MOMENTS
-----------------------------------------------------------------------------
State   Energy    Wavelength  fosc         T2        TX        TY        TZ
        (cm-1)      (nm)                 (au**2)    (au)      (au)      (au)
-----------------------------------------------------------------------------
   1   28280.5    353.6   0.000117634   0.00137  -0.01450   0.00646   0.03343

FINAL SINGLE POINT ENERGY      -191.649823082842

DIPOLE MOMENT
-------------
                                X             Y             Z
Electronic contribution:     -1.85996      -1.81633      -0.10838
Nuclear contribution   :      2.15670       2.59123       0.08180
                        -----------------------------------------
Total Dipole Moment    :      0.29674       0.77490      -0.02658
                        -----------------------------------------
Magnitude (a.u.)       :      0.83020
Magnitude (Debye)      :      2.11019

Rotational constants in cm-1:     0.766252     0.215268     0.168248
Rotational constants in MHz : 22971.660572  6453.564601  5043.942700

                             ****ORCA TERMINATED NORMALLY****
TOTAL RUN TIME: 0 days 0 hours 3 minutes 22 seconds 290 msec
