                         Program Version 5.0.3 -  RELEASE  -
|  1> ! HF-3c
|  2> !TightSCF
|  3> %scf
|  4>  ConvForced true
|  5>  convergence tight
|  6>  MaxIter 500
|  7> end
|  8>
|  9> %tddft
| 10>  nroots 1
| 11> end
| 12>
| 13> # 	10348
| 14> * xyz 0 1
| 15> 		C   -1.207047  -0.308945  -0.006353
| 16> 		O   -1.681332  -1.016216   0.892254
| 17> 		C    0.043740   0.475265   0.122221
| 18> 		C    1.199779   0.013975  -0.167126
| 19> 		H   -1.708319  -0.372415  -0.957006
| 20> 		H    0.006418   1.454823   0.856889
| 21> 		H    1.298238  -0.775513  -0.604003
| 22> 		H    2.058445   0.565329  -0.088381
| 23> *
| 24>
| 25>                          ****END OF INPUT****

CARTESIAN COORDINATES (ANGSTROEM)
---------------------------------
  C     -1.207047   -0.308945   -0.006353
  O     -1.681332   -1.016216    0.892254
  C      0.043740    0.475265    0.122221
  C      1.199779    0.013975   -0.167126
  H     -1.708319   -0.372415   -0.957006
  H      0.006418    1.454823    0.856889
  H      1.298238   -0.775513   -0.604003
  H      2.058445    0.565329   -0.088381

 Total Charge           Charge          ....    0
 Multiplicity           Mult            ....    1
 Number of Electrons    NEL             ....   30
 Basis Dimension        Dim             ....   24

ORBITAL ENERGIES
----------------

  NO   OCC          E(Eh)            E(eV)
   0   2.0000     -20.373476      -554.3905
   1   2.0000     -11.299897      -307.4858
   2   2.0000     -11.210159      -305.0439
   3   2.0000     -11.194518      -304.6183
   4   2.0000      -1.392146       -37.8822
   5   2.0000      -1.111898       -30.2563
   6   2.0000      -0.906406       -24.6646
   7   2.0000      -0.785327       -21.3698
   8   2.0000      -0.701979       -19.1018
   9   2.0000      -0.657235       -17.8843
  10   2.0000      -0.605831       -16.4855
  11   2.0000      -0.554275       -15.0826
  12   2.0000      -0.492279       -13.3956
  13   2.0000      -0.429502       -11.6873
  14   2.0000      -0.419838       -11.4244
  15   0.0000       0.167047         4.5456
  16   0.0000       0.220586         6.0025
  17   0.0000       0.525374        14.2961
  18   0.0000       0.572024        15.5656
  19   0.0000       0.746646        20.3173

MULLIKEN ATOMIC CHARGES
-----------------------
   0 C :    0.151721
   1 O :   -0.330783
   2 C :   -0.126963
   3 C :   -0.301714
   4 H :    0.146733
   5 H :    0.165995
   6 H :    0.140871
   7 H :    0.154139
Sum of atomic charges:   -0.0000000

LOEWDIN ATOMIC CHARGES
----------------------
   0 C :    0.143733
   1 O :   -0.244565
   2 C :   -0.085504
   3 C :   -0.191049
   4 H :    0.080051
   5 H :    0.121448
   6 H :    0.078025
   7 H :    0.097861

  Mayer bond orders larger than 0.100000
B(  0-C ,  1-O ) :   1.9415 B(  0-C ,  2-C ) :   0.9963 B(  0-C ,  4-H ) :   0.9281
B(  2-C ,  3-C ) :   2.0012 B(  2-C ,  5-H ) :   0.9343 B(  3-C ,  6-H ) :   0.9659
B(  3-C ,  7-H ) :   0.9590

-----------------------------------------------------------------------------
         ABSORPTION SPECTRUM VIA TRANSITION ELECTRIC DIPOLE MOMENTS
-----------------------------------------------------------------------------
State   Energy    Wavelength  fosc         T2        TX        TY        TZ
        (cm-1)      (nm)                 (au**2)    (au)      (au)      (au)
-----------------------------------------------------------------------------
   1   32330.8    309.3   0.000032902   0.00034  -0.01535  -0.00937   0.00339

Dispersion correction           -0.025447867
FINAL SINGLE POINT ENERGY      -189.278714037997

DIPOLE MOMENT
-------------
                                X             Y             Z
Electronic contribution:     -2.77405      -1.03931       1.03539
Nuclear contribution   :      3.19374       1.69123      -1.59455
                        -----------------------------------------
Total Dipole Moment    :      0.41968       0.65192      -0.55915
                        -----------------------------------------
Magnitude (a.u.)       :      0.95592
Magnitude (Debye)      :      2.42975

Rotational constants in cm-1:     1.038521     0.166901     0.161531
Rotational constants in MHz : 31134.071181  5003.577768  4842.583401

                             ****ORCA TERMINATED NORMALLY****
TOTAL RUN TIME: 0 days 0 hours 0 minutes 12 seconds 223 msec
