                         Program Version 5.0.3 -  RELEASE  -
|  1> ! B3LYP cc-pVDZ
|  2> !TightSCF
|  3> %scf
|  4>  ConvForced true
|  5>  convergence tight
|  6>  MaxIter 500
|  7> end
|  8>
|  9> %tddft
| 10>  nroots 1
| 11> end
| 12>
| 13> # 	30808
| 14> * xyz 0 1
| 15> 		C   -0.574433  -0.477262   0.069087
| 16> 		O   -0.604089  -1.644226  -0.026704
| 17> 		C    0.676220   0.453014  -0.068819
| 18> 		C    1.830019  -0.115466   0.042767
| 19> 		H   -1.495697   0.111019   0.122833
| 20> 		H    0.446825   1.612723  -0.186896
| 21> 		H    1.974302  -1.156182  -0.229902
| 22> 		H    2.632956   0.448794   0.208966
| 23> *
| 24>
| 25>                          ****END OF INPUT****

CARTESIAN COORDINATES (ANGSTROEM)
---------------------------------
  C     -0.574433   -0.477262    0.069087
  O     -0.604089   -1.644226   -0.026704
  C      0.676220    0.453014   -0.068819
  C      1.830019   -0.115466    0.042767
  H     -1.495697    0.111019    0.122833
  H      0.446825    1.612723   -0.186896
  H      1.974302   -1.156182   -0.229902
  H      2.632956    0.448794    0.208966

 Total Charge           Charge          ....    0
 Multiplicity           Mult            ....    1
 Number of Electrons    NEL             ....   30
 Basis Dimension        Dim             ....   76

ORBITAL ENERGIES
----------------

  NO   OCC          E(Eh)            E(eV)
   0   2.0000     -19.143446      -520.9196
   1   2.0000     -10.274543      -279.5845
   2   2.0000     -10.206916      -277.7443
   3   2.0000     -10.192098      -277.3411
   4   2.0000      -1.070857       -29.1395
   5   2.0000      -0.797735       -21.7075
   6   2.0000      -0.646544       -17.5934
   7   2.0000      -0.541924       -14.7465
   8   2.0000      -0.504386       -13.7250
   9   2.0000      -0.452428       -12.3112
  10   2.0000      -0.432004       -11.7554
  11   2.0000      -0.410908       -11.1814
  12   2.0000      -0.387133       -10.5344
  13   2.0000      -0.287177        -7.8145
  14   2.0000      -0.251631        -6.8472
  15   0.0000      -0.057109        -1.5540
  16   0.0000       0.047100         1.2817
  17   0.0000       0.070784         1.9261
  18   0.0000       0.099663         2.7120
  19   0.0000       0.120725         3.2851

MULLIKEN ATOMIC CHARGES
-----------------------
   0 C :    0.189495
   1 O :   -0.153027
   2 C :   -0.216463
   3 C :    0.164405
   4 H :   -0.032233
   5 H :    0.022465
   6 H :    0.035677
   7 H :   -0.010319
Sum of atomic charges:   -0.0000000

LOEWDIN ATOMIC CHARGES
----------------------
   0 C :   -0.043478
   1 O :    0.037866
   2 C :   -0.083845
   3 C :    0.018592
   4 H :   -0.016634
   5 H :    0.042984
   6 H :    0.039073
   7 H :    0.005443

  Mayer bond orders larger than 0.100000
B(  0-C ,  1-O ) :   2.2520 B(  0-C ,  2-C ) :   0.9955 B(  0-C ,  4-H ) :   0.9108
B(  2-C ,  3-C ) :   1.9931 B(  2-C ,  5-H ) :   0.9391 B(  3-C ,  6-H ) :   0.9313
B(  3-C ,  7-H ) :   0.9352

-----------------------------------------------------------------------------
         ABSORPTION SPECTRUM VIA TRANSITION ELECTRIC DIPOLE MOMENTS
-----------------------------------------------------------------------------
State   Energy    Wavelength  fosc         T2        TX        TY        TZ
        (cm-1)      (nm)                 (au**2)    (au)      (au)      (au)
-----------------------------------------------------------------------------
   1   30246.3    330.6   0.000219452   0.00239  -0.04800   0.00524  -0.00756

FINAL SINGLE POINT ENERGY      -191.639833167741

DIPOLE MOMENT
-------------
                                X             Y             Z
Electronic contribution:     -1.83896      -1.93648       0.09113
Nuclear contribution   :      2.17866       2.74088      -0.08041
                        -----------------------------------------
Total Dipole Moment    :      0.33971       0.80440       0.01072
                        -----------------------------------------
Magnitude (a.u.)       :      0.87326
Magnitude (Debye)      :      2.21964

Rotational constants in cm-1:     0.780263     0.204383     0.162883
Rotational constants in MHz : 23391.703319  6127.249580  4883.115945

                             ****ORCA TERMINATED NORMALLY****
TOTAL RUN TIME: 0 days 0 hours 3 minutes 8 seconds 120 msec
