                         Program Version 5.0.3 -  RELEASE  -
|  1> ! HF-3c
|  2> !TightSCF
|  3> %scf
|  4>  ConvForced true
|  5>  convergence tight
|  6>  MaxIter 500
|  7> end
|  8>
|  9> %tddft
| 10>  nroots 1
| 11> end
| 12>
| 13> # 	5985
| 14> * xyz 0 1
| 15> 		C   -1.190719  -0.350439  -0.019266
| 16> 		O   -1.366098  -1.464924   0.443149
| 17> 		C   -0.000104   0.456255   0.195316
| 18> 		C    1.214050  -0.015609  -0.120745
| 19> 		H   -1.972281   0.115259  -0.650107
| 20> 		H   -0.091382   1.647122   0.597395
| 21> 		H    1.350623  -1.030514  -0.393000
| 22> 		H    2.078757   0.642150  -0.023868
| 23> *
| 24>
| 25>                          ****END OF INPUT****

CARTESIAN COORDINATES (ANGSTROEM)
---------------------------------
  C     -1.190719   -0.350439   -0.019266
  O     -1.366098   -1.464924    0.443149
  C     -0.000104    0.456255    0.195316
  C      1.214050   -0.015609   -0.120745
  H     -1.972281    0.115259   -0.650107
  H     -0.091382    1.647122    0.597395
  H      1.350623   -1.030514   -0.393000
  H      2.078757    0.642150   -0.023868

 Total Charge           Charge          ....    0
 Multiplicity           Mult            ....    1
 Number of Electrons    NEL             ....   30
 Basis Dimension        Dim             ....   24

ORBITAL ENERGIES
----------------

  NO   OCC          E(Eh)            E(eV)
   0   2.0000     -20.367651      -554.2319
   1   2.0000     -11.296941      -307.4054
   2   2.0000     -11.188083      -304.4432
   3   2.0000     -11.179394      -304.2068
   4   2.0000      -1.397506       -38.0281
   5   2.0000      -1.073811       -29.2199
   6   2.0000      -0.890860       -24.2415
   7   2.0000      -0.742078       -20.1930
   8   2.0000      -0.686231       -18.6733
   9   2.0000      -0.609940       -16.5973
  10   2.0000      -0.605847       -16.4859
  11   2.0000      -0.538396       -14.6505
  12   2.0000      -0.495318       -13.4783
  13   2.0000      -0.414049       -11.2669
  14   2.0000      -0.392944       -10.6925
  15   0.0000       0.154429         4.2022
  16   0.0000       0.254919         6.9367
  17   0.0000       0.491041        13.3619
  18   0.0000       0.596245        16.2246
  19   0.0000       0.674503        18.3542

MULLIKEN ATOMIC CHARGES
-----------------------
   0 C :    0.156126
   1 O :   -0.343487
   2 C :   -0.148712
   3 C :   -0.244330
   4 H :    0.138216
   5 H :    0.152429
   6 H :    0.147395
   7 H :    0.142363
Sum of atomic charges:    0.0000000

LOEWDIN ATOMIC CHARGES
----------------------
   0 C :    0.143195
   1 O :   -0.252301
   2 C :   -0.117079
   3 C :   -0.148878
   4 H :    0.075068
   5 H :    0.112978
   6 H :    0.093907
   7 H :    0.093111

  Mayer bond orders larger than 0.100000
B(  0-C ,  1-O ) :   1.9211 B(  0-C ,  2-C ) :   1.0224 B(  0-C ,  4-H ) :   0.9204
B(  2-C ,  3-C ) :   1.9679 B(  2-C ,  5-H ) :   0.9428 B(  3-C ,  6-H ) :   0.9635
B(  3-C ,  7-H ) :   0.9647

-----------------------------------------------------------------------------
         ABSORPTION SPECTRUM VIA TRANSITION ELECTRIC DIPOLE MOMENTS
-----------------------------------------------------------------------------
State   Energy    Wavelength  fosc         T2        TX        TY        TZ
        (cm-1)      (nm)                 (au**2)    (au)      (au)      (au)
-----------------------------------------------------------------------------
   1   33262.8    300.6   0.000047659   0.00047   0.01132   0.01681   0.00782

Dispersion correction           -0.025251020
FINAL SINGLE POINT ENERGY      -189.316752880728

DIPOLE MOMENT
-------------
                                X             Y             Z
Electronic contribution:     -2.28810      -1.70409       0.57942
Nuclear contribution   :      2.61856       2.67651      -0.92327
                        -----------------------------------------
Total Dipole Moment    :      0.33046       0.97242      -0.34385
                        -----------------------------------------
Magnitude (a.u.)       :      1.08307
Magnitude (Debye)      :      2.75293

Rotational constants in cm-1:     0.817417     0.191648     0.163275
Rotational constants in MHz : 24505.553539  5745.464629  4894.874312

                             ****ORCA TERMINATED NORMALLY****
TOTAL RUN TIME: 0 days 0 hours 0 minutes 13 seconds 527 msec
