                         Program Version 5.0.3 -  RELEASE  -
|  1> ! B3LYP cc-pVDZ
|  2> !TightSCF
|  3> %scf
|  4>  ConvForced true
|  5>  convergence tight
|  6>  MaxIter 500
|  7> end
|  8>
|  9> %tddft
| 10>  nroots 1
| 11> end
| 12>
| 13> # 	8306
| 14> * xyz 0 1
| 15> 		C   -1.213316  -0.296912  -0.084928
| 16> 		O   -1.358383  -1.418994  -0.686658
| 17> 		C    0.055377   0.472092  -0.183241
| 18> 		C    1.183113  -0.010817   0.136684
| 19> 		H   -2.032969   0.046186   0.780704
| 20> 		H    0.009554   1.453060  -0.505725
| 21> 		H    1.205525  -0.892103   0.469368
| 22> 		H    2.135186   0.693847   0.057783
| 23> *
| 24>
| 25>                          ****END OF INPUT****

CARTESIAN COORDINATES (ANGSTROEM)
---------------------------------
  C     -1.213316   -0.296912   -0.084928
  O     -1.358383   -1.418994   -0.686658
  C      0.055377    0.472092   -0.183241
  C      1.183113   -0.010817    0.136684
  H     -2.032969    0.046186    0.780704
  H      0.009554    1.453060   -0.505725
  H      1.205525   -0.892103    0.469368
  H      2.135186    0.693847    0.057783

 Total Charge           Charge          ....    0
 Multiplicity           Mult            ....    1
 Number of Electrons    NEL             ....   30
 Basis Dimension        Dim             ....   76

ORBITAL ENERGIES
----------------

  NO   OCC          E(Eh)            E(eV)
   0   2.0000     -19.148993      -521.0706
   1   2.0000     -10.296779      -280.1896
   2   2.0000     -10.197452      -277.4868
   3   2.0000     -10.194478      -277.4059
   4   2.0000      -1.015938       -27.6451
   5   2.0000      -0.818127       -22.2624
   6   2.0000      -0.654192       -17.8015
   7   2.0000      -0.565368       -15.3844
   8   2.0000      -0.494112       -13.4455
   9   2.0000      -0.450605       -12.2616
  10   2.0000      -0.435096       -11.8396
  11   2.0000      -0.388346       -10.5674
  12   2.0000      -0.362135        -9.8542
  13   2.0000      -0.301147        -8.1946
  14   2.0000      -0.257472        -7.0062
  15   0.0000      -0.057700        -1.5701
  16   0.0000       0.008184         0.2227
  17   0.0000       0.065768         1.7896
  18   0.0000       0.075755         2.0614
  19   0.0000       0.120944         3.2910

MULLIKEN ATOMIC CHARGES
-----------------------
   0 C :    0.122002
   1 O :   -0.227493
   2 C :   -0.026658
   3 C :    0.141229
   4 H :    0.026356
   5 H :   -0.021028
   6 H :   -0.057099
   7 H :    0.042691
Sum of atomic charges:    0.0000000

LOEWDIN ATOMIC CHARGES
----------------------
   0 C :    0.017525
   1 O :   -0.056845
   2 C :   -0.057544
   3 C :    0.017600
   4 H :    0.016495
   5 H :    0.022364
   6 H :   -0.017484
   7 H :    0.057890

  Mayer bond orders larger than 0.100000
B(  0-C ,  1-O ) :   2.1413 B(  0-C ,  2-C ) :   0.9878 B(  0-C ,  4-H ) :   0.8938
B(  2-C ,  3-C ) :   2.0555 B(  2-C ,  5-H ) :   0.9301 B(  3-C ,  6-H ) :   0.9201
B(  3-C ,  7-H ) :   0.9352

-----------------------------------------------------------------------------
         ABSORPTION SPECTRUM VIA TRANSITION ELECTRIC DIPOLE MOMENTS
-----------------------------------------------------------------------------
State   Energy    Wavelength  fosc         T2        TX        TY        TZ
        (cm-1)      (nm)                 (au**2)    (au)      (au)      (au)
-----------------------------------------------------------------------------
   1   28797.1    347.3   0.000717234   0.00820   0.07559   0.01450  -0.04771

FINAL SINGLE POINT ENERGY      -191.620191189197

DIPOLE MOMENT
-------------
                                X             Y             Z
Electronic contribution:     -2.15456      -1.63643      -1.09507
Nuclear contribution   :      2.56666       2.50439       1.53242
                        -----------------------------------------
Total Dipole Moment    :      0.41210       0.86796       0.43736
                        -----------------------------------------
Magnitude (a.u.)       :      1.05568
Magnitude (Debye)      :      2.68332

Rotational constants in cm-1:     0.839138     0.187539     0.163295
Rotational constants in MHz : 25156.735940  5622.286292  4895.455372

                             ****ORCA TERMINATED NORMALLY****
TOTAL RUN TIME: 0 days 0 hours 3 minutes 3 seconds 392 msec
