                         Program Version 5.0.3 -  RELEASE  -
|  1> ! HF-3c
|  2> !TightSCF
|  3> %scf
|  4>  ConvForced true
|  5>  convergence tight
|  6>  MaxIter 500
|  7> end
|  8>
|  9> %tddft
| 10>  nroots 1
| 11> end
| 12>
| 13> # 	13394
| 14> * xyz 0 1
| 15> 		C   -1.199587  -0.329649   0.084444
| 16> 		O   -1.990451  -0.578909   0.941001
| 17> 		C    0.019935   0.470187   0.360385
| 18> 		C    1.258573  -0.012592  -0.195134
| 19> 		H   -1.356223  -0.777751  -1.087718
| 20> 		H   -0.017922   1.337632   1.109571
| 21> 		H    1.235194  -0.794798  -0.952019
| 22> 		H    2.020785   0.671007  -0.215581
| 23> *
| 24>
| 25>                          ****END OF INPUT****

CARTESIAN COORDINATES (ANGSTROEM)
---------------------------------
  C     -1.199587   -0.329649    0.084444
  O     -1.990451   -0.578909    0.941001
  C      0.019935    0.470187    0.360385
  C      1.258573   -0.012592   -0.195134
  H     -1.356223   -0.777751   -1.087718
  H     -0.017922    1.337632    1.109571
  H      1.235194   -0.794798   -0.952019
  H      2.020785    0.671007   -0.215581

 Total Charge           Charge          ....    0
 Multiplicity           Mult            ....    1
 Number of Electrons    NEL             ....   30
 Basis Dimension        Dim             ....   24

ORBITAL ENERGIES
----------------

  NO   OCC          E(Eh)            E(eV)
   0   2.0000     -20.369610      -554.2853
   1   2.0000     -11.297016      -307.4074
   2   2.0000     -11.187589      -304.4298
   3   2.0000     -11.176824      -304.1368
   4   2.0000      -1.414790       -38.4984
   5   2.0000      -1.050945       -28.5977
   6   2.0000      -0.870248       -23.6806
   7   2.0000      -0.747078       -20.3290
   8   2.0000      -0.653425       -17.7806
   9   2.0000      -0.637056       -17.3352
  10   2.0000      -0.576948       -15.6996
  11   2.0000      -0.557984       -15.1835
  12   2.0000      -0.516735       -14.0611
  13   2.0000      -0.399526       -10.8717
  14   2.0000      -0.369087       -10.0434
  15   0.0000       0.125745         3.4217
  16   0.0000       0.266087         7.2406
  17   0.0000       0.471254        12.8235
  18   0.0000       0.580901        15.8071
  19   0.0000       0.642947        17.4955

MULLIKEN ATOMIC CHARGES
-----------------------
   0 C :    0.179730
   1 O :   -0.358947
   2 C :   -0.140824
   3 C :   -0.248693
   4 H :    0.132573
   5 H :    0.158390
   6 H :    0.138337
   7 H :    0.139433
Sum of atomic charges:   -0.0000000

LOEWDIN ATOMIC CHARGES
----------------------
   0 C :    0.142635
   1 O :   -0.256131
   2 C :   -0.100914
   3 C :   -0.152663
   4 H :    0.081855
   5 H :    0.108810
   6 H :    0.090393
   7 H :    0.086016

  Mayer bond orders larger than 0.100000
B(  0-C ,  1-O ) :   1.9211 B(  0-C ,  2-C ) :   1.0163 B(  0-C ,  4-H ) :   0.8992
B(  2-C ,  3-C ) :   1.9431 B(  2-C ,  5-H ) :   0.9530 B(  3-C ,  6-H ) :   0.9684
B(  3-C ,  7-H ) :   0.9699

-----------------------------------------------------------------------------
         ABSORPTION SPECTRUM VIA TRANSITION ELECTRIC DIPOLE MOMENTS
-----------------------------------------------------------------------------
State   Energy    Wavelength  fosc         T2        TX        TY        TZ
        (cm-1)      (nm)                 (au**2)    (au)      (au)      (au)
-----------------------------------------------------------------------------
   1   33625.8    297.4   0.000493331   0.00483  -0.06087   0.01895   0.02768

Dispersion correction           -0.024785480
FINAL SINGLE POINT ENERGY      -189.292125801977

DIPOLE MOMENT
-------------
                                X             Y             Z
Electronic contribution:     -2.95882      -0.60258       1.47465
Nuclear contribution   :      3.68488       0.89016      -2.19662
                        -----------------------------------------
Total Dipole Moment    :      0.72606       0.28758      -0.72197
                        -----------------------------------------
Magnitude (a.u.)       :      1.06353
Magnitude (Debye)      :      2.70329

Rotational constants in cm-1:     1.176277     0.156970     0.145836
Rotational constants in MHz : 35263.903954  4705.852230  4372.043226

                             ****ORCA TERMINATED NORMALLY****
TOTAL RUN TIME: 0 days 0 hours 0 minutes 13 seconds 210 msec
