                         Program Version 5.0.3 -  RELEASE  -
|  1> ! B3LYP cc-pVDZ
|  2> !TightSCF
|  3> %scf
|  4>  ConvForced true
|  5>  convergence tight
|  6>  MaxIter 500
|  7> end
|  8>
|  9> %tddft
| 10>  nroots 1
| 11> end
| 12>
| 13> # 	2391
| 14> * xyz 0 1
| 15> 		C   -1.195475  -0.378030  -0.059983
| 16> 		O   -1.728058  -1.033809   0.765173
| 17> 		C    0.016874   0.498076   0.269339
| 18> 		C    1.181709   0.020335  -0.135381
| 19> 		H   -1.501583  -0.365750  -1.053065
| 20> 		H   -0.238583   1.415578   0.786359
| 21> 		H    1.403374  -0.864884  -0.728428
| 22> 		H    2.008783   0.724195   0.162671
| 23> *
| 24>
| 25>                          ****END OF INPUT****

CARTESIAN COORDINATES (ANGSTROEM)
---------------------------------
  C     -1.195475   -0.378030   -0.059983
  O     -1.728058   -1.033809    0.765173
  C      0.016874    0.498076    0.269339
  C      1.181709    0.020335   -0.135381
  H     -1.501583   -0.365750   -1.053065
  H     -0.238583    1.415578    0.786359
  H      1.403374   -0.864884   -0.728428
  H      2.008783    0.724195    0.162671

 Total Charge           Charge          ....    0
 Multiplicity           Mult            ....    1
 Number of Electrons    NEL             ....   30
 Basis Dimension        Dim             ....   76

ORBITAL ENERGIES
----------------

  NO   OCC          E(Eh)            E(eV)
   0   2.0000     -19.140659      -520.8438
   1   2.0000     -10.268973      -279.4330
   2   2.0000     -10.204356      -277.6746
   3   2.0000     -10.201774      -277.6044
   4   2.0000      -1.064866       -28.9765
   5   2.0000      -0.793162       -21.5830
   6   2.0000      -0.640692       -17.4341
   7   2.0000      -0.570471       -15.5233
   8   2.0000      -0.492065       -13.3898
   9   2.0000      -0.459813       -12.5122
  10   2.0000      -0.446486       -12.1495
  11   2.0000      -0.387821       -10.5531
  12   2.0000      -0.381477       -10.3805
  13   2.0000      -0.286819        -7.8047
  14   2.0000      -0.248174        -6.7532
  15   0.0000      -0.029652        -0.8069
  16   0.0000       0.004390         0.1195
  17   0.0000       0.082267         2.2386
  18   0.0000       0.088548         2.4095
  19   0.0000       0.112036         3.0487

MULLIKEN ATOMIC CHARGES
-----------------------
   0 C :    0.183920
   1 O :   -0.164671
   2 C :   -0.087339
   3 C :    0.020682
   4 H :   -0.029295
   5 H :    0.016597
   6 H :    0.028836
   7 H :    0.031271
Sum of atomic charges:   -0.0000000

LOEWDIN ATOMIC CHARGES
----------------------
   0 C :   -0.026440
   1 O :    0.035501
   2 C :   -0.050364
   3 C :   -0.038152
   4 H :   -0.021266
   5 H :    0.032398
   6 H :    0.029021
   7 H :    0.039301

  Mayer bond orders larger than 0.100000
B(  0-C ,  1-O ) :   2.2548 B(  0-C ,  2-C ) :   0.9769 B(  0-C ,  4-H ) :   0.9249
B(  2-C ,  3-C ) :   2.0267 B(  2-C ,  5-H ) :   0.9440 B(  3-C ,  6-H ) :   0.9495
B(  3-C ,  7-H ) :   0.9393

-----------------------------------------------------------------------------
         ABSORPTION SPECTRUM VIA TRANSITION ELECTRIC DIPOLE MOMENTS
-----------------------------------------------------------------------------
State   Energy    Wavelength  fosc         T2        TX        TY        TZ
        (cm-1)      (nm)                 (au**2)    (au)      (au)      (au)
-----------------------------------------------------------------------------
   1   33403.4    299.4   0.000092580   0.00091  -0.02734   0.00120   0.01278

FINAL SINGLE POINT ENERGY      -191.632059067513

DIPOLE MOMENT
-------------
                                X             Y             Z
Electronic contribution:     -2.81606      -1.24139       1.05150
Nuclear contribution   :      3.28519       1.77423      -1.59566
                        -----------------------------------------
Total Dipole Moment    :      0.46913       0.53284      -0.54416
                        -----------------------------------------
Magnitude (a.u.)       :      0.89449
Magnitude (Debye)      :      2.27361

Rotational constants in cm-1:     1.009288     0.168946     0.162864
Rotational constants in MHz : 30257.701185  5064.881708  4882.553724

                             ****ORCA TERMINATED NORMALLY****
TOTAL RUN TIME: 0 days 0 hours 3 minutes 23 seconds 448 msec
