                         Program Version 5.0.3 -  RELEASE  -
|  1> ! B3LYP cc-pVDZ
|  2> !TightSCF
|  3> %scf
|  4>  ConvForced true
|  5>  convergence tight
|  6>  MaxIter 500
|  7> end
|  8>
|  9> %tddft
| 10>  nroots 1
| 11> end
| 12>
| 13> # 	23852
| 14> * xyz 0 1
| 15> 		C   -0.558139  -0.411932  -0.000802
| 16> 		O   -0.593827  -1.629101   0.012603
| 17> 		C    0.598529   0.362812  -0.029522
| 18> 		C    1.861341  -0.093325   0.002139
| 19> 		H   -1.416348   0.268425  -0.161847
| 20> 		H    0.420653   1.372209   0.362250
| 21> 		H    2.023583  -1.221752   0.033880
| 22> 		H    2.665446   0.410770  -0.085513
| 23> *
| 24>
| 25>                          ****END OF INPUT****

CARTESIAN COORDINATES (ANGSTROEM)
---------------------------------
  C     -0.558139   -0.411932   -0.000802
  O     -0.593827   -1.629101    0.012603
  C      0.598529    0.362812   -0.029522
  C      1.861341   -0.093325    0.002139
  H     -1.416348    0.268425   -0.161847
  H      0.420653    1.372209    0.362250
  H      2.023583   -1.221752    0.033880
  H      2.665446    0.410770   -0.085513

 Total Charge           Charge          ....    0
 Multiplicity           Mult            ....    1
 Number of Electrons    NEL             ....   30
 Basis Dimension        Dim             ....   76

ORBITAL ENERGIES
----------------

  NO   OCC          E(Eh)            E(eV)
   0   2.0000     -19.135667      -520.7080
   1   2.0000     -10.265373      -279.3350
   2   2.0000     -10.211916      -277.8804
   3   2.0000     -10.198698      -277.5207
   4   2.0000      -1.039999       -28.2998
   5   2.0000      -0.806930       -21.9577
   6   2.0000      -0.686743       -18.6872
   7   2.0000      -0.549179       -14.9439
   8   2.0000      -0.508979       -13.8500
   9   2.0000      -0.450618       -12.2619
  10   2.0000      -0.431765       -11.7489
  11   2.0000      -0.406792       -11.0694
  12   2.0000      -0.368353       -10.0234
  13   2.0000      -0.284603        -7.7444
  14   2.0000      -0.255122        -6.9422
  15   0.0000      -0.082660        -2.2493
  16   0.0000       0.053463         1.4548
  17   0.0000       0.079763         2.1705
  18   0.0000       0.092639         2.5208
  19   0.0000       0.130481         3.5506

MULLIKEN ATOMIC CHARGES
-----------------------
   0 C :    0.185606
   1 O :   -0.198781
   2 C :   -0.135349
   3 C :    0.145002
   4 H :   -0.027861
   5 H :    0.003253
   6 H :    0.048497
   7 H :   -0.020367
Sum of atomic charges:    0.0000000

LOEWDIN ATOMIC CHARGES
----------------------
   0 C :   -0.055870
   1 O :   -0.006024
   2 C :   -0.085528
   3 C :    0.077470
   4 H :   -0.002602
   5 H :    0.037106
   6 H :    0.048110
   7 H :   -0.012662

  Mayer bond orders larger than 0.100000
B(  0-C ,  1-O ) :   2.1844 B(  0-C ,  2-C ) :   1.1266 B(  0-C ,  4-H ) :   0.9086
B(  1-O ,  3-C ) :   0.1116 B(  2-C ,  3-C ) :   1.9374 B(  2-C ,  5-H ) :   0.9368
B(  3-C ,  6-H ) :   0.9426 B(  3-C ,  7-H ) :   0.9383

-----------------------------------------------------------------------------
         ABSORPTION SPECTRUM VIA TRANSITION ELECTRIC DIPOLE MOMENTS
-----------------------------------------------------------------------------
State   Energy    Wavelength  fosc         T2        TX        TY        TZ
        (cm-1)      (nm)                 (au**2)    (au)      (au)      (au)
-----------------------------------------------------------------------------
   1   25338.4    394.7   0.000249173   0.00324  -0.04464  -0.00638  -0.03469

FINAL SINGLE POINT ENERGY      -191.655983617315

DIPOLE MOMENT
-------------
                                X             Y             Z
Electronic contribution:     -1.76500      -1.67208      -0.07775
Nuclear contribution   :      2.30952       2.56454       0.13888
                        -----------------------------------------
Total Dipole Moment    :      0.54452       0.89246       0.06113
                        -----------------------------------------
Magnitude (a.u.)       :      1.04725
Magnitude (Debye)      :      2.66189

Rotational constants in cm-1:     0.787891     0.212190     0.167769
Rotational constants in MHz : 23620.376347  6361.310579  5029.580586

                             ****ORCA TERMINATED NORMALLY****
TOTAL RUN TIME: 0 days 0 hours 3 minutes 20 seconds 206 msec
