                         Program Version 5.0.3 -  RELEASE  -
|  1> ! B3LYP cc-pVDZ
|  2> !TightSCF
|  3> %scf
|  4>  ConvForced true
|  5>  convergence tight
|  6>  MaxIter 500
|  7> end
|  8>
|  9> %tddft
| 10>  nroots 1
| 11> end
| 12>
| 13> # 	10035
| 14> * xyz 0 1
| 15> 		C   -1.238230  -0.321795   0.041630
| 16> 		O   -2.012468  -0.612298   0.887780
| 17> 		C    0.001385   0.444625   0.318019
| 18> 		C    1.156635   0.102646  -0.201988
| 19> 		H   -1.301562  -0.645038  -0.888404
| 20> 		H   -0.024446   1.297249   1.076709
| 21> 		H    1.259822  -0.823215  -0.865785
| 22> 		H    2.152216   0.554607  -0.328796
| 23> *
| 24>
| 25>                          ****END OF INPUT****

CARTESIAN COORDINATES (ANGSTROEM)
---------------------------------
  C     -1.238230   -0.321795    0.041630
  O     -2.012468   -0.612298    0.887780
  C      0.001385    0.444625    0.318019
  C      1.156635    0.102646   -0.201988
  H     -1.301562   -0.645038   -0.888404
  H     -0.024446    1.297249    1.076709
  H      1.259822   -0.823215   -0.865785
  H      2.152216    0.554607   -0.328796

 Total Charge           Charge          ....    0
 Multiplicity           Mult            ....    1
 Number of Electrons    NEL             ....   30
 Basis Dimension        Dim             ....   76

ORBITAL ENERGIES
----------------

  NO   OCC          E(Eh)            E(eV)
   0   2.0000     -19.140291      -520.8338
   1   2.0000     -10.267070      -279.3812
   2   2.0000     -10.213157      -277.9141
   3   2.0000     -10.206486      -277.7326
   4   2.0000      -1.064674       -28.9712
   5   2.0000      -0.800265       -21.7763
   6   2.0000      -0.652789       -17.7633
   7   2.0000      -0.581403       -15.8208
   8   2.0000      -0.489925       -13.3315
   9   2.0000      -0.469774       -12.7832
  10   2.0000      -0.439459       -11.9583
  11   2.0000      -0.396876       -10.7995
  12   2.0000      -0.362890        -9.8747
  13   2.0000      -0.292210        -7.9514
  14   2.0000      -0.256791        -6.9877
  15   0.0000      -0.056924        -1.5490
  16   0.0000       0.036119         0.9829
  17   0.0000       0.076861         2.0915
  18   0.0000       0.084963         2.3120
  19   0.0000       0.126106         3.4315

MULLIKEN ATOMIC CHARGES
-----------------------
   0 C :    0.251668
   1 O :   -0.171659
   2 C :   -0.100832
   3 C :   -0.000068
   4 H :   -0.057143
   5 H :    0.024702
   6 H :    0.018419
   7 H :    0.034914
Sum of atomic charges:    0.0000000

LOEWDIN ATOMIC CHARGES
----------------------
   0 C :   -0.029254
   1 O :    0.038223
   2 C :   -0.064125
   3 C :   -0.027799
   4 H :   -0.026734
   5 H :    0.045468
   6 H :    0.031199
   7 H :    0.033022

  Mayer bond orders larger than 0.100000
B(  0-C ,  1-O ) :   2.2246 B(  0-C ,  2-C ) :   1.0325 B(  0-C ,  4-H ) :   0.9319
B(  2-C ,  3-C ) :   1.9611 B(  2-C ,  5-H ) :   0.9402 B(  3-C ,  6-H ) :   0.9466
B(  3-C ,  7-H ) :   0.9575

-----------------------------------------------------------------------------
         ABSORPTION SPECTRUM VIA TRANSITION ELECTRIC DIPOLE MOMENTS
-----------------------------------------------------------------------------
State   Energy    Wavelength  fosc         T2        TX        TY        TZ
        (cm-1)      (nm)                 (au**2)    (au)      (au)      (au)
-----------------------------------------------------------------------------
   1   30695.5    325.8   0.000842692   0.00904   0.09031   0.01251  -0.02693

FINAL SINGLE POINT ENERGY      -191.638081547328

DIPOLE MOMENT
-------------
                                X             Y             Z
Electronic contribution:     -3.24547      -0.53588       1.33833
Nuclear contribution   :      4.01441       0.80116      -1.94451
                        -----------------------------------------
Total Dipole Moment    :      0.76894       0.26528      -0.60617
                        -----------------------------------------
Magnitude (a.u.)       :      1.01444
Magnitude (Debye)      :      2.57849

Rotational constants in cm-1:     1.379608     0.159457     0.149873
Rotational constants in MHz : 41359.616225  4780.411632  4493.068615

                             ****ORCA TERMINATED NORMALLY****
TOTAL RUN TIME: 0 days 0 hours 3 minutes 24 seconds 157 msec
