                         Program Version 5.0.3 -  RELEASE  -
|  1> ! B3LYP cc-pVDZ
|  2> !TightSCF
|  3> %scf
|  4>  ConvForced true
|  5>  convergence tight
|  6>  MaxIter 500
|  7> end
|  8>
|  9> %tddft
| 10>  nroots 1
| 11> end
| 12>
| 13> # 	17905
| 14> * xyz 0 1
| 15> 		C   -1.241083  -0.322911  -0.066471
| 16> 		O   -1.340420  -1.312292  -0.603112
| 17> 		C   -0.001187   0.516244  -0.114459
| 18> 		C    1.223320   0.019577   0.111918
| 19> 		H   -2.065093  -0.023797   0.696288
| 20> 		H    0.010078   1.636046  -0.431489
| 21> 		H    1.294019  -1.069251   0.305004
| 22> 		H    2.114809   0.599168   0.000125
| 23> *
| 24>
| 25>                          ****END OF INPUT****

CARTESIAN COORDINATES (ANGSTROEM)
---------------------------------
  C     -1.241083   -0.322911   -0.066471
  O     -1.340420   -1.312292   -0.603112
  C     -0.001187    0.516244   -0.114459
  C      1.223320    0.019577    0.111918
  H     -2.065093   -0.023797    0.696288
  H      0.010078    1.636046   -0.431489
  H      1.294019   -1.069251    0.305004
  H      2.114809    0.599168    0.000125

 Total Charge           Charge          ....    0
 Multiplicity           Mult            ....    1
 Number of Electrons    NEL             ....   30
 Basis Dimension        Dim             ....   76

ORBITAL ENERGIES
----------------

  NO   OCC          E(Eh)            E(eV)
   0   2.0000     -19.145283      -520.9696
   1   2.0000     -10.279670      -279.7240
   2   2.0000     -10.207353      -277.7562
   3   2.0000     -10.203875      -277.6616
   4   2.0000      -1.101792       -29.9813
   5   2.0000      -0.787246       -21.4221
   6   2.0000      -0.641622       -17.4594
   7   2.0000      -0.540470       -14.7069
   8   2.0000      -0.506435       -13.7808
   9   2.0000      -0.460332       -12.5263
  10   2.0000      -0.450876       -12.2690
  11   2.0000      -0.411064       -11.1856
  12   2.0000      -0.372970       -10.1490
  13   2.0000      -0.285539        -7.7699
  14   2.0000      -0.255379        -6.9492
  15   0.0000      -0.038427        -1.0457
  16   0.0000       0.020190         0.5494
  17   0.0000       0.078225         2.1286
  18   0.0000       0.093178         2.5355
  19   0.0000       0.102133         2.7792

MULLIKEN ATOMIC CHARGES
-----------------------
   0 C :    0.151546
   1 O :   -0.104748
   2 C :   -0.141601
   3 C :    0.050136
   4 H :   -0.028652
   5 H :    0.021905
   6 H :    0.026647
   7 H :    0.024767
Sum of atomic charges:    0.0000000

LOEWDIN ATOMIC CHARGES
----------------------
   0 C :   -0.084027
   1 O :    0.088742
   2 C :   -0.077906
   3 C :   -0.013149
   4 H :   -0.012956
   5 H :    0.043193
   6 H :    0.030590
   7 H :    0.025512

  Mayer bond orders larger than 0.100000
B(  0-C ,  1-O ) :   2.3092 B(  0-C ,  2-C ) :   0.9499 B(  0-C ,  4-H ) :   0.8983
B(  2-C ,  3-C ) :   2.0345 B(  2-C ,  5-H ) :   0.9299 B(  3-C ,  6-H ) :   0.9425
B(  3-C ,  7-H ) :   0.9439

-----------------------------------------------------------------------------
         ABSORPTION SPECTRUM VIA TRANSITION ELECTRIC DIPOLE MOMENTS
-----------------------------------------------------------------------------
State   Energy    Wavelength  fosc         T2        TX        TY        TZ
        (cm-1)      (nm)                 (au**2)    (au)      (au)      (au)
-----------------------------------------------------------------------------
   1   34526.4    289.6   0.000092691   0.00088   0.02488  -0.00019  -0.01627

FINAL SINGLE POINT ENERGY      -191.626050988448

DIPOLE MOMENT
-------------
                                X             Y             Z
Electronic contribution:     -2.27287      -1.58532      -0.93042
Nuclear contribution   :      2.61501       2.21382       1.19129
                        -----------------------------------------
Total Dipole Moment    :      0.34214       0.62850       0.26087
                        -----------------------------------------
Magnitude (a.u.)       :      0.76166
Magnitude (Debye)      :      1.93598

Rotational constants in cm-1:     0.853512     0.193068     0.165529
Rotational constants in MHz : 25587.655351  5788.039130  4962.430592

                             ****ORCA TERMINATED NORMALLY****
TOTAL RUN TIME: 0 days 0 hours 3 minutes 13 seconds 44 msec
