                         Program Version 5.0.3 -  RELEASE  -
|  1> ! B3LYP cc-pVDZ
|  2> !TightSCF
|  3> %scf
|  4>  ConvForced true
|  5>  convergence tight
|  6>  MaxIter 500
|  7> end
|  8>
|  9> %tddft
| 10>  nroots 1
| 11> end
| 12>
| 13> # 	681
| 14> * xyz 0 1
| 15> 		C   -1.152082  -0.292610  -0.020922
| 16> 		O   -1.238377  -1.508700  -0.013513
| 17> 		C   -0.011585   0.519356  -0.005357
| 18> 		C    1.208592  -0.005958  -0.001789
| 19> 		H   -2.160414   0.309077  -0.087992
| 20> 		H   -0.188699   1.470375   0.070589
| 21> 		H    1.459723  -1.040462   0.108208
| 22> 		H    2.134916   0.509265   0.008999
| 23> *
| 24>
| 25>                          ****END OF INPUT****

CARTESIAN COORDINATES (ANGSTROEM)
---------------------------------
  C     -1.152082   -0.292610   -0.020922
  O     -1.238377   -1.508700   -0.013513
  C     -0.011585    0.519356   -0.005357
  C      1.208592   -0.005958   -0.001789
  H     -2.160414    0.309077   -0.087992
  H     -0.188699    1.470375    0.070589
  H      1.459723   -1.040462    0.108208
  H      2.134916    0.509265    0.008999

 Total Charge           Charge          ....    0
 Multiplicity           Mult            ....    1
 Number of Electrons    NEL             ....   30
 Basis Dimension        Dim             ....   76

ORBITAL ENERGIES
----------------

  NO   OCC          E(Eh)            E(eV)
   0   2.0000     -19.132515      -520.6222
   1   2.0000     -10.269057      -279.4352
   2   2.0000     -10.216295      -277.9995
   3   2.0000     -10.195065      -277.4218
   4   2.0000      -1.036619       -28.2078
   5   2.0000      -0.815389       -22.1879
   6   2.0000      -0.676937       -18.4204
   7   2.0000      -0.552625       -15.0377
   8   2.0000      -0.518922       -14.1206
   9   2.0000      -0.458483       -12.4759
  10   2.0000      -0.416816       -11.3421
  11   2.0000      -0.400233       -10.8909
  12   2.0000      -0.386018       -10.5041
  13   2.0000      -0.292112        -7.9488
  14   2.0000      -0.250061        -6.8045
  15   0.0000      -0.078125        -2.1259
  16   0.0000       0.067750         1.8436
  17   0.0000       0.074911         2.0384
  18   0.0000       0.091626         2.4933
  19   0.0000       0.131219         3.5707

MULLIKEN ATOMIC CHARGES
-----------------------
   0 C :    0.143458
   1 O :   -0.196459
   2 C :    0.005501
   3 C :    0.100165
   4 H :   -0.035540
   5 H :   -0.067577
   6 H :    0.029941
   7 H :    0.020511
Sum of atomic charges:   -0.0000000

LOEWDIN ATOMIC CHARGES
----------------------
   0 C :   -0.045022
   1 O :   -0.015223
   2 C :   -0.063420
   3 C :    0.068385
   4 H :   -0.006871
   5 H :    0.003233
   6 H :    0.032841
   7 H :    0.026077

  Mayer bond orders larger than 0.100000
B(  0-C ,  1-O ) :   2.1895 B(  0-C ,  2-C ) :   1.1163 B(  0-C ,  4-H ) :   0.9045
B(  1-O ,  3-C ) :   0.1133 B(  2-C ,  3-C ) :   1.9229 B(  2-C ,  5-H ) :   0.9472
B(  3-C ,  6-H ) :   0.9452 B(  3-C ,  7-H ) :   0.9511

-----------------------------------------------------------------------------
         ABSORPTION SPECTRUM VIA TRANSITION ELECTRIC DIPOLE MOMENTS
-----------------------------------------------------------------------------
State   Energy    Wavelength  fosc         T2        TX        TY        TZ
        (cm-1)      (nm)                 (au**2)    (au)      (au)      (au)
-----------------------------------------------------------------------------
   1   25268.6    395.7   0.000094224   0.00123   0.00827  -0.00283  -0.03393

FINAL SINGLE POINT ENERGY      -191.669320130739

DIPOLE MOMENT
-------------
                                X             Y             Z
Electronic contribution:     -1.71023      -1.60489      -0.08273
Nuclear contribution   :      2.36100       2.50806       0.12386
                        -----------------------------------------
Total Dipole Moment    :      0.65076       0.90317       0.04112
                        -----------------------------------------
Magnitude (a.u.)       :      1.11396
Magnitude (Debye)      :      2.83146

Rotational constants in cm-1:     0.793067     0.211979     0.167337
Rotational constants in MHz : 23775.538925  6354.967226  5016.631876

                             ****ORCA TERMINATED NORMALLY****
TOTAL RUN TIME: 0 days 0 hours 3 minutes 9 seconds 859 msec
