                         Program Version 5.0.3 -  RELEASE  -
|  1> ! B3LYP cc-pVDZ
|  2> !TightSCF
|  3> %scf
|  4>  ConvForced true
|  5>  convergence tight
|  6>  MaxIter 500
|  7> end
|  8>
|  9> %tddft
| 10>  nroots 1
| 11> end
| 12>
| 13> # 	31254
| 14> * xyz 0 1
| 15> 		C   -0.576597  -0.377727  -0.052362
| 16> 		O   -0.476251  -1.568599   0.031861
| 17> 		C    0.584979   0.421789   0.035918
| 18> 		C    1.779061  -0.248768  -0.031442
| 19> 		H   -1.617271  -0.018482  -0.099814
| 20> 		H    0.473845   1.649412   0.145740
| 21> 		H    1.646307  -1.424991  -0.068096
| 22> 		H    2.712959   0.380251   0.101968
| 23> *
| 24>
| 25>                          ****END OF INPUT****

CARTESIAN COORDINATES (ANGSTROEM)
---------------------------------
  C     -0.576597   -0.377727   -0.052362
  O     -0.476251   -1.568599    0.031861
  C      0.584979    0.421789    0.035918
  C      1.779061   -0.248768   -0.031442
  H     -1.617271   -0.018482   -0.099814
  H      0.473845    1.649412    0.145740
  H      1.646307   -1.424991   -0.068096
  H      2.712959    0.380251    0.101968

 Total Charge           Charge          ....    0
 Multiplicity           Mult            ....    1
 Number of Electrons    NEL             ....   30
 Basis Dimension        Dim             ....   76

ORBITAL ENERGIES
----------------

  NO   OCC          E(Eh)            E(eV)
   0   2.0000     -19.127817      -520.4944
   1   2.0000     -10.264747      -279.3180
   2   2.0000     -10.224380      -278.2195
   3   2.0000     -10.212705      -277.9018
   4   2.0000      -1.054393       -28.6915
   5   2.0000      -0.787742       -21.4356
   6   2.0000      -0.650605       -17.7039
   7   2.0000      -0.533313       -14.5122
   8   2.0000      -0.498013       -13.5516
   9   2.0000      -0.441036       -12.0012
  10   2.0000      -0.415165       -11.2972
  11   2.0000      -0.402787       -10.9604
  12   2.0000      -0.367160        -9.9909
  13   2.0000      -0.279122        -7.5953
  14   2.0000      -0.252670        -6.8755
  15   0.0000      -0.072186        -1.9643
  16   0.0000       0.052039         1.4161
  17   0.0000       0.067938         1.8487
  18   0.0000       0.081550         2.2191
  19   0.0000       0.112689         3.0664

MULLIKEN ATOMIC CHARGES
-----------------------
   0 C :    0.204786
   1 O :   -0.200621
   2 C :   -0.161928
   3 C :    0.026430
   4 H :   -0.026423
   5 H :    0.026562
   6 H :    0.084442
   7 H :    0.046754
Sum of atomic charges:   -0.0000000

LOEWDIN ATOMIC CHARGES
----------------------
   0 C :   -0.058573
   1 O :   -0.000289
   2 C :   -0.101629
   3 C :    0.014721
   4 H :   -0.000371
   5 H :    0.046744
   6 H :    0.059607
   7 H :    0.039790

  Mayer bond orders larger than 0.100000
B(  0-C ,  1-O ) :   2.1413 B(  0-C ,  2-C ) :   1.0750 B(  0-C ,  4-H ) :   0.9407
B(  1-O ,  3-C ) :   0.1069 B(  2-C ,  3-C ) :   1.9240 B(  2-C ,  5-H ) :   0.9355
B(  3-C ,  6-H ) :   0.9025 B(  3-C ,  7-H ) :   0.9376

-----------------------------------------------------------------------------
         ABSORPTION SPECTRUM VIA TRANSITION ELECTRIC DIPOLE MOMENTS
-----------------------------------------------------------------------------
State   Energy    Wavelength  fosc         T2        TX        TY        TZ
        (cm-1)      (nm)                 (au**2)    (au)      (au)      (au)
-----------------------------------------------------------------------------
   1   26847.5    372.5   0.000266742   0.00327  -0.00990   0.00618  -0.05599

FINAL SINGLE POINT ENERGY      -191.656613705240

DIPOLE MOMENT
-------------
                                X             Y             Z
Electronic contribution:     -1.57823      -1.53077      -0.08740
Nuclear contribution   :      1.86147       2.33872       0.07433
                        -----------------------------------------
Total Dipole Moment    :      0.28324       0.80795      -0.01308
                        -----------------------------------------
Magnitude (a.u.)       :      0.85625
Magnitude (Debye)      :      2.17643

Rotational constants in cm-1:     0.696917     0.242434     0.180338
Rotational constants in MHz : 20893.059822  7267.988519  5406.388277

                             ****ORCA TERMINATED NORMALLY****
TOTAL RUN TIME: 0 days 0 hours 3 minutes 22 seconds 235 msec
