                         Program Version 5.0.3 -  RELEASE  -
|  1> ! B3LYP cc-pVDZ
|  2> !TightSCF
|  3> %scf
|  4>  ConvForced true
|  5>  convergence tight
|  6>  MaxIter 500
|  7> end
|  8>
|  9> %tddft
| 10>  nroots 1
| 11> end
| 12>
| 13> # 	11127
| 14> * xyz 0 1
| 15> 		C   -1.213107  -0.329350  -0.000063
| 16> 		O   -1.501693  -1.220835   0.706442
| 17> 		C    0.033858   0.517873   0.117927
| 18> 		C    1.191067   0.025519  -0.180510
| 19> 		H   -1.748408  -0.122377  -0.872602
| 20> 		H   -0.098785   1.480223   0.689392
| 21> 		H    1.241713  -0.938210  -0.457905
| 22> 		H    2.087859   0.643009  -0.041945
| 23> *
| 24>
| 25>                          ****END OF INPUT****

CARTESIAN COORDINATES (ANGSTROEM)
---------------------------------
  C     -1.213107   -0.329350   -0.000063
  O     -1.501693   -1.220835    0.706442
  C      0.033858    0.517873    0.117927
  C      1.191067    0.025519   -0.180510
  H     -1.748408   -0.122377   -0.872602
  H     -0.098785    1.480223    0.689392
  H      1.241713   -0.938210   -0.457905
  H      2.087859    0.643009   -0.041945

 Total Charge           Charge          ....    0
 Multiplicity           Mult            ....    1
 Number of Electrons    NEL             ....   30
 Basis Dimension        Dim             ....   76

ORBITAL ENERGIES
----------------

  NO   OCC          E(Eh)            E(eV)
   0   2.0000     -19.144792      -520.9563
   1   2.0000     -10.271772      -279.5091
   2   2.0000     -10.197859      -277.4978
   3   2.0000     -10.188786      -277.2510
   4   2.0000      -1.072325       -29.1794
   5   2.0000      -0.801564       -21.8117
   6   2.0000      -0.652857       -17.7651
   7   2.0000      -0.561294       -15.2736
   8   2.0000      -0.503599       -13.7036
   9   2.0000      -0.459511       -12.5039
  10   2.0000      -0.448327       -12.1996
  11   2.0000      -0.396992       -10.8027
  12   2.0000      -0.383083       -10.4242
  13   2.0000      -0.291136        -7.9222
  14   2.0000      -0.252456        -6.8697
  15   0.0000      -0.024917        -0.6780
  16   0.0000      -0.000308        -0.0084
  17   0.0000       0.080866         2.2005
  18   0.0000       0.106810         2.9064
  19   0.0000       0.111304         3.0287

MULLIKEN ATOMIC CHARGES
-----------------------
   0 C :    0.193266
   1 O :   -0.153180
   2 C :   -0.154168
   3 C :    0.115131
   4 H :   -0.030099
   5 H :    0.022184
   6 H :   -0.017414
   7 H :    0.024280
Sum of atomic charges:    0.0000000

LOEWDIN ATOMIC CHARGES
----------------------
   0 C :   -0.033026
   1 O :    0.046894
   2 C :   -0.062504
   3 C :   -0.015714
   4 H :   -0.019536
   5 H :    0.041218
   6 H :    0.005990
   7 H :    0.036677

  Mayer bond orders larger than 0.100000
B(  0-C ,  1-O ) :   2.2787 B(  0-C ,  2-C ) :   0.9694 B(  0-C ,  4-H ) :   0.9188
B(  2-C ,  3-C ) :   2.0692 B(  2-C ,  5-H ) :   0.9296 B(  3-C ,  6-H ) :   0.9332
B(  3-C ,  7-H ) :   0.9415

-----------------------------------------------------------------------------
         ABSORPTION SPECTRUM VIA TRANSITION ELECTRIC DIPOLE MOMENTS
-----------------------------------------------------------------------------
State   Energy    Wavelength  fosc         T2        TX        TY        TZ
        (cm-1)      (nm)                 (au**2)    (au)      (au)      (au)
-----------------------------------------------------------------------------
   1   34496.5    289.9   0.000110265   0.00105   0.02909  -0.00419   0.01372

FINAL SINGLE POINT ENERGY      -191.622187021137

DIPOLE MOMENT
-------------
                                X             Y             Z
Electronic contribution:     -2.51856      -1.42614       0.90116
Nuclear contribution   :      2.87309       2.04671      -1.29307
                        -----------------------------------------
Total Dipole Moment    :      0.35453       0.62057      -0.39191
                        -----------------------------------------
Magnitude (a.u.)       :      0.81510
Magnitude (Debye)      :      2.07183

Rotational constants in cm-1:     0.945033     0.180928     0.165045
Rotational constants in MHz : 28331.364231  5424.081317  4947.935885

                             ****ORCA TERMINATED NORMALLY****
TOTAL RUN TIME: 0 days 0 hours 3 minutes 8 seconds 166 msec
