                         Program Version 5.0.3 -  RELEASE  -
|  1> ! B3LYP cc-pVDZ
|  2> !TightSCF
|  3> %scf
|  4>  ConvForced true
|  5>  convergence tight
|  6>  MaxIter 500
|  7> end
|  8>
|  9> %tddft
| 10>  nroots 1
| 11> end
| 12>
| 13> # 	15196
| 14> * xyz 0 1
| 15> 		C   -1.128472  -0.314969  -0.082246
| 16> 		O   -2.011311  -0.660532  -0.921648
| 17> 		C    0.023417   0.398561  -0.290357
| 18> 		C    1.183154   0.094932   0.308842
| 19> 		H   -1.256759  -0.673140   1.013107
| 20> 		H   -0.134427   1.092940  -1.202896
| 21> 		H    1.181092  -0.765765   1.017473
| 22> 		H    2.099099   0.748978   0.120879
| 23> *
| 24>
| 25>                          ****END OF INPUT****

CARTESIAN COORDINATES (ANGSTROEM)
---------------------------------
  C     -1.128472   -0.314969   -0.082246
  O     -2.011311   -0.660532   -0.921648
  C      0.023417    0.398561   -0.290357
  C      1.183154    0.094932    0.308842
  H     -1.256759   -0.673140    1.013107
  H     -0.134427    1.092940   -1.202896
  H      1.181092   -0.765765    1.017473
  H      2.099099    0.748978    0.120879

 Total Charge           Charge          ....    0
 Multiplicity           Mult            ....    1
 Number of Electrons    NEL             ....   30
 Basis Dimension        Dim             ....   76

ORBITAL ENERGIES
----------------

  NO   OCC          E(Eh)            E(eV)
   0   2.0000     -19.137171      -520.7489
   1   2.0000     -10.273172      -279.5472
   2   2.0000     -10.235080      -278.5107
   3   2.0000     -10.214275      -277.9446
   4   2.0000      -1.015351       -27.6291
   5   2.0000      -0.820376       -22.3236
   6   2.0000      -0.665904       -18.1202
   7   2.0000      -0.557357       -15.1665
   8   2.0000      -0.474593       -12.9143
   9   2.0000      -0.472320       -12.8525
  10   2.0000      -0.420505       -11.4425
  11   2.0000      -0.391655       -10.6575
  12   2.0000      -0.370256       -10.0752
  13   2.0000      -0.292940        -7.9713
  14   2.0000      -0.253335        -6.8936
  15   0.0000      -0.080236        -2.1833
  16   0.0000       0.033972         0.9244
  17   0.0000       0.065330         1.7777
  18   0.0000       0.071952         1.9579
  19   0.0000       0.118759         3.2316

MULLIKEN ATOMIC CHARGES
-----------------------
   0 C :    0.145640
   1 O :   -0.235373
   2 C :   -0.054536
   3 C :    0.031680
   4 H :   -0.020598
   5 H :    0.028753
   6 H :    0.043133
   7 H :    0.061302
Sum of atomic charges:   -0.0000000

LOEWDIN ATOMIC CHARGES
----------------------
   0 C :   -0.029666
   1 O :   -0.051270
   2 C :   -0.075105
   3 C :    0.011630
   4 H :   -0.000381
   5 H :    0.054120
   6 H :    0.040134
   7 H :    0.050538

  Mayer bond orders larger than 0.100000
B(  0-C ,  1-O ) :   2.1053 B(  0-C ,  2-C ) :   1.1357 B(  0-C ,  4-H ) :   0.9151
B(  1-O ,  3-C ) :   0.1068 B(  2-C ,  3-C ) :   1.9103 B(  2-C ,  5-H ) :   0.9210
B(  3-C ,  6-H ) :   0.9339 B(  3-C ,  7-H ) :   0.9371

-----------------------------------------------------------------------------
         ABSORPTION SPECTRUM VIA TRANSITION ELECTRIC DIPOLE MOMENTS
-----------------------------------------------------------------------------
State   Energy    Wavelength  fosc         T2        TX        TY        TZ
        (cm-1)      (nm)                 (au**2)    (au)      (au)      (au)
-----------------------------------------------------------------------------
   1   25346.0    394.5   0.000192632   0.00250  -0.04846   0.00972  -0.00772

FINAL SINGLE POINT ENERGY      -191.671082822743

DIPOLE MOMENT
-------------
                                X             Y             Z
Electronic contribution:     -2.63531      -0.52378      -1.28820
Nuclear contribution   :      3.71390       0.90709       1.85439
                        -----------------------------------------
Total Dipole Moment    :      1.07859       0.38332       0.56619
                        -----------------------------------------
Magnitude (a.u.)       :      1.27706
Magnitude (Debye)      :      3.24602

Rotational constants in cm-1:     1.433547     0.157653     0.147715
Rotational constants in MHz : 42976.643871  4726.309941  4428.387204

                             ****ORCA TERMINATED NORMALLY****
TOTAL RUN TIME: 0 days 0 hours 3 minutes 21 seconds 497 msec
