                         Program Version 5.0.3 -  RELEASE  -
|  1> ! B3LYP cc-pVDZ
|  2> !TightSCF
|  3> %scf
|  4>  ConvForced true
|  5>  convergence tight
|  6>  MaxIter 500
|  7> end
|  8>
|  9> %tddft
| 10>  nroots 1
| 11> end
| 12>
| 13> # 	1637
| 14> * xyz 0 1
| 15> 		C   -1.136716  -0.406298  -0.028259
| 16> 		O   -2.076278  -0.563775  -0.879523
| 17> 		C    0.021035   0.410412  -0.331609
| 18> 		C    1.178383   0.102835   0.246857
| 19> 		H   -1.415370  -0.875227   1.019693
| 20> 		H   -0.025806   1.340073  -0.996192
| 21> 		H    1.367219  -0.710330   0.942794
| 22> 		H    2.070183   0.683786   0.097500
| 23> *
| 24>
| 25>                          ****END OF INPUT****

CARTESIAN COORDINATES (ANGSTROEM)
---------------------------------
  C     -1.136716   -0.406298   -0.028259
  O     -2.076278   -0.563775   -0.879523
  C      0.021035    0.410412   -0.331609
  C      1.178383    0.102835    0.246857
  H     -1.415370   -0.875227    1.019693
  H     -0.025806    1.340073   -0.996192
  H      1.367219   -0.710330    0.942794
  H      2.070183    0.683786    0.097500

 Total Charge           Charge          ....    0
 Multiplicity           Mult            ....    1
 Number of Electrons    NEL             ....   30
 Basis Dimension        Dim             ....   76

ORBITAL ENERGIES
----------------

  NO   OCC          E(Eh)            E(eV)
   0   2.0000     -19.133270      -520.6428
   1   2.0000     -10.282824      -279.8099
   2   2.0000     -10.219006      -278.0733
   3   2.0000     -10.215489      -277.9776
   4   2.0000      -1.008483       -27.4422
   5   2.0000      -0.808413       -21.9980
   6   2.0000      -0.649482       -17.6733
   7   2.0000      -0.561905       -15.2902
   8   2.0000      -0.481373       -13.0988
   9   2.0000      -0.472166       -12.8483
  10   2.0000      -0.412772       -11.2321
  11   2.0000      -0.387991       -10.5578
  12   2.0000      -0.366090        -9.9618
  13   2.0000      -0.292547        -7.9606
  14   2.0000      -0.249712        -6.7950
  15   0.0000      -0.069106        -1.8805
  16   0.0000       0.017096         0.4652
  17   0.0000       0.075319         2.0495
  18   0.0000       0.079102         2.1525
  19   0.0000       0.103043         2.8039

MULLIKEN ATOMIC CHARGES
-----------------------
   0 C :    0.151064
   1 O :   -0.247406
   2 C :   -0.062285
   3 C :    0.051175
   4 H :    0.019546
   5 H :    0.038677
   6 H :    0.024215
   7 H :    0.025014
Sum of atomic charges:    0.0000000

LOEWDIN ATOMIC CHARGES
----------------------
   0 C :   -0.008064
   1 O :   -0.066497
   2 C :   -0.062597
   3 C :    0.006081
   4 H :    0.018647
   5 H :    0.056489
   6 H :    0.028301
   7 H :    0.027641

  Mayer bond orders larger than 0.100000
B(  0-C ,  1-O ) :   2.0793 B(  0-C ,  2-C ) :   1.0550 B(  0-C ,  4-H ) :   0.9320
B(  2-C ,  3-C ) :   1.9445 B(  2-C ,  5-H ) :   0.9407 B(  3-C ,  6-H ) :   0.9541
B(  3-C ,  7-H ) :   0.9427

-----------------------------------------------------------------------------
         ABSORPTION SPECTRUM VIA TRANSITION ELECTRIC DIPOLE MOMENTS
-----------------------------------------------------------------------------
State   Energy    Wavelength  fosc         T2        TX        TY        TZ
        (cm-1)      (nm)                 (au**2)    (au)      (au)      (au)
-----------------------------------------------------------------------------
   1   26102.5    383.1   0.000604527   0.00762   0.08702   0.00308  -0.00655

FINAL SINGLE POINT ENERGY      -191.671855934462

DIPOLE MOMENT
-------------
                                X             Y             Z
Electronic contribution:     -2.84869      -0.59048      -1.32085
Nuclear contribution   :      3.88855       0.89299       1.94978
                        -----------------------------------------
Total Dipole Moment    :      1.03986       0.30251       0.62893
                        -----------------------------------------
Magnitude (a.u.)       :      1.25235
Magnitude (Debye)      :      3.18321

Rotational constants in cm-1:     1.354308     0.156593     0.144443
Rotational constants in MHz : 40601.128615  4694.541454  4330.288924

                             ****ORCA TERMINATED NORMALLY****
TOTAL RUN TIME: 0 days 0 hours 3 minutes 19 seconds 896 msec
