                         Program Version 5.0.3 -  RELEASE  -
|  1> ! B3LYP cc-pVDZ
|  2> !TightSCF
|  3> %scf
|  4>  ConvForced true
|  5>  convergence tight
|  6>  MaxIter 500
|  7> end
|  8>
|  9> %tddft
| 10>  nroots 1
| 11> end
| 12>
| 13> # 	1442
| 14> * xyz 0 1
| 15> 		C   -1.173561  -0.338388   0.010635
| 16> 		O   -1.182529  -1.436898  -0.291109
| 17> 		C   -0.009942   0.510675  -0.125235
| 18> 		C    1.254409  -0.071933   0.079264
| 19> 		H   -2.130037   0.210867   0.534682
| 20> 		H   -0.077883   1.639276  -0.346211
| 21> 		H    1.285953  -1.150199   0.225982
| 22> 		H    2.090380   0.586836  -0.058029
| 23> *
| 24>
| 25>                          ****END OF INPUT****

CARTESIAN COORDINATES (ANGSTROEM)
---------------------------------
  C     -1.173561   -0.338388    0.010635
  O     -1.182529   -1.436898   -0.291109
  C     -0.009942    0.510675   -0.125235
  C      1.254409   -0.071933    0.079264
  H     -2.130037    0.210867    0.534682
  H     -0.077883    1.639276   -0.346211
  H      1.285953   -1.150199    0.225982
  H      2.090380    0.586836   -0.058029

 Total Charge           Charge          ....    0
 Multiplicity           Mult            ....    1
 Number of Electrons    NEL             ....   30
 Basis Dimension        Dim             ....   76

ORBITAL ENERGIES
----------------

  NO   OCC          E(Eh)            E(eV)
   0   2.0000     -19.142124      -520.8837
   1   2.0000     -10.276667      -279.6423
   2   2.0000     -10.216671      -278.0098
   3   2.0000     -10.211843      -277.8784
   4   2.0000      -1.093430       -29.7537
   5   2.0000      -0.784107       -21.3366
   6   2.0000      -0.650261       -17.6945
   7   2.0000      -0.527726       -14.3602
   8   2.0000      -0.510449       -13.8900
   9   2.0000      -0.455550       -12.3961
  10   2.0000      -0.437647       -11.9090
  11   2.0000      -0.408134       -11.1059
  12   2.0000      -0.389157       -10.5895
  13   2.0000      -0.278893        -7.5891
  14   2.0000      -0.255167        -6.9435
  15   0.0000      -0.060426        -1.6443
  16   0.0000       0.040508         1.1023
  17   0.0000       0.074589         2.0297
  18   0.0000       0.086600         2.3565
  19   0.0000       0.107999         2.9388

MULLIKEN ATOMIC CHARGES
-----------------------
   0 C :    0.146040
   1 O :   -0.121462
   2 C :   -0.138586
   3 C :    0.061757
   4 H :   -0.039041
   5 H :    0.020510
   6 H :    0.039850
   7 H :    0.030931
Sum of atomic charges:    0.0000000

LOEWDIN ATOMIC CHARGES
----------------------
   0 C :   -0.100135
   1 O :    0.072983
   2 C :   -0.073936
   3 C :    0.020227
   4 H :   -0.016613
   5 H :    0.039848
   6 H :    0.030966
   7 H :    0.026660

  Mayer bond orders larger than 0.100000
B(  0-C ,  1-O ) :   2.2713 B(  0-C ,  2-C ) :   1.0235 B(  0-C ,  4-H ) :   0.8815
B(  2-C ,  3-C ) :   1.9591 B(  2-C ,  5-H ) :   0.9395 B(  3-C ,  6-H ) :   0.9415
B(  3-C ,  7-H ) :   0.9470

-----------------------------------------------------------------------------
         ABSORPTION SPECTRUM VIA TRANSITION ELECTRIC DIPOLE MOMENTS
-----------------------------------------------------------------------------
State   Energy    Wavelength  fosc         T2        TX        TY        TZ
        (cm-1)      (nm)                 (au**2)    (au)      (au)      (au)
-----------------------------------------------------------------------------
   1   30807.9    324.6   0.000253584   0.00271  -0.04886  -0.00418  -0.01746

FINAL SINGLE POINT ENERGY      -191.643741873861

DIPOLE MOMENT
-------------
                                X             Y             Z
Electronic contribution:     -1.78368      -1.84909      -0.52000
Nuclear contribution   :      2.21369       2.56267       0.64744
                        -----------------------------------------
Total Dipole Moment    :      0.43000       0.71358       0.12745
                        -----------------------------------------
Magnitude (a.u.)       :      0.84281
Magnitude (Debye)      :      2.14226

Rotational constants in cm-1:     0.750751     0.214904     0.171430
Rotational constants in MHz : 22506.958001  6442.665441  5139.333016

                             ****ORCA TERMINATED NORMALLY****
TOTAL RUN TIME: 0 days 0 hours 3 minutes 14 seconds 466 msec
