                         Program Version 5.0.3 -  RELEASE  -
|  1> ! HF-3c
|  2> !TightSCF
|  3> %scf
|  4>  ConvForced true
|  5>  convergence tight
|  6>  MaxIter 500
|  7> end
|  8>
|  9> %tddft
| 10>  nroots 1
| 11> end
| 12>
| 13> # 	31256
| 14> * xyz 0 1
| 15> 		C   -0.582675  -0.411270  -0.003404
| 16> 		O   -0.586457  -1.637211  -0.005618
| 17> 		C    0.675556   0.359284   0.020057
| 18> 		C    1.808528  -0.114224   0.013799
| 19> 		H   -1.435058   0.212436   0.092278
| 20> 		H    0.361861   1.457918  -0.251806
| 21> 		H    1.813086  -1.047969  -0.129659
| 22> 		H    2.855864   0.603367   0.005480
| 23> *
| 24>
| 25>                          ****END OF INPUT****

CARTESIAN COORDINATES (ANGSTROEM)
---------------------------------
  C     -0.582675   -0.411270   -0.003404
  O     -0.586457   -1.637211   -0.005618
  C      0.675556    0.359284    0.020057
  C      1.808528   -0.114224    0.013799
  H     -1.435058    0.212436    0.092278
  H      0.361861    1.457918   -0.251806
  H      1.813086   -1.047969   -0.129659
  H      2.855864    0.603367    0.005480

 Total Charge           Charge          ....    0
 Multiplicity           Mult            ....    1
 Number of Electrons    NEL             ....   30
 Basis Dimension        Dim             ....   24

ORBITAL ENERGIES
----------------

  NO   OCC          E(Eh)            E(eV)
   0   2.0000     -20.369005      -554.2688
   1   2.0000     -11.293129      -307.3017
   2   2.0000     -11.194470      -304.6170
   3   2.0000     -11.189886      -304.4923
   4   2.0000      -1.395530       -37.9743
   5   2.0000      -1.114637       -30.3308
   6   2.0000      -0.909868       -24.7588
   7   2.0000      -0.744893       -20.2696
   8   2.0000      -0.705672       -19.2023
   9   2.0000      -0.626802       -17.0562
  10   2.0000      -0.586576       -15.9615
  11   2.0000      -0.548330       -14.9208
  12   2.0000      -0.507683       -13.8147
  13   2.0000      -0.422411       -11.4944
  14   2.0000      -0.407597       -11.0913
  15   0.0000       0.137557         3.7431
  16   0.0000       0.321649         8.7525
  17   0.0000       0.441952        12.0261
  18   0.0000       0.619791        16.8654
  19   0.0000       0.649917        17.6851

MULLIKEN ATOMIC CHARGES
-----------------------
   0 C :    0.157552
   1 O :   -0.341780
   2 C :   -0.163800
   3 C :   -0.255608
   4 H :    0.139346
   5 H :    0.137848
   6 H :    0.159064
   7 H :    0.167379
Sum of atomic charges:   -0.0000000

LOEWDIN ATOMIC CHARGES
----------------------
   0 C :    0.144943
   1 O :   -0.251182
   2 C :   -0.124436
   3 C :   -0.155595
   4 H :    0.072456
   5 H :    0.092628
   6 H :    0.093257
   7 H :    0.127929

  Mayer bond orders larger than 0.100000
B(  0-C ,  1-O ) :   1.9151 B(  0-C ,  2-C ) :   1.0097 B(  0-C ,  4-H ) :   0.9311
B(  2-C ,  3-C ) :   1.9811 B(  2-C ,  5-H ) :   0.9494 B(  3-C ,  6-H ) :   0.9542
B(  3-C ,  7-H ) :   0.9457

-----------------------------------------------------------------------------
         ABSORPTION SPECTRUM VIA TRANSITION ELECTRIC DIPOLE MOMENTS
-----------------------------------------------------------------------------
State   Energy    Wavelength  fosc         T2        TX        TY        TZ
        (cm-1)      (nm)                 (au**2)    (au)      (au)      (au)
-----------------------------------------------------------------------------
   1   31387.4    318.6   0.000141803   0.00149   0.03698   0.00786  -0.00760

Dispersion correction           -0.026466535
FINAL SINGLE POINT ENERGY      -189.272767758884

DIPOLE MOMENT
-------------
                                X             Y             Z
Electronic contribution:     -1.95832      -1.89099       0.18681
Nuclear contribution   :      2.21703       2.93710      -0.26557
                        -----------------------------------------
Total Dipole Moment    :      0.25871       1.04610      -0.07876
                        -----------------------------------------
Magnitude (a.u.)       :      1.08050
Magnitude (Debye)      :      2.74640

Rotational constants in cm-1:     0.826622     0.210685     0.168218
Rotational constants in MHz : 24781.493752  6316.162725  5043.054099

                             ****ORCA TERMINATED NORMALLY****
TOTAL RUN TIME: 0 days 0 hours 0 minutes 10 seconds 471 msec
