                         Program Version 5.0.3 -  RELEASE  -
|  1> ! HF-3c
|  2> !TightSCF
|  3> %scf
|  4>  ConvForced true
|  5>  convergence tight
|  6>  MaxIter 500
|  7> end
|  8>
|  9> %tddft
| 10>  nroots 1
| 11> end
| 12>
| 13> # 	10471
| 14> * xyz 0 1
| 15> 		C   -1.191014  -0.286144  -0.033642
| 16> 		O   -1.882331  -0.812949  -0.882645
| 17> 		C    0.075503   0.459210  -0.290348
| 18> 		C    1.220839   0.086655   0.217307
| 19> 		H   -1.462665  -0.573138   1.026787
| 20> 		H    0.008995   1.298906  -0.877116
| 21> 		H    1.205207  -0.716896   0.820631
| 22> 		H    2.039510   0.568693   0.041023
| 23> *
| 24>
| 25>                          ****END OF INPUT****

CARTESIAN COORDINATES (ANGSTROEM)
---------------------------------
  C     -1.191014   -0.286144   -0.033642
  O     -1.882331   -0.812949   -0.882645
  C      0.075503    0.459210   -0.290348
  C      1.220839    0.086655    0.217307
  H     -1.462665   -0.573138    1.026787
  H      0.008995    1.298906   -0.877116
  H      1.205207   -0.716896    0.820631
  H      2.039510    0.568693    0.041023

 Total Charge           Charge          ....    0
 Multiplicity           Mult            ....    1
 Number of Electrons    NEL             ....   30
 Basis Dimension        Dim             ....   24

ORBITAL ENERGIES
----------------

  NO   OCC          E(Eh)            E(eV)
   0   2.0000     -20.376832      -554.4818
   1   2.0000     -11.301511      -307.5297
   2   2.0000     -11.211097      -305.0695
   3   2.0000     -11.200624      -304.7845
   4   2.0000      -1.406751       -38.2797
   5   2.0000      -1.111893       -30.2561
   6   2.0000      -0.899755       -24.4836
   7   2.0000      -0.791887       -21.5483
   8   2.0000      -0.701297       -19.0833
   9   2.0000      -0.671213       -18.2646
  10   2.0000      -0.603924       -16.4336
  11   2.0000      -0.579195       -15.7607
  12   2.0000      -0.519037       -14.1237
  13   2.0000      -0.424678       -11.5561
  14   2.0000      -0.415420       -11.3041
  15   0.0000       0.151623         4.1259
  16   0.0000       0.246221         6.7000
  17   0.0000       0.552702        15.0398
  18   0.0000       0.657817        17.9001
  19   0.0000       0.744604        20.2617

MULLIKEN ATOMIC CHARGES
-----------------------
   0 C :    0.168628
   1 O :   -0.339259
   2 C :   -0.153829
   3 C :   -0.273765
   4 H :    0.141769
   5 H :    0.157141
   6 H :    0.147856
   7 H :    0.151460
Sum of atomic charges:    0.0000000

LOEWDIN ATOMIC CHARGES
----------------------
   0 C :    0.147581
   1 O :   -0.245025
   2 C :   -0.097567
   3 C :   -0.163156
   4 H :    0.079658
   5 H :    0.096700
   6 H :    0.091252
   7 H :    0.090558

  Mayer bond orders larger than 0.100000
B(  0-C ,  1-O ) :   1.9395 B(  0-C ,  2-C ) :   0.9956 B(  0-C ,  4-H ) :   0.9215
B(  2-C ,  3-C ) :   1.9845 B(  2-C ,  5-H ) :   0.9539 B(  3-C ,  6-H ) :   0.9651
B(  3-C ,  7-H ) :   0.9651

-----------------------------------------------------------------------------
         ABSORPTION SPECTRUM VIA TRANSITION ELECTRIC DIPOLE MOMENTS
-----------------------------------------------------------------------------
State   Energy    Wavelength  fosc         T2        TX        TY        TZ
        (cm-1)      (nm)                 (au**2)    (au)      (au)      (au)
-----------------------------------------------------------------------------
   1   33081.5    302.3   0.000140877   0.00140   0.01958   0.01866  -0.02589

Dispersion correction           -0.025727819
FINAL SINGLE POINT ENERGY      -189.313999862261

DIPOLE MOMENT
-------------
                                X             Y             Z
Electronic contribution:     -2.85845      -0.75913      -1.25819
Nuclear contribution   :      3.46990       1.15511       1.90231
                        -----------------------------------------
Total Dipole Moment    :      0.61145       0.39598       0.64412
                        -----------------------------------------
Magnitude (a.u.)       :      0.97240
Magnitude (Debye)      :      2.47164

Rotational constants in cm-1:     1.270306     0.158582     0.153046
Rotational constants in MHz : 38082.827479  4754.161415  4588.216109

                             ****ORCA TERMINATED NORMALLY****
TOTAL RUN TIME: 0 days 0 hours 0 minutes 14 seconds 712 msec
