                         Program Version 5.0.3 -  RELEASE  -
|  1> ! B3LYP cc-pVDZ
|  2> !TightSCF
|  3> %scf
|  4>  ConvForced true
|  5>  convergence tight
|  6>  MaxIter 500
|  7> end
|  8>
|  9> %tddft
| 10>  nroots 1
| 11> end
| 12>
| 13> # 	19993
| 14> * xyz 0 1
| 15> 		C   -1.256405  -0.314506   0.101412
| 16> 		O   -1.652330  -0.968348   0.926713
| 17> 		C   -0.009529   0.501780   0.094667
| 18> 		C    1.182159  -0.026703  -0.189894
| 19> 		H   -1.843090  -0.246926  -0.860368
| 20> 		H    0.002751   1.541003   0.543099
| 21> 		H    1.320312  -1.101659  -0.515615
| 22> 		H    2.203592   0.555146  -0.122863
| 23> *
| 24>
| 25>                          ****END OF INPUT****

CARTESIAN COORDINATES (ANGSTROEM)
---------------------------------
  C     -1.256405   -0.314506    0.101412
  O     -1.652330   -0.968348    0.926713
  C     -0.009529    0.501780    0.094667
  C      1.182159   -0.026703   -0.189894
  H     -1.843090   -0.246926   -0.860368
  H      0.002751    1.541003    0.543099
  H      1.320312   -1.101659   -0.515615
  H      2.203592    0.555146   -0.122863

 Total Charge           Charge          ....    0
 Multiplicity           Mult            ....    1
 Number of Electrons    NEL             ....   30
 Basis Dimension        Dim             ....   76

ORBITAL ENERGIES
----------------

  NO   OCC          E(Eh)            E(eV)
   0   2.0000     -19.147146      -521.0203
   1   2.0000     -10.277590      -279.6674
   2   2.0000     -10.214300      -277.9452
   3   2.0000     -10.206056      -277.7209
   4   2.0000      -1.105190       -30.0737
   5   2.0000      -0.789835       -21.4925
   6   2.0000      -0.638751       -17.3813
   7   2.0000      -0.550161       -14.9707
   8   2.0000      -0.497878       -13.5479
   9   2.0000      -0.465620       -12.6702
  10   2.0000      -0.454369       -12.3640
  11   2.0000      -0.404452       -11.0057
  12   2.0000      -0.373782       -10.1711
  13   2.0000      -0.285304        -7.7635
  14   2.0000      -0.253957        -6.9105
  15   0.0000      -0.016676        -0.4538
  16   0.0000      -0.008429        -0.2294
  17   0.0000       0.077197         2.1006
  18   0.0000       0.088745         2.4149
  19   0.0000       0.101872         2.7721

MULLIKEN ATOMIC CHARGES
-----------------------
   0 C :    0.164259
   1 O :   -0.097376
   2 C :   -0.104548
   3 C :   -0.037335
   4 H :   -0.039492
   5 H :    0.033915
   6 H :    0.032905
   7 H :    0.047671
Sum of atomic charges:    0.0000000

LOEWDIN ATOMIC CHARGES
----------------------
   0 C :   -0.081185
   1 O :    0.099790
   2 C :   -0.078052
   3 C :   -0.043673
   4 H :   -0.019673
   5 H :    0.048040
   6 H :    0.030627
   7 H :    0.044126

  Mayer bond orders larger than 0.100000
B(  0-C ,  1-O ) :   2.3408 B(  0-C ,  2-C ) :   0.9451 B(  0-C ,  4-H ) :   0.8989
B(  2-C ,  3-C ) :   2.0406 B(  2-C ,  5-H ) :   0.9273 B(  3-C ,  6-H ) :   0.9485
B(  3-C ,  7-H ) :   0.9440

-----------------------------------------------------------------------------
         ABSORPTION SPECTRUM VIA TRANSITION ELECTRIC DIPOLE MOMENTS
-----------------------------------------------------------------------------
State   Energy    Wavelength  fosc         T2        TX        TY        TZ
        (cm-1)      (nm)                 (au**2)    (au)      (au)      (au)
-----------------------------------------------------------------------------
   1   37227.4    268.6   0.000103390   0.00091  -0.02903   0.00651   0.00539

FINAL SINGLE POINT ENERGY      -191.607679545552

DIPOLE MOMENT
-------------
                                X             Y             Z
Electronic contribution:     -2.83477      -1.09472       1.41852
Nuclear contribution   :      3.28509       1.54789      -1.81954
                        -----------------------------------------
Total Dipole Moment    :      0.45032       0.45316      -0.40102
                        -----------------------------------------
Magnitude (a.u.)       :      0.75430
Magnitude (Debye)      :      1.91727

Rotational constants in cm-1:     1.002612     0.171034     0.160417
Rotational constants in MHz : 30057.550204  5127.464885  4809.168696

                             ****ORCA TERMINATED NORMALLY****
TOTAL RUN TIME: 0 days 0 hours 3 minutes 21 seconds 186 msec
