                         Program Version 5.0.3 -  RELEASE  -
|  1> ! HF-3c
|  2> !TightSCF
|  3> %scf
|  4>  ConvForced true
|  5>  convergence tight
|  6>  MaxIter 500
|  7> end
|  8>
|  9> %tddft
| 10>  nroots 1
| 11> end
| 12>
| 13> # 	30982
| 14> * xyz 0 1
| 15> 		C   -0.617176  -0.473709  -0.024328
| 16> 		O   -0.569325  -1.644736  -0.001618
| 17> 		C    0.624119   0.487384   0.013908
| 18> 		C    1.872575  -0.157557   0.012953
| 19> 		H   -1.530473   0.270812   0.103173
| 20> 		H    0.328492   1.527238   0.004873
| 21> 		H    2.058958  -1.161754   0.115279
| 22> 		H    2.724541   0.471119  -0.243782
| 23> *
| 24>
| 25>                          ****END OF INPUT****

CARTESIAN COORDINATES (ANGSTROEM)
---------------------------------
  C     -0.617176   -0.473709   -0.024328
  O     -0.569325   -1.644736   -0.001618
  C      0.624119    0.487384    0.013908
  C      1.872575   -0.157557    0.012953
  H     -1.530473    0.270812    0.103173
  H      0.328492    1.527238    0.004873
  H      2.058958   -1.161754    0.115279
  H      2.724541    0.471119   -0.243782

 Total Charge           Charge          ....    0
 Multiplicity           Mult            ....    1
 Number of Electrons    NEL             ....   30
 Basis Dimension        Dim             ....   24

ORBITAL ENERGIES
----------------

  NO   OCC          E(Eh)            E(eV)
   0   2.0000     -20.382381      -554.6328
   1   2.0000     -11.299101      -307.4642
   2   2.0000     -11.184553      -304.3471
   3   2.0000     -11.174424      -304.0715
   4   2.0000      -1.428582       -38.8737
   5   2.0000      -1.045032       -28.4368
   6   2.0000      -0.878576       -23.9073
   7   2.0000      -0.740740       -20.1566
   8   2.0000      -0.684779       -18.6338
   9   2.0000      -0.624838       -17.0027
  10   2.0000      -0.584584       -15.9073
  11   2.0000      -0.555883       -15.1264
  12   2.0000      -0.548598       -14.9281
  13   2.0000      -0.391493       -10.6531
  14   2.0000      -0.370093       -10.0707
  15   0.0000       0.133710         3.6384
  16   0.0000       0.290290         7.8992
  17   0.0000       0.515207        14.0195
  18   0.0000       0.584308        15.8998
  19   0.0000       0.601978        16.3806

MULLIKEN ATOMIC CHARGES
-----------------------
   0 C :    0.200110
   1 O :   -0.367774
   2 C :   -0.162008
   3 C :   -0.229312
   4 H :    0.124817
   5 H :    0.138927
   6 H :    0.155726
   7 H :    0.139514
Sum of atomic charges:    0.0000000

LOEWDIN ATOMIC CHARGES
----------------------
   0 C :    0.160089
   1 O :   -0.255159
   2 C :   -0.124912
   3 C :   -0.124185
   4 H :    0.067746
   5 H :    0.088327
   6 H :    0.097339
   7 H :    0.090755

  Mayer bond orders larger than 0.100000
B(  0-C ,  1-O ) :   1.9386 B(  0-C ,  2-C ) :   0.9795 B(  0-C ,  4-H ) :   0.9057
B(  2-C ,  3-C ) :   1.9536 B(  2-C ,  5-H ) :   0.9664 B(  3-C ,  6-H ) :   0.9648
B(  3-C ,  7-H ) :   0.9681

-----------------------------------------------------------------------------
         ABSORPTION SPECTRUM VIA TRANSITION ELECTRIC DIPOLE MOMENTS
-----------------------------------------------------------------------------
State   Energy    Wavelength  fosc         T2        TX        TY        TZ
        (cm-1)      (nm)                 (au**2)    (au)      (au)      (au)
-----------------------------------------------------------------------------
   1   34229.1    292.1   0.000077676   0.00075  -0.02660  -0.00507  -0.00370

Dispersion correction           -0.025148254
FINAL SINGLE POINT ENERGY      -189.306237775869

DIPOLE MOMENT
-------------
                                X             Y             Z
Electronic contribution:     -1.99720      -1.86149      -0.01017
Nuclear contribution   :      2.20414       2.82405      -0.01814
                        -----------------------------------------
Total Dipole Moment    :      0.20694       0.96256      -0.02831
                        -----------------------------------------
Magnitude (a.u.)       :      0.98496
Magnitude (Debye)      :      2.50357

Rotational constants in cm-1:     0.694898     0.206295     0.159358
Rotational constants in MHz : 20832.507554  6184.553861  4777.443095

                             ****ORCA TERMINATED NORMALLY****
TOTAL RUN TIME: 0 days 0 hours 0 minutes 14 seconds 823 msec
