                         Program Version 5.0.3 -  RELEASE  -
|  1> ! B3LYP cc-pVDZ
|  2> !TightSCF
|  3> %scf
|  4>  ConvForced true
|  5>  convergence tight
|  6>  MaxIter 500
|  7> end
|  8>
|  9> %tddft
| 10>  nroots 1
| 11> end
| 12>
| 13> # 	29045
| 14> * xyz 0 1
| 15> 		C   -0.603165  -0.414881   0.032982
| 16> 		O   -0.522581  -1.644356  -0.021066
| 17> 		C    0.624582   0.476774  -0.051999
| 18> 		C    1.806395  -0.173148   0.028478
| 19> 		H   -1.553387   0.068426   0.225505
| 20> 		H    0.484151   1.662269  -0.077827
| 21> 		H    1.754531  -1.383403   0.009585
| 22> 		H    2.804629   0.328007   0.060309
| 23> *
| 24>
| 25>                          ****END OF INPUT****

CARTESIAN COORDINATES (ANGSTROEM)
---------------------------------
  C     -0.603165   -0.414881    0.032982
  O     -0.522581   -1.644356   -0.021066
  C      0.624582    0.476774   -0.051999
  C      1.806395   -0.173148    0.028478
  H     -1.553387    0.068426    0.225505
  H      0.484151    1.662269   -0.077827
  H      1.754531   -1.383403    0.009585
  H      2.804629    0.328007    0.060309

 Total Charge           Charge          ....    0
 Multiplicity           Mult            ....    1
 Number of Electrons    NEL             ....   30
 Basis Dimension        Dim             ....   76

ORBITAL ENERGIES
----------------

  NO   OCC          E(Eh)            E(eV)
   0   2.0000     -19.139206      -520.8043
   1   2.0000     -10.278438      -279.6905
   2   2.0000     -10.222508      -278.1686
   3   2.0000     -10.216638      -278.0088
   4   2.0000      -1.035342       -28.1731
   5   2.0000      -0.781796       -21.2738
   6   2.0000      -0.645696       -17.5703
   7   2.0000      -0.536115       -14.5884
   8   2.0000      -0.494190       -13.4476
   9   2.0000      -0.438857       -11.9419
  10   2.0000      -0.420732       -11.4487
  11   2.0000      -0.390254       -10.6193
  12   2.0000      -0.363838        -9.9005
  13   2.0000      -0.282809        -7.6956
  14   2.0000      -0.258721        -7.0401
  15   0.0000      -0.068827        -1.8729
  16   0.0000       0.047376         1.2892
  17   0.0000       0.060739         1.6528
  18   0.0000       0.081477         2.2171
  19   0.0000       0.111735         3.0405

MULLIKEN ATOMIC CHARGES
-----------------------
   0 C :    0.214682
   1 O :   -0.214926
   2 C :   -0.158904
   3 C :    0.019569
   4 H :   -0.008916
   5 H :    0.026771
   6 H :    0.079444
   7 H :    0.042280
Sum of atomic charges:   -0.0000000

LOEWDIN ATOMIC CHARGES
----------------------
   0 C :   -0.007135
   1 O :   -0.027547
   2 C :   -0.100683
   3 C :    0.003886
   4 H :   -0.004194
   5 H :    0.043794
   6 H :    0.059470
   7 H :    0.032409

  Mayer bond orders larger than 0.100000
B(  0-C ,  1-O ) :   2.1442 B(  0-C ,  2-C ) :   1.0296 B(  0-C ,  4-H ) :   0.9297
B(  2-C ,  3-C ) :   1.9468 B(  2-C ,  5-H ) :   0.9399 B(  3-C ,  6-H ) :   0.9127
B(  3-C ,  7-H ) :   0.9453

-----------------------------------------------------------------------------
         ABSORPTION SPECTRUM VIA TRANSITION ELECTRIC DIPOLE MOMENTS
-----------------------------------------------------------------------------
State   Energy    Wavelength  fosc         T2        TX        TY        TZ
        (cm-1)      (nm)                 (au**2)    (au)      (au)      (au)
-----------------------------------------------------------------------------
   1   28444.1    351.6   0.000091577   0.00106  -0.00099  -0.00479  -0.03219

FINAL SINGLE POINT ENERGY      -191.663966690462

DIPOLE MOMENT
-------------
                                X             Y             Z
Electronic contribution:     -1.83647      -1.53292      -0.14678
Nuclear contribution   :      2.11658       2.42118       0.20408
                        -----------------------------------------
Total Dipole Moment    :      0.28011       0.88826       0.05730
                        -----------------------------------------
Magnitude (a.u.)       :      0.93314
Magnitude (Debye)      :      2.37186

Rotational constants in cm-1:     0.683584     0.219049     0.166294
Rotational constants in MHz : 20493.319808  6566.910999  4985.372510

                             ****ORCA TERMINATED NORMALLY****
TOTAL RUN TIME: 0 days 0 hours 3 minutes 14 seconds 972 msec
