                         Program Version 5.0.3 -  RELEASE  -
|  1> ! HF-3c
|  2> !TightSCF
|  3> %scf
|  4>  ConvForced true
|  5>  convergence tight
|  6>  MaxIter 500
|  7> end
|  8>
|  9> %tddft
| 10>  nroots 1
| 11> end
| 12>
| 13> # 	6882
| 14> * xyz 0 1
| 15> 		C   -1.178369  -0.314509  -0.020083
| 16> 		O   -1.168251  -1.457744  -0.204032
| 17> 		C    0.040836   0.548308  -0.057598
| 18> 		C    1.238957  -0.032167   0.061159
| 19> 		H   -2.204381   0.172517   0.112022
| 20> 		H   -0.078515   1.617751   0.044011
| 21> 		H    1.199913  -1.168154  -0.074361
| 22> 		H    2.111052   0.644715   0.155463
| 23> *
| 24>
| 25>                          ****END OF INPUT****

CARTESIAN COORDINATES (ANGSTROEM)
---------------------------------
  C     -1.178369   -0.314509   -0.020083
  O     -1.168251   -1.457744   -0.204032
  C      0.040836    0.548308   -0.057598
  C      1.238957   -0.032167    0.061159
  H     -2.204381    0.172517    0.112022
  H     -0.078515    1.617751    0.044011
  H      1.199913   -1.168154   -0.074361
  H      2.111052    0.644715    0.155463

 Total Charge           Charge          ....    0
 Multiplicity           Mult            ....    1
 Number of Electrons    NEL             ....   30
 Basis Dimension        Dim             ....   24

ORBITAL ENERGIES
----------------

  NO   OCC          E(Eh)            E(eV)
   0   2.0000     -20.372888      -554.3745
   1   2.0000     -11.304221      -307.6035
   2   2.0000     -11.184774      -304.3532
   3   2.0000     -11.176760      -304.1351
   4   2.0000      -1.441548       -39.2265
   5   2.0000      -1.073917       -29.2228
   6   2.0000      -0.871489       -23.7144
   7   2.0000      -0.734947       -19.9989
   8   2.0000      -0.712988       -19.4014
   9   2.0000      -0.610460       -16.6115
  10   2.0000      -0.593812       -16.1585
  11   2.0000      -0.561967       -15.2919
  12   2.0000      -0.529143       -14.3987
  13   2.0000      -0.404302       -11.0016
  14   2.0000      -0.393567       -10.7095
  15   0.0000       0.147019         4.0006
  16   0.0000       0.315473         8.5845
  17   0.0000       0.542912        14.7734
  18   0.0000       0.562996        15.3199
  19   0.0000       0.642013        17.4701

MULLIKEN ATOMIC CHARGES
-----------------------
   0 C :    0.184306
   1 O :   -0.373016
   2 C :   -0.184059
   3 C :   -0.216680
   4 H :    0.131000
   5 H :    0.137745
   6 H :    0.169994
   7 H :    0.150710
Sum of atomic charges:    0.0000000

LOEWDIN ATOMIC CHARGES
----------------------
   0 C :    0.148789
   1 O :   -0.260232
   2 C :   -0.144217
   3 C :   -0.120545
   4 H :    0.069367
   5 H :    0.086485
   6 H :    0.119031
   7 H :    0.101322

  Mayer bond orders larger than 0.100000
B(  0-C ,  1-O ) :   1.9147 B(  0-C ,  2-C ) :   1.0049 B(  0-C ,  4-H ) :   0.9164
B(  2-C ,  3-C ) :   1.9504 B(  2-C ,  5-H ) :   0.9621 B(  3-C ,  6-H ) :   0.9507
B(  3-C ,  7-H ) :   0.9626

-----------------------------------------------------------------------------
         ABSORPTION SPECTRUM VIA TRANSITION ELECTRIC DIPOLE MOMENTS
-----------------------------------------------------------------------------
State   Energy    Wavelength  fosc         T2        TX        TY        TZ
        (cm-1)      (nm)                 (au**2)    (au)      (au)      (au)
-----------------------------------------------------------------------------
   1   36106.5    277.0   0.000322093   0.00294   0.05156   0.00008   0.01669

Dispersion correction           -0.026056139
FINAL SINGLE POINT ENERGY      -189.316144243271

DIPOLE MOMENT
-------------
                                X             Y             Z
Electronic contribution:     -1.74421      -1.63627      -0.26712
Nuclear contribution   :      2.05175       2.48566       0.43609
                        -----------------------------------------
Total Dipole Moment    :      0.30754       0.84938       0.16897
                        -----------------------------------------
Magnitude (a.u.)       :      0.91901
Magnitude (Debye)      :      2.33595

Rotational constants in cm-1:     0.784866     0.214070     0.168898
Rotational constants in MHz : 23529.681696  6417.667833  5063.431046

                             ****ORCA TERMINATED NORMALLY****
TOTAL RUN TIME: 0 days 0 hours 0 minutes 12 seconds 120 msec
