                         Program Version 5.0.3 -  RELEASE  -
|  1> ! B3LYP cc-pVDZ
|  2> !TightSCF
|  3> %scf
|  4>  ConvForced true
|  5>  convergence tight
|  6>  MaxIter 500
|  7> end
|  8>
|  9> %tddft
| 10>  nroots 1
| 11> end
| 12>
| 13> # 	13019
| 14> * xyz 0 1
| 15> 		C   -1.139362  -0.367248  -0.076747
| 16> 		O   -2.237079  -0.169994  -0.686063
| 17> 		C    0.104743   0.369820  -0.394519
| 18> 		C    1.157429   0.078549   0.343887
| 19> 		H   -1.089858  -1.123945   0.747247
| 20> 		H    0.055007   1.019639  -1.272844
| 21> 		H    1.250706  -0.602155   1.029235
| 22> 		H    1.911077   0.780472   0.264765
| 23> *
| 24>
| 25>                          ****END OF INPUT****

CARTESIAN COORDINATES (ANGSTROEM)
---------------------------------
  C     -1.139362   -0.367248   -0.076747
  O     -2.237079   -0.169994   -0.686063
  C      0.104743    0.369820   -0.394519
  C      1.157429    0.078549    0.343887
  H     -1.089858   -1.123945    0.747247
  H      0.055007    1.019639   -1.272844
  H      1.250706   -0.602155    1.029235
  H      1.911077    0.780472    0.264765

 Total Charge           Charge          ....    0
 Multiplicity           Mult            ....    1
 Number of Electrons    NEL             ....   30
 Basis Dimension        Dim             ....   76

ORBITAL ENERGIES
----------------

  NO   OCC          E(Eh)            E(eV)
   0   2.0000     -19.134528      -520.6770
   1   2.0000     -10.275513      -279.6109
   2   2.0000     -10.212072      -277.8846
   3   2.0000     -10.203076      -277.6398
   4   2.0000      -1.009640       -27.4737
   5   2.0000      -0.817278       -22.2393
   6   2.0000      -0.657068       -17.8797
   7   2.0000      -0.580607       -15.7991
   8   2.0000      -0.489465       -13.3190
   9   2.0000      -0.473812       -12.8931
  10   2.0000      -0.414560       -11.2808
  11   2.0000      -0.398141       -10.8340
  12   2.0000      -0.378491       -10.2993
  13   2.0000      -0.292741        -7.9659
  14   2.0000      -0.251027        -6.8308
  15   0.0000      -0.070901        -1.9293
  16   0.0000       0.039038         1.0623
  17   0.0000       0.078582         2.1383
  18   0.0000       0.081416         2.2155
  19   0.0000       0.124703         3.3933

MULLIKEN ATOMIC CHARGES
-----------------------
   0 C :    0.172944
   1 O :   -0.247324
   2 C :   -0.092277
   3 C :    0.180331
   4 H :   -0.010668
   5 H :    0.009625
   6 H :   -0.024016
   7 H :    0.011385
Sum of atomic charges:    0.0000000

LOEWDIN ATOMIC CHARGES
----------------------
   0 C :   -0.003684
   1 O :   -0.062651
   2 C :   -0.036759
   3 C :    0.039543
   4 H :    0.001422
   5 H :    0.038979
   6 H :   -0.003823
   7 H :    0.026973

  Mayer bond orders larger than 0.100000
B(  0-C ,  1-O ) :   2.0870 B(  0-C ,  2-C ) :   1.1023 B(  0-C ,  4-H ) :   0.9277
B(  1-O ,  3-C ) :   0.1009 B(  2-C ,  3-C ) :   1.9217 B(  2-C ,  5-H ) :   0.9496
B(  3-C ,  6-H ) :   0.9472 B(  3-C ,  7-H ) :   0.9328

-----------------------------------------------------------------------------
         ABSORPTION SPECTRUM VIA TRANSITION ELECTRIC DIPOLE MOMENTS
-----------------------------------------------------------------------------
State   Energy    Wavelength  fosc         T2        TX        TY        TZ
        (cm-1)      (nm)                 (au**2)    (au)      (au)      (au)
-----------------------------------------------------------------------------
   1   26423.7    378.4   0.000140114   0.00175  -0.03472   0.02318  -0.00173

FINAL SINGLE POINT ENERGY      -191.664017360243

DIPOLE MOMENT
-------------
                                X             Y             Z
Electronic contribution:     -2.93735      -0.17721      -1.04067
Nuclear contribution   :      4.12431       0.17920       1.49912
                        -----------------------------------------
Total Dipole Moment    :      1.18696       0.00199       0.45845
                        -----------------------------------------
Magnitude (a.u.)       :      1.27242
Magnitude (Debye)      :      3.23425

Rotational constants in cm-1:     1.526618     0.156463     0.142122
Rotational constants in MHz : 45766.847558  4690.643784  4260.719301

                             ****ORCA TERMINATED NORMALLY****
TOTAL RUN TIME: 0 days 0 hours 2 minutes 55 seconds 750 msec
