                         Program Version 5.0.3 -  RELEASE  -
|  1> ! B3LYP cc-pVDZ
|  2> !TightSCF
|  3> %scf
|  4>  ConvForced true
|  5>  convergence tight
|  6>  MaxIter 500
|  7> end
|  8>
|  9> %tddft
| 10>  nroots 1
| 11> end
| 12>
| 13> # 	26738
| 14> * xyz 0 1
| 15> 		C   -0.592988  -0.425108   0.008776
| 16> 		O   -0.562576  -1.589717   0.000236
| 17> 		C    0.595431   0.374880  -0.112538
| 18> 		C    1.868897  -0.136182   0.034294
| 19> 		H   -1.484243   0.023700   0.334682
| 20> 		H    0.338231   1.458503   0.329089
| 21> 		H    1.829510  -1.206166  -0.016677
| 22> 		H    2.853483   0.414136   0.196752
| 23> *
| 24>
| 25>                          ****END OF INPUT****

CARTESIAN COORDINATES (ANGSTROEM)
---------------------------------
  C     -0.592988   -0.425108    0.008776
  O     -0.562576   -1.589717    0.000236
  C      0.595431    0.374880   -0.112538
  C      1.868897   -0.136182    0.034294
  H     -1.484243    0.023700    0.334682
  H      0.338231    1.458503    0.329089
  H      1.829510   -1.206166   -0.016677
  H      2.853483    0.414136    0.196752

 Total Charge           Charge          ....    0
 Multiplicity           Mult            ....    1
 Number of Electrons    NEL             ....   30
 Basis Dimension        Dim             ....   76

ORBITAL ENERGIES
----------------

  NO   OCC          E(Eh)            E(eV)
   0   2.0000     -19.130692      -520.5726
   1   2.0000     -10.261141      -279.2198
   2   2.0000     -10.224557      -278.2243
   3   2.0000     -10.210737      -277.8483
   4   2.0000      -1.071824       -29.1658
   5   2.0000      -0.787799       -21.4371
   6   2.0000      -0.662579       -18.0297
   7   2.0000      -0.546159       -14.8617
   8   2.0000      -0.498207       -13.5569
   9   2.0000      -0.447491       -12.1768
  10   2.0000      -0.437886       -11.9155
  11   2.0000      -0.412617       -11.2279
  12   2.0000      -0.361946        -9.8491
  13   2.0000      -0.283078        -7.7030
  14   2.0000      -0.252882        -6.8813
  15   0.0000      -0.073271        -1.9938
  16   0.0000       0.052410         1.4261
  17   0.0000       0.058721         1.5979
  18   0.0000       0.090684         2.4676
  19   0.0000       0.135408         3.6846

MULLIKEN ATOMIC CHARGES
-----------------------
   0 C :    0.200788
   1 O :   -0.164512
   2 C :   -0.156195
   3 C :    0.049153
   4 H :   -0.042636
   5 H :    0.012944
   6 H :    0.038258
   7 H :    0.062201
Sum of atomic charges:   -0.0000000

LOEWDIN ATOMIC CHARGES
----------------------
   0 C :   -0.079410
   1 O :    0.039188
   2 C :   -0.093635
   3 C :    0.033052
   4 H :   -0.010603
   5 H :    0.038921
   6 H :    0.026000
   7 H :    0.046487

  Mayer bond orders larger than 0.100000
B(  0-C ,  1-O ) :   2.2134 B(  0-C ,  2-C ) :   1.0690 B(  0-C ,  4-H ) :   0.9303
B(  2-C ,  3-C ) :   1.9245 B(  2-C ,  5-H ) :   0.9310 B(  3-C ,  6-H ) :   0.9290
B(  3-C ,  7-H ) :   0.9516

-----------------------------------------------------------------------------
         ABSORPTION SPECTRUM VIA TRANSITION ELECTRIC DIPOLE MOMENTS
-----------------------------------------------------------------------------
State   Energy    Wavelength  fosc         T2        TX        TY        TZ
        (cm-1)      (nm)                 (au**2)    (au)      (au)      (au)
-----------------------------------------------------------------------------
   1   27420.7    364.7   0.001679745   0.02017   0.12822   0.05353   0.02934

FINAL SINGLE POINT ENERGY      -191.649351427138

DIPOLE MOMENT
-------------
                                X             Y             Z
Electronic contribution:     -1.78603      -1.70670      -0.62655
Nuclear contribution   :      2.16482       2.43686       0.79034
                        -----------------------------------------
Total Dipole Moment    :      0.37879       0.73016       0.16378
                        -----------------------------------------
Magnitude (a.u.)       :      0.83871
Magnitude (Debye)      :      2.13183

Rotational constants in cm-1:     0.777589     0.214122     0.169336
Rotational constants in MHz : 23311.524031  6419.202658  5076.551121

                             ****ORCA TERMINATED NORMALLY****
TOTAL RUN TIME: 0 days 0 hours 3 minutes 26 seconds 821 msec
