                         Program Version 5.0.3 -  RELEASE  -
|  1> ! HF-3c
|  2> !TightSCF
|  3> %scf
|  4>  ConvForced true
|  5>  convergence tight
|  6>  MaxIter 500
|  7> end
|  8>
|  9> %tddft
| 10>  nroots 1
| 11> end
| 12>
| 13> # 	11034
| 14> * xyz 0 1
| 15> 		C   -1.134220  -0.324933  -0.056816
| 16> 		O   -1.994071  -0.511182  -0.893767
| 17> 		C    0.062918   0.516075  -0.245841
| 18> 		C    1.233133   0.072339   0.202514
| 19> 		H   -1.303466  -0.836028   0.902480
| 20> 		H   -0.087219   1.267779  -0.814799
| 21> 		H    1.269429  -0.779966   0.840313
| 22> 		H    1.941940   0.613494   0.029618
| 23> *
| 24>
| 25>                          ****END OF INPUT****

CARTESIAN COORDINATES (ANGSTROEM)
---------------------------------
  C     -1.134220   -0.324933   -0.056816
  O     -1.994071   -0.511182   -0.893767
  C      0.062918    0.516075   -0.245841
  C      1.233133    0.072339    0.202514
  H     -1.303466   -0.836028    0.902480
  H     -0.087219    1.267779   -0.814799
  H      1.269429   -0.779966    0.840313
  H      1.941940    0.613494    0.029618

 Total Charge           Charge          ....    0
 Multiplicity           Mult            ....    1
 Number of Electrons    NEL             ....   30
 Basis Dimension        Dim             ....   24

ORBITAL ENERGIES
----------------

  NO   OCC          E(Eh)            E(eV)
   0   2.0000     -20.369712      -554.2881
   1   2.0000     -11.297817      -307.4292
   2   2.0000     -11.214122      -305.1518
   3   2.0000     -11.210944      -305.0653
   4   2.0000      -1.404485       -38.2180
   5   2.0000      -1.117226       -30.4013
   6   2.0000      -0.911874       -24.8134
   7   2.0000      -0.807914       -21.9845
   8   2.0000      -0.703637       -19.1469
   9   2.0000      -0.671154       -18.2630
  10   2.0000      -0.606946       -16.5158
  11   2.0000      -0.584631       -15.9086
  12   2.0000      -0.530108       -14.4250
  13   2.0000      -0.419807       -11.4235
  14   2.0000      -0.415056       -11.2942
  15   0.0000       0.132910         3.6167
  16   0.0000       0.265379         7.2213
  17   0.0000       0.572131        15.5685
  18   0.0000       0.667571        18.1655
  19   0.0000       0.735898        20.0248

MULLIKEN ATOMIC CHARGES
-----------------------
   0 C :    0.167160
   1 O :   -0.344974
   2 C :   -0.165699
   3 C :   -0.261405
   4 H :    0.138589
   5 H :    0.158441
   6 H :    0.159123
   7 H :    0.148765
Sum of atomic charges:    0.0000000

LOEWDIN ATOMIC CHARGES
----------------------
   0 C :    0.148062
   1 O :   -0.251811
   2 C :   -0.103397
   3 C :   -0.146730
   4 H :    0.074271
   5 H :    0.091005
   6 H :    0.105207
   7 H :    0.083392

  Mayer bond orders larger than 0.100000
B(  0-C ,  1-O ) :   1.9210 B(  0-C ,  2-C ) :   1.0134 B(  0-C ,  4-H ) :   0.9278
B(  2-C ,  3-C ) :   1.9611 B(  2-C ,  5-H ) :   0.9591 B(  3-C ,  6-H ) :   0.9627
B(  3-C ,  7-H ) :   0.9685

-----------------------------------------------------------------------------
         ABSORPTION SPECTRUM VIA TRANSITION ELECTRIC DIPOLE MOMENTS
-----------------------------------------------------------------------------
State   Energy    Wavelength  fosc         T2        TX        TY        TZ
        (cm-1)      (nm)                 (au**2)    (au)      (au)      (au)
-----------------------------------------------------------------------------
   1   32815.1    304.7   0.000064094   0.00064   0.02381  -0.00598   0.00635

Dispersion correction           -0.026143828
FINAL SINGLE POINT ENERGY      -189.285674062032

DIPOLE MOMENT
-------------
                                X             Y             Z
Electronic contribution:     -2.79804      -0.44188      -1.19265
Nuclear contribution   :      3.56857       0.56027       1.86207
                        -----------------------------------------
Total Dipole Moment    :      0.77053       0.11839       0.66942
                        -----------------------------------------
Magnitude (a.u.)       :      1.02755
Magnitude (Debye)      :      2.61182

Rotational constants in cm-1:     1.397876     0.160533     0.150568
Rotational constants in MHz : 41907.276184  4812.652918  4513.913853

                             ****ORCA TERMINATED NORMALLY****
TOTAL RUN TIME: 0 days 0 hours 0 minutes 16 seconds 57 msec
