                         Program Version 5.0.3 -  RELEASE  -
|  1> ! B3LYP cc-pVDZ
|  2> !TightSCF
|  3> %scf
|  4>  ConvForced true
|  5>  convergence tight
|  6>  MaxIter 500
|  7> end
|  8>
|  9> %tddft
| 10>  nroots 1
| 11> end
| 12>
| 13> # 	7511
| 14> * xyz 0 1
| 15> 		C   -1.175175  -0.384919  -0.103607
| 16> 		O   -1.633141  -1.150867  -0.840643
| 17> 		C    0.007318   0.412948  -0.263442
| 18> 		C    1.208668   0.013339   0.185895
| 19> 		H   -1.568499  -0.159144   1.041157
| 20> 		H   -0.081689   1.385362  -0.772318
| 21> 		H    1.254713  -0.884842   0.721846
| 22> 		H    2.018557   0.748389  -0.011974
| 23> *
| 24>
| 25>                          ****END OF INPUT****

CARTESIAN COORDINATES (ANGSTROEM)
---------------------------------
  C     -1.175175   -0.384919   -0.103607
  O     -1.633141   -1.150867   -0.840643
  C      0.007318    0.412948   -0.263442
  C      1.208668    0.013339    0.185895
  H     -1.568499   -0.159144    1.041157
  H     -0.081689    1.385362   -0.772318
  H      1.254713   -0.884842    0.721846
  H      2.018557    0.748389   -0.011974

 Total Charge           Charge          ....    0
 Multiplicity           Mult            ....    1
 Number of Electrons    NEL             ....   30
 Basis Dimension        Dim             ....   76

ORBITAL ENERGIES
----------------

  NO   OCC          E(Eh)            E(eV)
   0   2.0000     -19.154180      -521.2117
   1   2.0000     -10.285664      -279.8872
   2   2.0000     -10.203515      -277.6518
   3   2.0000     -10.202745      -277.6308
   4   2.0000      -1.088670       -29.6242
   5   2.0000      -0.804368       -21.8880
   6   2.0000      -0.654533       -17.8107
   7   2.0000      -0.550015       -14.9667
   8   2.0000      -0.494330       -13.4514
   9   2.0000      -0.466430       -12.6922
  10   2.0000      -0.449271       -12.2253
  11   2.0000      -0.408724       -11.1219
  12   2.0000      -0.387890       -10.5550
  13   2.0000      -0.285012        -7.7556
  14   2.0000      -0.255531        -6.9533
  15   0.0000      -0.029462        -0.8017
  16   0.0000      -0.007657        -0.2084
  17   0.0000       0.078820         2.1448
  18   0.0000       0.087621         2.3843
  19   0.0000       0.103526         2.8171

MULLIKEN ATOMIC CHARGES
-----------------------
   0 C :    0.138303
   1 O :   -0.121050
   2 C :   -0.098771
   3 C :    0.059003
   4 H :   -0.033526
   5 H :    0.019405
   6 H :    0.001613
   7 H :    0.035022
Sum of atomic charges:    0.0000000

LOEWDIN ATOMIC CHARGES
----------------------
   0 C :   -0.073876
   1 O :    0.072537
   2 C :   -0.059400
   3 C :   -0.022587
   4 H :   -0.015091
   5 H :    0.040843
   6 H :    0.016011
   7 H :    0.041563

  Mayer bond orders larger than 0.100000
B(  0-C ,  1-O ) :   2.3033 B(  0-C ,  2-C ) :   0.9930 B(  0-C ,  4-H ) :   0.8693
B(  2-C ,  3-C ) :   2.0440 B(  2-C ,  5-H ) :   0.9308 B(  3-C ,  6-H ) :   0.9423
B(  3-C ,  7-H ) :   0.9380

-----------------------------------------------------------------------------
         ABSORPTION SPECTRUM VIA TRANSITION ELECTRIC DIPOLE MOMENTS
-----------------------------------------------------------------------------
State   Energy    Wavelength  fosc         T2        TX        TY        TZ
        (cm-1)      (nm)                 (au**2)    (au)      (au)      (au)
-----------------------------------------------------------------------------
   1   35587.2    281.0   0.000217951   0.00202   0.01439   0.02346  -0.03548

FINAL SINGLE POINT ENERGY      -191.617661213871

DIPOLE MOMENT
-------------
                                X             Y             Z
Electronic contribution:     -2.59914      -1.53591      -1.54330
Nuclear contribution   :      3.11154       2.13550       1.88949
                        -----------------------------------------
Total Dipole Moment    :      0.51240       0.59958       0.34619
                        -----------------------------------------
Magnitude (a.u.)       :      0.86134
Magnitude (Debye)      :      2.18935

Rotational constants in cm-1:     1.057167     0.170479     0.163138
Rotational constants in MHz : 31693.069691  5110.834719  4890.759936

                             ****ORCA TERMINATED NORMALLY****
TOTAL RUN TIME: 0 days 0 hours 2 minutes 59 seconds 477 msec
