                         Program Version 5.0.3 -  RELEASE  -
|  1> ! HF-3c
|  2> !TightSCF
|  3> %scf
|  4>  ConvForced true
|  5>  convergence tight
|  6>  MaxIter 500
|  7> end
|  8>
|  9> %tddft
| 10>  nroots 1
| 11> end
| 12>
| 13> # 	30018
| 14> * xyz 0 1
| 15> 		C   -0.570019  -0.402796   0.032848
| 16> 		O   -0.585898  -1.631593  -0.005829
| 17> 		C    0.577296   0.373876  -0.104501
| 18> 		C    1.878118  -0.140776   0.023520
| 19> 		H   -1.421402   0.065969   0.233476
| 20> 		H    0.567103   1.538554   0.215005
| 21> 		H    1.917016  -1.300499  -0.063389
| 22> 		H    2.769252   0.857335   0.303634
| 23> *
| 24>
| 25>                          ****END OF INPUT****

CARTESIAN COORDINATES (ANGSTROEM)
---------------------------------
  C     -0.570019   -0.402796    0.032848
  O     -0.585898   -1.631593   -0.005829
  C      0.577296    0.373876   -0.104501
  C      1.878118   -0.140776    0.023520
  H     -1.421402    0.065969    0.233476
  H      0.567103    1.538554    0.215005
  H      1.917016   -1.300499   -0.063389
  H      2.769252    0.857335    0.303634

 Total Charge           Charge          ....    0
 Multiplicity           Mult            ....    1
 Number of Electrons    NEL             ....   30
 Basis Dimension        Dim             ....   24

ORBITAL ENERGIES
----------------

  NO   OCC          E(Eh)            E(eV)
   0   2.0000     -20.336002      -553.3707
   1   2.0000     -11.286682      -307.1262
   2   2.0000     -11.185497      -304.3728
   3   2.0000     -11.161638      -303.7236
   4   2.0000      -1.378909       -37.5220
   5   2.0000      -1.054412       -28.6920
   6   2.0000      -0.891092       -24.2478
   7   2.0000      -0.731389       -19.9021
   8   2.0000      -0.679660       -18.4945
   9   2.0000      -0.591414       -16.0932
  10   2.0000      -0.534517       -14.5449
  11   2.0000      -0.528993       -14.3946
  12   2.0000      -0.486738       -13.2448
  13   2.0000      -0.412269       -11.2184
  14   2.0000      -0.356570        -9.7028
  15   0.0000       0.119335         3.2473
  16   0.0000       0.309641         8.4258
  17   0.0000       0.360483         9.8093
  18   0.0000       0.533472        14.5165
  19   0.0000       0.642204        17.4753

MULLIKEN ATOMIC CHARGES
-----------------------
   0 C :    0.116158
   1 O :   -0.360161
   2 C :   -0.192731
   3 C :   -0.163124
   4 H :    0.138576
   5 H :    0.129167
   6 H :    0.168284
   7 H :    0.163831
Sum of atomic charges:    0.0000000

LOEWDIN ATOMIC CHARGES
----------------------
   0 C :    0.122646
   1 O :   -0.277185
   2 C :   -0.168751
   3 C :   -0.083919
   4 H :    0.066539
   5 H :    0.089675
   6 H :    0.118781
   7 H :    0.132215

  Mayer bond orders larger than 0.100000
B(  0-C ,  1-O ) :   1.8470 B(  0-C ,  2-C ) :   1.0972 B(  0-C ,  4-H ) :   0.9373
B(  1-O ,  3-C ) :   0.1033 B(  2-C ,  3-C ) :   1.8645 B(  2-C ,  5-H ) :   0.9576
B(  3-C ,  6-H ) :   0.9482 B(  3-C ,  7-H ) :   0.9498

-----------------------------------------------------------------------------
         ABSORPTION SPECTRUM VIA TRANSITION ELECTRIC DIPOLE MOMENTS
-----------------------------------------------------------------------------
State   Energy    Wavelength  fosc         T2        TX        TY        TZ
        (cm-1)      (nm)                 (au**2)    (au)      (au)      (au)
-----------------------------------------------------------------------------
   1   30857.3    324.1   0.000335915   0.00358  -0.05630  -0.00121  -0.02030

Dispersion correction           -0.025990553
FINAL SINGLE POINT ENERGY      -189.248136718334

DIPOLE MOMENT
-------------
                                X             Y             Z
Electronic contribution:     -1.75767      -1.85888      -0.43194
Nuclear contribution   :      2.43497       2.87791       0.64452
                        -----------------------------------------
Total Dipole Moment    :      0.67730       1.01902       0.21258
                        -----------------------------------------
Magnitude (a.u.)       :      1.24191
Magnitude (Debye)      :      3.15668

Rotational constants in cm-1:     0.757252     0.207921     0.164239
Rotational constants in MHz : 22701.830688  6233.304328  4923.750796

                             ****ORCA TERMINATED NORMALLY****
TOTAL RUN TIME: 0 days 0 hours 0 minutes 11 seconds 477 msec
