                         Program Version 5.0.3 -  RELEASE  -
|  1> ! B3LYP cc-pVDZ
|  2> !TightSCF
|  3> %scf
|  4>  ConvForced true
|  5>  convergence tight
|  6>  MaxIter 500
|  7> end
|  8>
|  9> %tddft
| 10>  nroots 1
| 11> end
| 12>
| 13> # 	26956
| 14> * xyz 0 1
| 15> 		C   -0.579816  -0.401666   0.036412
| 16> 		O   -0.548869  -1.659455  -0.025552
| 17> 		C    0.618953   0.476202  -0.032435
| 18> 		C    1.801664  -0.163286  -0.004194
| 19> 		H   -1.469990   0.003158   0.210733
| 20> 		H    0.506644   1.500934  -0.128826
| 21> 		H    1.771924  -1.347799   0.191861
| 22> 		H    2.947325   0.469788   0.129406
| 23> *
| 24>
| 25>                          ****END OF INPUT****

CARTESIAN COORDINATES (ANGSTROEM)
---------------------------------
  C     -0.579816   -0.401666    0.036412
  O     -0.548869   -1.659455   -0.025552
  C      0.618953    0.476202   -0.032435
  C      1.801664   -0.163286   -0.004194
  H     -1.469990    0.003158    0.210733
  H      0.506644    1.500934   -0.128826
  H      1.771924   -1.347799    0.191861
  H      2.947325    0.469788    0.129406

 Total Charge           Charge          ....    0
 Multiplicity           Mult            ....    1
 Number of Electrons    NEL             ....   30
 Basis Dimension        Dim             ....   76

ORBITAL ENERGIES
----------------

  NO   OCC          E(Eh)            E(eV)
   0   2.0000     -19.134087      -520.6650
   1   2.0000     -10.268068      -279.4083
   2   2.0000     -10.238945      -278.6159
   3   2.0000     -10.205255      -277.6991
   4   2.0000      -1.018613       -27.7179
   5   2.0000      -0.793202       -21.5841
   6   2.0000      -0.654554       -17.8113
   7   2.0000      -0.549033       -14.9399
   8   2.0000      -0.507338       -13.8054
   9   2.0000      -0.436055       -11.8657
  10   2.0000      -0.411977       -11.2105
  11   2.0000      -0.383601       -10.4383
  12   2.0000      -0.362357        -9.8602
  13   2.0000      -0.285560        -7.7705
  14   2.0000      -0.255399        -6.9498
  15   0.0000      -0.074706        -2.0329
  16   0.0000       0.034859         0.9486
  17   0.0000       0.056235         1.5302
  18   0.0000       0.083325         2.2674
  19   0.0000       0.124842         3.3971

MULLIKEN ATOMIC CHARGES
-----------------------
   0 C :    0.254877
   1 O :   -0.243258
   2 C :   -0.045349
   3 C :   -0.051663
   4 H :   -0.039979
   5 H :   -0.025083
   6 H :    0.083663
   7 H :    0.066793
Sum of atomic charges:   -0.0000000

LOEWDIN ATOMIC CHARGES
----------------------
   0 C :    0.020735
   1 O :   -0.052978
   2 C :   -0.080815
   3 C :    0.001713
   4 H :   -0.020792
   5 H :    0.014603
   6 H :    0.058124
   7 H :    0.059410

  Mayer bond orders larger than 0.100000
B(  0-C ,  1-O ) :   2.1135 B(  0-C ,  2-C ) :   1.0676 B(  0-C ,  4-H ) :   0.9484
B(  2-C ,  3-C ) :   1.9179 B(  2-C ,  5-H ) :   0.9560 B(  3-C ,  6-H ) :   0.9094
B(  3-C ,  7-H ) :   0.9343

-----------------------------------------------------------------------------
         ABSORPTION SPECTRUM VIA TRANSITION ELECTRIC DIPOLE MOMENTS
-----------------------------------------------------------------------------
State   Energy    Wavelength  fosc         T2        TX        TY        TZ
        (cm-1)      (nm)                 (au**2)    (au)      (au)      (au)
-----------------------------------------------------------------------------
   1   26387.0    379.0   0.000130388   0.00163   0.03013  -0.00054  -0.02681

FINAL SINGLE POINT ENERGY      -191.643607086620

DIPOLE MOMENT
-------------
                                X             Y             Z
Electronic contribution:     -2.07543      -1.39526      -0.27358
Nuclear contribution   :      2.36549       2.37619       0.37821
                        -----------------------------------------
Total Dipole Moment    :      0.29006       0.98092       0.10463
                        -----------------------------------------
Magnitude (a.u.)       :      1.02825
Magnitude (Debye)      :      2.61360

Rotational constants in cm-1:     0.713034     0.214410     0.165342
Rotational constants in MHz : 21376.210526  6427.852813  4956.818146

                             ****ORCA TERMINATED NORMALLY****
TOTAL RUN TIME: 0 days 0 hours 3 minutes 16 seconds 950 msec
