                         Program Version 5.0.3 -  RELEASE  -
|  1> ! HF-3c
|  2> !TightSCF
|  3> %scf
|  4>  ConvForced true
|  5>  convergence tight
|  6>  MaxIter 500
|  7> end
|  8>
|  9> %tddft
| 10>  nroots 1
| 11> end
| 12>
| 13> # 	7524
| 14> * xyz 0 1
| 15> 		C   -1.242903  -0.379300   0.071561
| 16> 		O   -1.456003  -1.491587   0.545901
| 17> 		C   -0.072714   0.481061   0.211196
| 18> 		C    1.160809  -0.050320  -0.067245
| 19> 		H   -1.919163   0.082057  -0.769864
| 20> 		H   -0.043587   1.640792   0.436967
| 21> 		H    1.594771  -0.839199  -0.356492
| 22> 		H    1.970638   0.569142  -0.098870
| 23> *
| 24>
| 25>                          ****END OF INPUT****

CARTESIAN COORDINATES (ANGSTROEM)
---------------------------------
  C     -1.242903   -0.379300    0.071561
  O     -1.456003   -1.491587    0.545901
  C     -0.072714    0.481061    0.211196
  C      1.160809   -0.050320   -0.067245
  H     -1.919163    0.082057   -0.769864
  H     -0.043587    1.640792    0.436967
  H      1.594771   -0.839199   -0.356492
  H      1.970638    0.569142   -0.098870

 Total Charge           Charge          ....    0
 Multiplicity           Mult            ....    1
 Number of Electrons    NEL             ....   30
 Basis Dimension        Dim             ....   24

ORBITAL ENERGIES
----------------

  NO   OCC          E(Eh)            E(eV)
   0   2.0000     -20.373089      -554.3799
   1   2.0000     -11.300562      -307.5039
   2   2.0000     -11.204113      -304.8794
   3   2.0000     -11.183484      -304.3181
   4   2.0000      -1.391326       -37.8599
   5   2.0000      -1.079563       -29.3764
   6   2.0000      -0.915306       -24.9068
   7   2.0000      -0.769729       -20.9454
   8   2.0000      -0.683536       -18.6000
   9   2.0000      -0.625182       -17.0121
  10   2.0000      -0.608147       -16.5485
  11   2.0000      -0.543902       -14.8003
  12   2.0000      -0.502298       -13.6682
  13   2.0000      -0.414745       -11.2858
  14   2.0000      -0.389481       -10.5983
  15   0.0000       0.144023         3.9191
  16   0.0000       0.238750         6.4967
  17   0.0000       0.515862        14.0373
  18   0.0000       0.573787        15.6135
  19   0.0000       0.635945        17.3049

MULLIKEN ATOMIC CHARGES
-----------------------
   0 C :    0.174391
   1 O :   -0.340783
   2 C :   -0.145455
   3 C :   -0.272484
   4 H :    0.132799
   5 H :    0.165929
   6 H :    0.149600
   7 H :    0.136004
Sum of atomic charges:    0.0000000

LOEWDIN ATOMIC CHARGES
----------------------
   0 C :    0.155312
   1 O :   -0.251521
   2 C :   -0.105634
   3 C :   -0.161436
   4 H :    0.075922
   5 H :    0.118681
   6 H :    0.085935
   7 H :    0.082741

  Mayer bond orders larger than 0.100000
B(  0-C ,  1-O ) :   1.9311 B(  0-C ,  2-C ) :   1.0218 B(  0-C ,  4-H ) :   0.9077
B(  2-C ,  3-C ) :   1.9558 B(  2-C ,  5-H ) :   0.9454 B(  3-C ,  6-H ) :   0.9691
B(  3-C ,  7-H ) :   0.9682

-----------------------------------------------------------------------------
         ABSORPTION SPECTRUM VIA TRANSITION ELECTRIC DIPOLE MOMENTS
-----------------------------------------------------------------------------
State   Energy    Wavelength  fosc         T2        TX        TY        TZ
        (cm-1)      (nm)                 (au**2)    (au)      (au)      (au)
-----------------------------------------------------------------------------
   1   33022.7    302.8   0.000154193   0.00154   0.03720   0.00935  -0.00810

Dispersion correction           -0.024951084
FINAL SINGLE POINT ENERGY      -189.275730191414

DIPOLE MOMENT
-------------
                                X             Y             Z
Electronic contribution:     -2.68322      -1.78004       0.98118
Nuclear contribution   :      3.06383       2.80464      -1.43892
                        -----------------------------------------
Total Dipole Moment    :      0.38061       1.02460      -0.45774
                        -----------------------------------------
Magnitude (a.u.)       :      1.18499
Magnitude (Debye)      :      3.01200

Rotational constants in cm-1:     0.812273     0.186017     0.158620
Rotational constants in MHz : 24351.334767  5576.635221  4755.298236

                             ****ORCA TERMINATED NORMALLY****
TOTAL RUN TIME: 0 days 0 hours 0 minutes 12 seconds 662 msec
