                         Program Version 5.0.3 -  RELEASE  -
|  1> ! B3LYP cc-pVDZ
|  2> !TightSCF
|  3> %scf
|  4>  ConvForced true
|  5>  convergence tight
|  6>  MaxIter 500
|  7> end
|  8>
|  9> %tddft
| 10>  nroots 1
| 11> end
| 12>
| 13> # 	1820
| 14> * xyz 0 1
| 15> 		C   -1.139862  -0.322589  -0.118858
| 16> 		O   -1.158724  -1.509445   0.120041
| 17> 		C    0.039068   0.532693   0.113498
| 18> 		C    1.195641   0.006394  -0.000001
| 19> 		H   -2.102662   0.354149  -0.202638
| 20> 		H   -0.149596   1.554749   0.384029
| 21> 		H    1.182408  -1.168378  -0.250294
| 22> 		H    2.121874   0.541187  -0.089875
| 23> *
| 24>
| 25>                          ****END OF INPUT****

CARTESIAN COORDINATES (ANGSTROEM)
---------------------------------
  C     -1.139862   -0.322589   -0.118858
  O     -1.158724   -1.509445    0.120041
  C      0.039068    0.532693    0.113498
  C      1.195641    0.006394   -0.000001
  H     -2.102662    0.354149   -0.202638
  H     -0.149596    1.554749    0.384029
  H      1.182408   -1.168378   -0.250294
  H      2.121874    0.541187   -0.089875

 Total Charge           Charge          ....    0
 Multiplicity           Mult            ....    1
 Number of Electrons    NEL             ....   30
 Basis Dimension        Dim             ....   76

ORBITAL ENERGIES
----------------

  NO   OCC          E(Eh)            E(eV)
   0   2.0000     -19.145136      -520.9656
   1   2.0000     -10.280967      -279.7593
   2   2.0000     -10.207499      -277.7602
   3   2.0000     -10.194050      -277.3942
   4   2.0000      -1.051163       -28.6036
   5   2.0000      -0.807986       -21.9864
   6   2.0000      -0.651524       -17.7289
   7   2.0000      -0.531694       -14.4681
   8   2.0000      -0.512826       -13.9547
   9   2.0000      -0.448089       -12.1931
  10   2.0000      -0.427727       -11.6390
  11   2.0000      -0.400677       -10.9030
  12   2.0000      -0.368580       -10.0296
  13   2.0000      -0.295440        -8.0393
  14   2.0000      -0.257004        -6.9934
  15   0.0000      -0.062993        -1.7141
  16   0.0000       0.046453         1.2641
  17   0.0000       0.064023         1.7422
  18   0.0000       0.088065         2.3964
  19   0.0000       0.122735         3.3398

MULLIKEN ATOMIC CHARGES
-----------------------
   0 C :    0.156508
   1 O :   -0.184849
   2 C :   -0.074607
   3 C :    0.051842
   4 H :   -0.010900
   5 H :   -0.016601
   6 H :    0.054104
   7 H :    0.024503
Sum of atomic charges:    0.0000000

LOEWDIN ATOMIC CHARGES
----------------------
   0 C :   -0.031664
   1 O :    0.003705
   2 C :   -0.087220
   3 C :    0.008369
   4 H :   -0.000592
   5 H :    0.026723
   6 H :    0.054236
   7 H :    0.026444

  Mayer bond orders larger than 0.100000
B(  0-C ,  1-O ) :   2.1817 B(  0-C ,  2-C ) :   1.0463 B(  0-C ,  4-H ) :   0.8995
B(  2-C ,  3-C ) :   1.9845 B(  2-C ,  5-H ) :   0.9474 B(  3-C ,  6-H ) :   0.9137
B(  3-C ,  7-H ) :   0.9412

-----------------------------------------------------------------------------
         ABSORPTION SPECTRUM VIA TRANSITION ELECTRIC DIPOLE MOMENTS
-----------------------------------------------------------------------------
State   Energy    Wavelength  fosc         T2        TX        TY        TZ
        (cm-1)      (nm)                 (au**2)    (au)      (au)      (au)
-----------------------------------------------------------------------------
   1   29520.2    338.8   0.000253799   0.00283  -0.03324   0.02785   0.03082

FINAL SINGLE POINT ENERGY      -191.651344874654

DIPOLE MOMENT
-------------
                                X             Y             Z
Electronic contribution:     -1.69907      -1.65744       0.13186
Nuclear contribution   :      2.06781       2.54143      -0.26116
                        -----------------------------------------
Total Dipole Moment    :      0.36874       0.88399      -0.12930
                        -----------------------------------------
Magnitude (a.u.)       :      0.96650
Magnitude (Debye)      :      2.45665

Rotational constants in cm-1:     0.770300     0.217212     0.172071
Rotational constants in MHz : 23093.007961  6511.864099  5158.545174

                             ****ORCA TERMINATED NORMALLY****
TOTAL RUN TIME: 0 days 0 hours 3 minutes 27 seconds 963 msec
