                         Program Version 5.0.3 -  RELEASE  -
|  1> ! B3LYP cc-pVDZ
|  2> !TightSCF
|  3> %scf
|  4>  ConvForced true
|  5>  convergence tight
|  6>  MaxIter 500
|  7> end
|  8>
|  9> %tddft
| 10>  nroots 1
| 11> end
| 12>
| 13> # 	11497
| 14> * xyz 0 1
| 15> 		C   -1.170305  -0.420587   0.047831
| 16> 		O   -2.227192  -0.392129  -0.764534
| 17> 		C    0.063052   0.341363  -0.368260
| 18> 		C    1.151107   0.074628   0.228185
| 19> 		H   -1.125683  -0.958345   0.978861
| 20> 		H    0.036250   1.051870  -1.194458
| 21> 		H    1.259707  -0.326601   1.113979
| 22> 		H    2.016401   0.571715  -0.015136
| 23> *
| 24>
| 25>                          ****END OF INPUT****

CARTESIAN COORDINATES (ANGSTROEM)
---------------------------------
  C     -1.170305   -0.420587    0.047831
  O     -2.227192   -0.392129   -0.764534
  C      0.063052    0.341363   -0.368260
  C      1.151107    0.074628    0.228185
  H     -1.125683   -0.958345    0.978861
  H      0.036250    1.051870   -1.194458
  H      1.259707   -0.326601    1.113979
  H      2.016401    0.571715   -0.015136

 Total Charge           Charge          ....    0
 Multiplicity           Mult            ....    1
 Number of Electrons    NEL             ....   30
 Basis Dimension        Dim             ....   76

ORBITAL ENERGIES
----------------

  NO   OCC          E(Eh)            E(eV)
   0   2.0000     -19.139656      -520.8165
   1   2.0000     -10.284946      -279.8676
   2   2.0000     -10.207638      -277.7640
   3   2.0000     -10.191552      -277.3262
   4   2.0000      -0.983171       -26.7534
   5   2.0000      -0.823057       -22.3965
   6   2.0000      -0.658978       -17.9317
   7   2.0000      -0.589806       -16.0494
   8   2.0000      -0.485770       -13.2185
   9   2.0000      -0.479968       -13.0606
  10   2.0000      -0.411457       -11.1963
  11   2.0000      -0.385670       -10.4946
  12   2.0000      -0.367675       -10.0049
  13   2.0000      -0.295874        -8.0511
  14   2.0000      -0.253771        -6.9055
  15   0.0000      -0.073883        -2.0105
  16   0.0000       0.031701         0.8626
  17   0.0000       0.077622         2.1122
  18   0.0000       0.080869         2.2006
  19   0.0000       0.126688         3.4473

MULLIKEN ATOMIC CHARGES
-----------------------
   0 C :    0.206069
   1 O :   -0.280592
   2 C :   -0.075108
   3 C :    0.162357
   4 H :    0.006102
   5 H :    0.004755
   6 H :   -0.023815
   7 H :    0.000233
Sum of atomic charges:    0.0000000

LOEWDIN ATOMIC CHARGES
----------------------
   0 C :    0.055583
   1 O :   -0.106602
   2 C :   -0.035051
   3 C :    0.014669
   4 H :    0.004053
   5 H :    0.040390
   6 H :    0.002734
   7 H :    0.024225

  Mayer bond orders larger than 0.100000
B(  0-C ,  1-O ) :   2.0297 B(  0-C ,  2-C ) :   1.0871 B(  0-C ,  4-H ) :   0.9353
B(  2-C ,  3-C ) :   1.9533 B(  2-C ,  5-H ) :   0.9516 B(  3-C ,  6-H ) :   0.9430
B(  3-C ,  7-H ) :   0.9300

-----------------------------------------------------------------------------
         ABSORPTION SPECTRUM VIA TRANSITION ELECTRIC DIPOLE MOMENTS
-----------------------------------------------------------------------------
State   Energy    Wavelength  fosc         T2        TX        TY        TZ
        (cm-1)      (nm)                 (au**2)    (au)      (au)      (au)
-----------------------------------------------------------------------------
   1   25219.7    396.5   0.000131405   0.00172  -0.04101  -0.00051   0.00573

FINAL SINGLE POINT ENERGY      -191.649452725903

DIPOLE MOMENT
-------------
                                X             Y             Z
Electronic contribution:     -3.08215      -0.56275      -1.00963
Nuclear contribution   :      4.22956       0.71426       1.65393
                        -----------------------------------------
Total Dipole Moment    :      1.14741       0.15151       0.64430
                        -----------------------------------------
Magnitude (a.u.)       :      1.32462
Magnitude (Debye)      :      3.36692

Rotational constants in cm-1:     1.471244     0.154955     0.141112
Rotational constants in MHz : 44106.777568  4645.426181  4230.424841

                             ****ORCA TERMINATED NORMALLY****
TOTAL RUN TIME: 0 days 0 hours 3 minutes 22 seconds 898 msec
