                         Program Version 5.0.3 -  RELEASE  -
|  1> ! HF-3c
|  2> !TightSCF
|  3> %scf
|  4>  ConvForced true
|  5>  convergence tight
|  6>  MaxIter 500
|  7> end
|  8>
|  9> %tddft
| 10>  nroots 1
| 11> end
| 12>
| 13> # 	9723
| 14> * xyz 0 1
| 15> 		C   -1.205751  -0.297029   0.007070
| 16> 		O   -1.257430  -1.456183  -0.331610
| 17> 		C   -0.005639   0.558017  -0.135056
| 18> 		C    1.262953  -0.030936   0.076944
| 19> 		H   -2.074533   0.226648   0.538680
| 20> 		H   -0.150831   1.520857  -0.297054
| 21> 		H    1.170985  -1.042978   0.167197
| 22> 		H    2.208307   0.465107  -0.089489
| 23> *
| 24>
| 25>                          ****END OF INPUT****

CARTESIAN COORDINATES (ANGSTROEM)
---------------------------------
  C     -1.205751   -0.297029    0.007070
  O     -1.257430   -1.456183   -0.331610
  C     -0.005639    0.558017   -0.135056
  C      1.262953   -0.030936    0.076944
  H     -2.074533    0.226648    0.538680
  H     -0.150831    1.520857   -0.297054
  H      1.170985   -1.042978    0.167197
  H      2.208307    0.465107   -0.089489

 Total Charge           Charge          ....    0
 Multiplicity           Mult            ....    1
 Number of Electrons    NEL             ....   30
 Basis Dimension        Dim             ....   24

ORBITAL ENERGIES
----------------

  NO   OCC          E(Eh)            E(eV)
   0   2.0000     -20.369187      -554.2738
   1   2.0000     -11.297920      -307.4320
   2   2.0000     -11.192342      -304.5591
   3   2.0000     -11.187824      -304.4362
   4   2.0000      -1.404892       -38.2291
   5   2.0000      -1.069199       -29.0944
   6   2.0000      -0.896442       -24.3934
   7   2.0000      -0.761785       -20.7292
   8   2.0000      -0.706723       -19.2309
   9   2.0000      -0.612961       -16.6795
  10   2.0000      -0.606576       -16.5058
  11   2.0000      -0.562931       -15.3181
  12   2.0000      -0.523985       -14.2583
  13   2.0000      -0.413464       -11.2509
  14   2.0000      -0.380899       -10.3648
  15   0.0000       0.126289         3.4365
  16   0.0000       0.265544         7.2258
  17   0.0000       0.560884        15.2624
  18   0.0000       0.665658        18.1135
  19   0.0000       0.668728        18.1970

MULLIKEN ATOMIC CHARGES
-----------------------
   0 C :    0.171910
   1 O :   -0.353861
   2 C :   -0.177129
   3 C :   -0.223030
   4 H :    0.135741
   5 H :    0.138848
   6 H :    0.154501
   7 H :    0.153020
Sum of atomic charges:   -0.0000000

LOEWDIN ATOMIC CHARGES
----------------------
   0 C :    0.150516
   1 O :   -0.258339
   2 C :   -0.128309
   3 C :   -0.116638
   4 H :    0.075543
   5 H :    0.080243
   6 H :    0.096007
   7 H :    0.100976

  Mayer bond orders larger than 0.100000
B(  0-C ,  1-O ) :   1.9154 B(  0-C ,  2-C ) :   1.0243 B(  0-C ,  4-H ) :   0.9162
B(  2-C ,  3-C ) :   1.9378 B(  2-C ,  5-H ) :   0.9662 B(  3-C ,  6-H ) :   0.9647
B(  3-C ,  7-H ) :   0.9663

-----------------------------------------------------------------------------
         ABSORPTION SPECTRUM VIA TRANSITION ELECTRIC DIPOLE MOMENTS
-----------------------------------------------------------------------------
State   Energy    Wavelength  fosc         T2        TX        TY        TZ
        (cm-1)      (nm)                 (au**2)    (au)      (au)      (au)
-----------------------------------------------------------------------------
   1   33349.4    299.9   0.000013189   0.00013  -0.00694   0.00670  -0.00609

Dispersion correction           -0.025833146
FINAL SINGLE POINT ENERGY      -189.314422335371

DIPOLE MOMENT
-------------
                                X             Y             Z
Electronic contribution:     -1.97840      -1.51505      -0.39347
Nuclear contribution   :      2.29611       2.37646       0.67078
                        -----------------------------------------
Total Dipole Moment    :      0.31771       0.86141       0.27731
                        -----------------------------------------
Magnitude (a.u.)       :      0.95910
Magnitude (Debye)      :      2.43784

Rotational constants in cm-1:     0.750190     0.202887     0.163791
Rotational constants in MHz : 22490.131893  6082.385099  4910.324215

                             ****ORCA TERMINATED NORMALLY****
TOTAL RUN TIME: 0 days 0 hours 0 minutes 16 seconds 17 msec
