                         Program Version 5.0.3 -  RELEASE  -
|  1> ! B3LYP cc-pVDZ
|  2> !TightSCF
|  3> %scf
|  4>  ConvForced true
|  5>  convergence tight
|  6>  MaxIter 500
|  7> end
|  8>
|  9> %tddft
| 10>  nroots 1
| 11> end
| 12>
| 13> # 	23373
| 14> * xyz 0 1
| 15> 		C   -0.624693  -0.420158  -0.040466
| 16> 		O   -0.565767  -1.709817   0.020602
| 17> 		C    0.641755   0.480655   0.070580
| 18> 		C    1.874531  -0.095703  -0.033634
| 19> 		H   -1.590950   0.320794  -0.293284
| 20> 		H    0.454842   1.457092   0.124083
| 21> 		H    1.852999  -1.298545   0.115997
| 22> 		H    2.673474   0.342928  -0.236029
| 23> *
| 24>
| 25>                          ****END OF INPUT****

CARTESIAN COORDINATES (ANGSTROEM)
---------------------------------
  C     -0.624693   -0.420158   -0.040466
  O     -0.565767   -1.709817    0.020602
  C      0.641755    0.480655    0.070580
  C      1.874531   -0.095703   -0.033634
  H     -1.590950    0.320794   -0.293284
  H      0.454842    1.457092    0.124083
  H      1.852999   -1.298545    0.115997
  H      2.673474    0.342928   -0.236029

 Total Charge           Charge          ....    0
 Multiplicity           Mult            ....    1
 Number of Electrons    NEL             ....   30
 Basis Dimension        Dim             ....   76

ORBITAL ENERGIES
----------------

  NO   OCC          E(Eh)            E(eV)
   0   2.0000     -19.150306      -521.1063
   1   2.0000     -10.300978      -280.3039
   2   2.0000     -10.213091      -277.9123
   3   2.0000     -10.208524      -277.7881
   4   2.0000      -1.008096       -27.4317
   5   2.0000      -0.790622       -21.5139
   6   2.0000      -0.659820       -17.9546
   7   2.0000      -0.549035       -14.9400
   8   2.0000      -0.510146       -13.8818
   9   2.0000      -0.434833       -11.8324
  10   2.0000      -0.420468       -11.4415
  11   2.0000      -0.383967       -10.4483
  12   2.0000      -0.371654       -10.1132
  13   2.0000      -0.280625        -7.6362
  14   2.0000      -0.261094        -7.1047
  15   0.0000      -0.080291        -2.1848
  16   0.0000       0.026498         0.7210
  17   0.0000       0.056404         1.5348
  18   0.0000       0.089684         2.4404
  19   0.0000       0.116091         3.1590

MULLIKEN ATOMIC CHARGES
-----------------------
   0 C :    0.150712
   1 O :   -0.241509
   2 C :   -0.058524
   3 C :    0.134114
   4 H :    0.027501
   5 H :   -0.049119
   6 H :    0.070728
   7 H :   -0.033903
Sum of atomic charges:   -0.0000000

LOEWDIN ATOMIC CHARGES
----------------------
   0 C :    0.018902
   1 O :   -0.074345
   2 C :   -0.053196
   3 C :    0.059579
   4 H :    0.017334
   5 H :   -0.004614
   6 H :    0.064322
   7 H :   -0.027981

  Mayer bond orders larger than 0.100000
B(  0-C ,  1-O ) :   2.0914 B(  0-C ,  2-C ) :   1.0377 B(  0-C ,  4-H ) :   0.8844
B(  2-C ,  3-C ) :   1.9465 B(  2-C ,  5-H ) :   0.9605 B(  3-C ,  6-H ) :   0.9264
B(  3-C ,  7-H ) :   0.9480

-----------------------------------------------------------------------------
         ABSORPTION SPECTRUM VIA TRANSITION ELECTRIC DIPOLE MOMENTS
-----------------------------------------------------------------------------
State   Energy    Wavelength  fosc         T2        TX        TY        TZ
        (cm-1)      (nm)                 (au**2)    (au)      (au)      (au)
-----------------------------------------------------------------------------
   1   26629.3    375.5   0.000047797   0.00059  -0.00685  -0.00182   0.02325

FINAL SINGLE POINT ENERGY      -191.624754073364

DIPOLE MOMENT
-------------
                                X             Y             Z
Electronic contribution:     -1.62825      -1.56090       0.20395
Nuclear contribution   :      2.02424       2.55714      -0.27076
                        -----------------------------------------
Total Dipole Moment    :      0.39599       0.99624      -0.06681
                        -----------------------------------------
Magnitude (a.u.)       :      1.07413
Magnitude (Debye)      :      2.73023

Rotational constants in cm-1:     0.672896     0.201754     0.155996
Rotational constants in MHz : 20172.903568  6048.419821  4676.639654

                             ****ORCA TERMINATED NORMALLY****
TOTAL RUN TIME: 0 days 0 hours 3 minutes 22 seconds 948 msec
