                         Program Version 5.0.3 -  RELEASE  -
|  1> ! HF-3c
|  2> !TightSCF
|  3> %scf
|  4>  ConvForced true
|  5>  convergence tight
|  6>  MaxIter 500
|  7> end
|  8>
|  9> %tddft
| 10>  nroots 1
| 11> end
| 12>
| 13> # 	8416
| 14> * xyz 0 1
| 15> 		C   -1.162964  -0.410144   0.128920
| 16> 		O   -1.890162  -0.786815   0.967601
| 17> 		C    0.039915   0.427202   0.344370
| 18> 		C    1.220229   0.099262  -0.236987
| 19> 		H   -1.331667  -0.571317  -1.045585
| 20> 		H   -0.132682   1.432159   1.040482
| 21> 		H    1.101832  -0.858334  -0.987037
| 22> 		H    2.040371   0.661877  -0.184652
| 23> *
| 24>
| 25>                          ****END OF INPUT****

CARTESIAN COORDINATES (ANGSTROEM)
---------------------------------
  C     -1.162964   -0.410144    0.128920
  O     -1.890162   -0.786815    0.967601
  C      0.039915    0.427202    0.344370
  C      1.220229    0.099262   -0.236987
  H     -1.331667   -0.571317   -1.045585
  H     -0.132682    1.432159    1.040482
  H      1.101832   -0.858334   -0.987037
  H      2.040371    0.661877   -0.184652

 Total Charge           Charge          ....    0
 Multiplicity           Mult            ....    1
 Number of Electrons    NEL             ....   30
 Basis Dimension        Dim             ....   24

ORBITAL ENERGIES
----------------

  NO   OCC          E(Eh)            E(eV)
   0   2.0000     -20.385974      -554.7305
   1   2.0000     -11.307230      -307.6854
   2   2.0000     -11.182390      -304.2883
   3   2.0000     -11.177369      -304.1517
   4   2.0000      -1.434347       -39.0306
   5   2.0000      -1.067284       -29.0423
   6   2.0000      -0.873094       -23.7581
   7   2.0000      -0.741827       -20.1861
   8   2.0000      -0.658608       -17.9216
   9   2.0000      -0.645524       -17.5656
  10   2.0000      -0.602008       -16.3815
  11   2.0000      -0.545091       -14.8327
  12   2.0000      -0.501538       -13.6475
  13   2.0000      -0.405500       -11.0342
  14   2.0000      -0.384716       -10.4687
  15   0.0000       0.157677         4.2906
  16   0.0000       0.266994         7.2653
  17   0.0000       0.484449        13.1825
  18   0.0000       0.531131        14.4528
  19   0.0000       0.592307        16.1175

MULLIKEN ATOMIC CHARGES
-----------------------
   0 C :    0.189747
   1 O :   -0.357172
   2 C :   -0.145097
   3 C :   -0.249245
   4 H :    0.127947
   5 H :    0.152840
   6 H :    0.140896
   7 H :    0.140085
Sum of atomic charges:    0.0000000

LOEWDIN ATOMIC CHARGES
----------------------
   0 C :    0.152755
   1 O :   -0.246747
   2 C :   -0.114250
   3 C :   -0.160461
   4 H :    0.071383
   5 H :    0.110860
   6 H :    0.102718
   7 H :    0.083743

  Mayer bond orders larger than 0.100000
B(  0-C ,  1-O ) :   1.9400 B(  0-C ,  2-C ) :   0.9960 B(  0-C ,  4-H ) :   0.9004
B(  2-C ,  3-C ) :   1.9782 B(  2-C ,  5-H ) :   0.9438 B(  3-C ,  6-H ) :   0.9583
B(  3-C ,  7-H ) :   0.9685

-----------------------------------------------------------------------------
         ABSORPTION SPECTRUM VIA TRANSITION ELECTRIC DIPOLE MOMENTS
-----------------------------------------------------------------------------
State   Energy    Wavelength  fosc         T2        TX        TY        TZ
        (cm-1)      (nm)                 (au**2)    (au)      (au)      (au)
-----------------------------------------------------------------------------
   1   36055.9    277.3   0.000040020   0.00037  -0.00380  -0.01558  -0.01040

Dispersion correction           -0.025209591
FINAL SINGLE POINT ENERGY      -189.278053906153

DIPOLE MOMENT
-------------
                                X             Y             Z
Electronic contribution:     -2.75504      -0.93934       1.53714
Nuclear contribution   :      3.38625       1.31871      -2.24104
                        -----------------------------------------
Total Dipole Moment    :      0.63121       0.37937      -0.70391
                        -----------------------------------------
Magnitude (a.u.)       :      1.01874
Magnitude (Debye)      :      2.58944

Rotational constants in cm-1:     1.227110     0.159048     0.149478
Rotational constants in MHz : 36787.839645  4768.129115  4481.249719

                             ****ORCA TERMINATED NORMALLY****
TOTAL RUN TIME: 0 days 0 hours 0 minutes 12 seconds 400 msec
