                         Program Version 5.0.3 -  RELEASE  -
|  1> ! B3LYP cc-pVDZ
|  2> !TightSCF
|  3> %scf
|  4>  ConvForced true
|  5>  convergence tight
|  6>  MaxIter 500
|  7> end
|  8>
|  9> %tddft
| 10>  nroots 1
| 11> end
| 12>
| 13> # 	2767
| 14> * xyz 0 1
| 15> 		C   -1.165044  -0.353758  -0.006140
| 16> 		O   -1.419348  -1.420330  -0.565880
| 17> 		C   -0.032904   0.508540  -0.168339
| 18> 		C    1.243361   0.065330   0.172238
| 19> 		H   -1.959385   0.159246   0.627889
| 20> 		H   -0.153945   1.501881  -0.411584
| 21> 		H    1.381719  -1.039047   0.345937
| 22> 		H    2.104889   0.608389   0.003808
| 23> *
| 24>
| 25>                          ****END OF INPUT****

CARTESIAN COORDINATES (ANGSTROEM)
---------------------------------
  C     -1.165044   -0.353758   -0.006140
  O     -1.419348   -1.420330   -0.565880
  C     -0.032904    0.508540   -0.168339
  C      1.243361    0.065330    0.172238
  H     -1.959385    0.159246    0.627889
  H     -0.153945    1.501881   -0.411584
  H      1.381719   -1.039047    0.345937
  H      2.104889    0.608389    0.003808

 Total Charge           Charge          ....    0
 Multiplicity           Mult            ....    1
 Number of Electrons    NEL             ....   30
 Basis Dimension        Dim             ....   76

ORBITAL ENERGIES
----------------

  NO   OCC          E(Eh)            E(eV)
   0   2.0000     -19.144340      -520.9440
   1   2.0000     -10.280802      -279.7548
   2   2.0000     -10.215780      -277.9855
   3   2.0000     -10.209897      -277.8254
   4   2.0000      -1.038109       -28.2484
   5   2.0000      -0.799287       -21.7497
   6   2.0000      -0.667029       -18.1508
   7   2.0000      -0.553619       -15.0647
   8   2.0000      -0.508708       -13.8427
   9   2.0000      -0.446047       -12.1376
  10   2.0000      -0.441243       -12.0068
  11   2.0000      -0.396328       -10.7846
  12   2.0000      -0.373847       -10.1729
  13   2.0000      -0.282039        -7.6747
  14   2.0000      -0.257102        -6.9961
  15   0.0000      -0.062509        -1.7010
  16   0.0000       0.003806         0.1036
  17   0.0000       0.080068         2.1788
  18   0.0000       0.090790         2.4705
  19   0.0000       0.115193         3.1346

MULLIKEN ATOMIC CHARGES
-----------------------
   0 C :    0.173979
   1 O :   -0.198931
   2 C :   -0.042667
   3 C :    0.026413
   4 H :   -0.014104
   5 H :   -0.009571
   6 H :    0.045177
   7 H :    0.019704
Sum of atomic charges:   -0.0000000

LOEWDIN ATOMIC CHARGES
----------------------
   0 C :   -0.025152
   1 O :   -0.012399
   2 C :   -0.045271
   3 C :    0.010279
   4 H :   -0.001396
   5 H :    0.021869
   6 H :    0.039839
   7 H :    0.012232

  Mayer bond orders larger than 0.100000
B(  0-C ,  1-O ) :   2.1896 B(  0-C ,  2-C ) :   1.0458 B(  0-C ,  4-H ) :   0.9030
B(  2-C ,  3-C ) :   1.9729 B(  2-C ,  5-H ) :   0.9440 B(  3-C ,  6-H ) :   0.9505
B(  3-C ,  7-H ) :   0.9538

-----------------------------------------------------------------------------
         ABSORPTION SPECTRUM VIA TRANSITION ELECTRIC DIPOLE MOMENTS
-----------------------------------------------------------------------------
State   Energy    Wavelength  fosc         T2        TX        TY        TZ
        (cm-1)      (nm)                 (au**2)    (au)      (au)      (au)
-----------------------------------------------------------------------------
   1   29501.8    339.0   0.001560753   0.01742   0.13091  -0.01667   0.00130

FINAL SINGLE POINT ENERGY      -191.652021807949

DIPOLE MOMENT
-------------
                                X             Y             Z
Electronic contribution:     -2.14827      -1.53682      -0.78088
Nuclear contribution   :      2.66369       2.39942       1.09455
                        -----------------------------------------
Total Dipole Moment    :      0.51542       0.86260       0.31367
                        -----------------------------------------
Magnitude (a.u.)       :      1.05267
Magnitude (Debye)      :      2.67568

Rotational constants in cm-1:     0.853058     0.182837     0.158138
Rotational constants in MHz : 25574.023210  5481.316842  4740.852897

                             ****ORCA TERMINATED NORMALLY****
TOTAL RUN TIME: 0 days 0 hours 3 minutes 14 seconds 300 msec
