                         Program Version 5.0.3 -  RELEASE  -
|  1> ! B3LYP cc-pVDZ
|  2> !TightSCF
|  3> %scf
|  4>  ConvForced true
|  5>  convergence tight
|  6>  MaxIter 500
|  7> end
|  8>
|  9> %tddft
| 10>  nroots 1
| 11> end
| 12>
| 13> # 	9923
| 14> * xyz 0 1
| 15> 		C   -1.176187  -0.235381  -0.027069
| 16> 		O   -1.151247  -1.351578   0.332251
| 17> 		C   -0.021589   0.601267   0.065938
| 18> 		C    1.151578  -0.037734  -0.108081
| 19> 		H   -2.048725   0.306601  -0.498791
| 20> 		H   -0.177501   1.593998   0.378440
| 21> 		H    1.177083  -1.194584  -0.174603
| 22> 		H    2.286317   0.392890   0.019956
| 23> *
| 24>
| 25>                          ****END OF INPUT****

CARTESIAN COORDINATES (ANGSTROEM)
---------------------------------
  C     -1.176187   -0.235381   -0.027069
  O     -1.151247   -1.351578    0.332251
  C     -0.021589    0.601267    0.065938
  C      1.151578   -0.037734   -0.108081
  H     -2.048725    0.306601   -0.498791
  H     -0.177501    1.593998    0.378440
  H      1.177083   -1.194584   -0.174603
  H      2.286317    0.392890    0.019956

 Total Charge           Charge          ....    0
 Multiplicity           Mult            ....    1
 Number of Electrons    NEL             ....   30
 Basis Dimension        Dim             ....   76

ORBITAL ENERGIES
----------------

  NO   OCC          E(Eh)            E(eV)
   0   2.0000     -19.137343      -520.7536
   1   2.0000     -10.269439      -279.4456
   2   2.0000     -10.225321      -278.2451
   3   2.0000     -10.197049      -277.4758
   4   2.0000      -1.070393       -29.1269
   5   2.0000      -0.795807       -21.6550
   6   2.0000      -0.650239       -17.6939
   7   2.0000      -0.539254       -14.6739
   8   2.0000      -0.506579       -13.7847
   9   2.0000      -0.451668       -12.2905
  10   2.0000      -0.440618       -11.9898
  11   2.0000      -0.395174       -10.7532
  12   2.0000      -0.364972        -9.9314
  13   2.0000      -0.284987        -7.7549
  14   2.0000      -0.254295        -6.9197
  15   0.0000      -0.057147        -1.5550
  16   0.0000       0.038310         1.0425
  17   0.0000       0.069758         1.8982
  18   0.0000       0.081699         2.2231
  19   0.0000       0.119050         3.2395

MULLIKEN ATOMIC CHARGES
-----------------------
   0 C :    0.168239
   1 O :   -0.161283
   2 C :   -0.045912
   3 C :   -0.034772
   4 H :   -0.029393
   5 H :   -0.012269
   6 H :    0.062471
   7 H :    0.052920
Sum of atomic charges:   -0.0000000

LOEWDIN ATOMIC CHARGES
----------------------
   0 C :   -0.064888
   1 O :    0.038653
   2 C :   -0.076064
   3 C :   -0.003138
   4 H :   -0.007869
   5 H :    0.022190
   6 H :    0.045136
   7 H :    0.045979

  Mayer bond orders larger than 0.100000
B(  0-C ,  1-O ) :   2.2341 B(  0-C ,  2-C ) :   1.0531 B(  0-C ,  4-H ) :   0.9054
B(  2-C ,  3-C ) :   1.9458 B(  2-C ,  5-H ) :   0.9502 B(  3-C ,  6-H ) :   0.9298
B(  3-C ,  7-H ) :   0.9494

-----------------------------------------------------------------------------
         ABSORPTION SPECTRUM VIA TRANSITION ELECTRIC DIPOLE MOMENTS
-----------------------------------------------------------------------------
State   Energy    Wavelength  fosc         T2        TX        TY        TZ
        (cm-1)      (nm)                 (au**2)    (au)      (au)      (au)
-----------------------------------------------------------------------------
   1   30646.3    326.3   0.000356274   0.00383  -0.05832  -0.00604  -0.01973

FINAL SINGLE POINT ENERGY      -191.641218939790

DIPOLE MOMENT
-------------
                                X             Y             Z
Electronic contribution:     -2.03353      -1.37317       0.38707
Nuclear contribution   :      2.33489       2.12480      -0.53580
                        -----------------------------------------
Total Dipole Moment    :      0.30135       0.75163      -0.14874
                        -----------------------------------------
Magnitude (a.u.)       :      0.82334
Magnitude (Debye)      :      2.09276

Rotational constants in cm-1:     0.723208     0.231716     0.180386
Rotational constants in MHz : 21681.238901  6946.672233  5407.841616

                             ****ORCA TERMINATED NORMALLY****
TOTAL RUN TIME: 0 days 0 hours 3 minutes 12 seconds 743 msec
