                         Program Version 5.0.3 -  RELEASE  -
|  1> ! HF-3c
|  2> !TightSCF
|  3> %scf
|  4>  ConvForced true
|  5>  convergence tight
|  6>  MaxIter 500
|  7> end
|  8>
|  9> %tddft
| 10>  nroots 1
| 11> end
| 12>
| 13> # 	30701
| 14> * xyz 0 1
| 15> 		C   -0.515013  -0.393634   0.029337
| 16> 		O   -0.630342  -1.666169  -0.008831
| 17> 		C    0.619261   0.363402  -0.028543
| 18> 		C    1.847169  -0.065088   0.036403
| 19> 		H   -1.478997   0.123644  -0.065094
| 20> 		H    0.419060   1.401827   0.009144
| 21> 		H    1.974839  -1.212944  -0.145945
| 22> 		H    2.799390   0.517366  -0.103566
| 23> *
| 24>
| 25>                          ****END OF INPUT****

CARTESIAN COORDINATES (ANGSTROEM)
---------------------------------
  C     -0.515013   -0.393634    0.029337
  O     -0.630342   -1.666169   -0.008831
  C      0.619261    0.363402   -0.028543
  C      1.847169   -0.065088    0.036403
  H     -1.478997    0.123644   -0.065094
  H      0.419060    1.401827    0.009144
  H      1.974839   -1.212944   -0.145945
  H      2.799390    0.517366   -0.103566

 Total Charge           Charge          ....    0
 Multiplicity           Mult            ....    1
 Number of Electrons    NEL             ....   30
 Basis Dimension        Dim             ....   24

ORBITAL ENERGIES
----------------

  NO   OCC          E(Eh)            E(eV)
   0   2.0000     -20.336447      -553.3829
   1   2.0000     -11.278045      -306.8912
   2   2.0000     -11.204911      -304.9011
   3   2.0000     -11.199608      -304.7568
   4   2.0000      -1.349562       -36.7235
   5   2.0000      -1.107080       -30.1252
   6   2.0000      -0.916201       -24.9311
   7   2.0000      -0.737902       -20.0793
   8   2.0000      -0.710528       -19.3344
   9   2.0000      -0.623441       -16.9647
  10   2.0000      -0.572819       -15.5872
  11   2.0000      -0.531636       -14.4666
  12   2.0000      -0.506919       -13.7940
  13   2.0000      -0.416840       -11.3428
  14   2.0000      -0.387991       -10.5578
  15   0.0000       0.106958         2.9105
  16   0.0000       0.326663         8.8890
  17   0.0000       0.523998        14.2587
  18   0.0000       0.593338        16.1455
  19   0.0000       0.669846        18.2274

MULLIKEN ATOMIC CHARGES
-----------------------
   0 C :    0.131218
   1 O :   -0.340812
   2 C :   -0.214714
   3 C :   -0.179017
   4 H :    0.139645
   5 H :    0.147803
   6 H :    0.161009
   7 H :    0.154868
Sum of atomic charges:   -0.0000000

LOEWDIN ATOMIC CHARGES
----------------------
   0 C :    0.130326
   1 O :   -0.269411
   2 C :   -0.160497
   3 C :   -0.086579
   4 H :    0.077069
   5 H :    0.092360
   6 H :    0.112136
   7 H :    0.104595

  Mayer bond orders larger than 0.100000
B(  0-C ,  1-O ) :   1.8518 B(  0-C ,  2-C ) :   1.1003 B(  0-C ,  4-H ) :   0.9364
B(  1-O ,  3-C ) :   0.1063 B(  2-C ,  3-C ) :   1.8949 B(  2-C ,  5-H ) :   0.9495
B(  3-C ,  6-H ) :   0.9529 B(  3-C ,  7-H ) :   0.9611

-----------------------------------------------------------------------------
         ABSORPTION SPECTRUM VIA TRANSITION ELECTRIC DIPOLE MOMENTS
-----------------------------------------------------------------------------
State   Energy    Wavelength  fosc         T2        TX        TY        TZ
        (cm-1)      (nm)                 (au**2)    (au)      (au)      (au)
-----------------------------------------------------------------------------
   1   27015.9    370.2   0.000048534   0.00059   0.01835  -0.00122   0.01592

Dispersion correction           -0.026044174
FINAL SINGLE POINT ENERGY      -189.335252811184

DIPOLE MOMENT
-------------
                                X             Y             Z
Electronic contribution:     -1.77310      -1.62337       0.23805
Nuclear contribution   :      2.32638       2.56602      -0.28654
                        -----------------------------------------
Total Dipole Moment    :      0.55328       0.94265      -0.04850
                        -----------------------------------------
Magnitude (a.u.)       :      1.09410
Magnitude (Debye)      :      2.78098

Rotational constants in cm-1:     0.819389     0.204594     0.163950
Rotational constants in MHz : 24564.671469  6133.561141  4915.107415

                             ****ORCA TERMINATED NORMALLY****
TOTAL RUN TIME: 0 days 0 hours 0 minutes 16 seconds 122 msec
