                         Program Version 5.0.3 -  RELEASE  -
|  1> ! B3LYP cc-pVDZ
|  2> !TightSCF
|  3> %scf
|  4>  ConvForced true
|  5>  convergence tight
|  6>  MaxIter 500
|  7> end
|  8>
|  9> %tddft
| 10>  nroots 1
| 11> end
| 12>
| 13> # 	18949
| 14> * xyz 0 1
| 15> 		C   -1.247586  -0.365029   0.016441
| 16> 		O   -1.776266  -1.026329   0.829075
| 17> 		C   -0.006709   0.446485   0.274898
| 18> 		C    1.198705   0.082194  -0.157934
| 19> 		H   -1.499696  -0.319804  -1.035779
| 20> 		H   -0.109227   1.333334   0.737281
| 21> 		H    1.408321  -0.847615  -0.679467
| 22> 		H    2.070569   0.717666   0.027135
| 23> *
| 24>
| 25>                          ****END OF INPUT****

CARTESIAN COORDINATES (ANGSTROEM)
---------------------------------
  C     -1.247586   -0.365029    0.016441
  O     -1.776266   -1.026329    0.829075
  C     -0.006709    0.446485    0.274898
  C      1.198705    0.082194   -0.157934
  H     -1.499696   -0.319804   -1.035779
  H     -0.109227    1.333334    0.737281
  H      1.408321   -0.847615   -0.679467
  H      2.070569    0.717666    0.027135

 Total Charge           Charge          ....    0
 Multiplicity           Mult            ....    1
 Number of Electrons    NEL             ....   30
 Basis Dimension        Dim             ....   76

ORBITAL ENERGIES
----------------

  NO   OCC          E(Eh)            E(eV)
   0   2.0000     -19.148258      -521.0506
   1   2.0000     -10.278390      -279.6892
   2   2.0000     -10.201238      -277.5898
   3   2.0000     -10.193081      -277.3678
   4   2.0000      -1.074639       -29.2424
   5   2.0000      -0.795134       -21.6367
   6   2.0000      -0.649111       -17.6632
   7   2.0000      -0.572219       -15.5709
   8   2.0000      -0.493674       -13.4336
   9   2.0000      -0.467423       -12.7192
  10   2.0000      -0.447388       -12.1740
  11   2.0000      -0.397452       -10.8152
  12   2.0000      -0.386021       -10.5042
  13   2.0000      -0.284036        -7.7290
  14   2.0000      -0.256821        -6.9885
  15   0.0000      -0.034973        -0.9517
  16   0.0000       0.004345         0.1182
  17   0.0000       0.086675         2.3585
  18   0.0000       0.102205         2.7812
  19   0.0000       0.109291         2.9739

MULLIKEN ATOMIC CHARGES
-----------------------
   0 C :    0.182575
   1 O :   -0.148217
   2 C :   -0.048694
   3 C :    0.013467
   4 H :   -0.017893
   5 H :   -0.023799
   6 H :    0.015032
   7 H :    0.027529
Sum of atomic charges:    0.0000000

LOEWDIN ATOMIC CHARGES
----------------------
   0 C :   -0.036326
   1 O :    0.051480
   2 C :   -0.043502
   3 C :   -0.026071
   4 H :   -0.011132
   5 H :    0.010706
   6 H :    0.023223
   7 H :    0.031623

  Mayer bond orders larger than 0.100000
B(  0-C ,  1-O ) :   2.2737 B(  0-C ,  2-C ) :   0.9700 B(  0-C ,  4-H ) :   0.9130
B(  2-C ,  3-C ) :   2.0563 B(  2-C ,  5-H ) :   0.9399 B(  3-C ,  6-H ) :   0.9503
B(  3-C ,  7-H ) :   0.9425

-----------------------------------------------------------------------------
         ABSORPTION SPECTRUM VIA TRANSITION ELECTRIC DIPOLE MOMENTS
-----------------------------------------------------------------------------
State   Energy    Wavelength  fosc         T2        TX        TY        TZ
        (cm-1)      (nm)                 (au**2)    (au)      (au)      (au)
-----------------------------------------------------------------------------
   1   34128.1    293.0   0.000247755   0.00239  -0.00804   0.01396   0.04616

FINAL SINGLE POINT ENERGY      -191.632561411853

DIPOLE MOMENT
-------------
                                X             Y             Z
Electronic contribution:     -3.06084      -1.20243       1.30513
Nuclear contribution   :      3.55601       1.72527      -1.81442
                        -----------------------------------------
Total Dipole Moment    :      0.49517       0.52284      -0.50929
                        -----------------------------------------
Magnitude (a.u.)       :      0.88200
Magnitude (Debye)      :      2.24187

Rotational constants in cm-1:     1.131977     0.160952     0.157083
Rotational constants in MHz : 33935.805696  4825.224199  4709.224094

                             ****ORCA TERMINATED NORMALLY****
TOTAL RUN TIME: 0 days 0 hours 3 minutes 22 seconds 216 msec
