                         Program Version 5.0.3 -  RELEASE  -
|  1> ! B3LYP cc-pVDZ
|  2> !TightSCF
|  3> %scf
|  4>  ConvForced true
|  5>  convergence tight
|  6>  MaxIter 500
|  7> end
|  8>
|  9> %tddft
| 10>  nroots 1
| 11> end
| 12>
| 13> # 	13269
| 14> * xyz 0 1
| 15> 		C   -1.176044  -0.281774   0.015094
| 16> 		O   -1.555940  -1.185877   0.723840
| 17> 		C   -0.039641   0.536565   0.259932
| 18> 		C    1.228497   0.058812  -0.112516
| 19> 		H   -1.639389  -0.056978  -0.956220
| 20> 		H   -0.181058   1.549658   0.645648
| 21> 		H    1.245399  -1.054942  -0.541010
| 22> 		H    2.137673   0.442740  -0.060766
| 23> *
| 24>
| 25>                          ****END OF INPUT****

CARTESIAN COORDINATES (ANGSTROEM)
---------------------------------
  C     -1.176044   -0.281774    0.015094
  O     -1.555940   -1.185877    0.723840
  C     -0.039641    0.536565    0.259932
  C      1.228497    0.058812   -0.112516
  H     -1.639389   -0.056978   -0.956220
  H     -0.181058    1.549658    0.645648
  H      1.245399   -1.054942   -0.541010
  H      2.137673    0.442740   -0.060766

 Total Charge           Charge          ....    0
 Multiplicity           Mult            ....    1
 Number of Electrons    NEL             ....   30
 Basis Dimension        Dim             ....   76

ORBITAL ENERGIES
----------------

  NO   OCC          E(Eh)            E(eV)
   0   2.0000     -19.144467      -520.9474
   1   2.0000     -10.277602      -279.6678
   2   2.0000     -10.215458      -277.9767
   3   2.0000     -10.214546      -277.9519
   4   2.0000      -1.051950       -28.6250
   5   2.0000      -0.794023       -21.6065
   6   2.0000      -0.665171       -18.1002
   7   2.0000      -0.560269       -15.2457
   8   2.0000      -0.499090       -13.5809
   9   2.0000      -0.469710       -12.7815
  10   2.0000      -0.442940       -12.0530
  11   2.0000      -0.384412       -10.4604
  12   2.0000      -0.371176       -10.1002
  13   2.0000      -0.275951        -7.5090
  14   2.0000      -0.258779        -7.0417
  15   0.0000      -0.035657        -0.9703
  16   0.0000      -0.025279        -0.6879
  17   0.0000       0.080780         2.1981
  18   0.0000       0.090625         2.4660
  19   0.0000       0.103934         2.8282

MULLIKEN ATOMIC CHARGES
-----------------------
   0 C :    0.184534
   1 O :   -0.181892
   2 C :   -0.075797
   3 C :    0.025416
   4 H :   -0.012235
   5 H :    0.022885
   6 H :    0.040288
   7 H :   -0.003198
Sum of atomic charges:    0.0000000

LOEWDIN ATOMIC CHARGES
----------------------
   0 C :   -0.035253
   1 O :    0.013614
   2 C :   -0.046636
   3 C :   -0.003443
   4 H :   -0.003191
   5 H :    0.037755
   6 H :    0.045252
   7 H :   -0.008098

  Mayer bond orders larger than 0.100000
B(  0-C ,  1-O ) :   2.2346 B(  0-C ,  2-C ) :   1.0116 B(  0-C ,  4-H ) :   0.9133
B(  2-C ,  3-C ) :   1.9881 B(  2-C ,  5-H ) :   0.9414 B(  3-C ,  6-H ) :   0.9524
B(  3-C ,  7-H ) :   0.9651

-----------------------------------------------------------------------------
         ABSORPTION SPECTRUM VIA TRANSITION ELECTRIC DIPOLE MOMENTS
-----------------------------------------------------------------------------
State   Energy    Wavelength  fosc         T2        TX        TY        TZ
        (cm-1)      (nm)                 (au**2)    (au)      (au)      (au)
-----------------------------------------------------------------------------
   1   33472.5    298.8   0.000095552   0.00094  -0.02936  -0.00141   0.00869

FINAL SINGLE POINT ENERGY      -191.620010867874

DIPOLE MOMENT
-------------
                                X             Y             Z
Electronic contribution:     -2.51679      -1.03735       1.23420
Nuclear contribution   :      2.99966       1.77072      -1.69283
                        -----------------------------------------
Total Dipole Moment    :      0.48287       0.73336      -0.45863
                        -----------------------------------------
Magnitude (a.u.)       :      0.99062
Magnitude (Debye)      :      2.51796

Rotational constants in cm-1:     0.884727     0.179461     0.163577
Rotational constants in MHz : 26523.452905  5380.116344  4903.920064

                             ****ORCA TERMINATED NORMALLY****
TOTAL RUN TIME: 0 days 0 hours 3 minutes 27 seconds 818 msec
