                         Program Version 5.0.3 -  RELEASE  -
|  1> ! B3LYP cc-pVDZ
|  2> !TightSCF
|  3> %scf
|  4>  ConvForced true
|  5>  convergence tight
|  6>  MaxIter 500
|  7> end
|  8>
|  9> %tddft
| 10>  nroots 1
| 11> end
| 12>
| 13> # 	18019
| 14> * xyz 0 1
| 15> 		C   -1.152020  -0.389863  -0.028448
| 16> 		O   -2.243124  -0.325975  -0.573521
| 17> 		C    0.032471   0.391321  -0.428798
| 18> 		C    1.269977   0.205507   0.168019
| 19> 		H   -1.241044  -1.052479   0.869563
| 20> 		H   -0.046733   0.993633  -1.138790
| 21> 		H    1.282265  -0.630021   1.089946
| 22> 		H    2.098815   0.735800   0.013440
| 23> *
| 24>
| 25>                          ****END OF INPUT****

CARTESIAN COORDINATES (ANGSTROEM)
---------------------------------
  C     -1.152020   -0.389863   -0.028448
  O     -2.243124   -0.325975   -0.573521
  C      0.032471    0.391321   -0.428798
  C      1.269977    0.205507    0.168019
  H     -1.241044   -1.052479    0.869563
  H     -0.046733    0.993633   -1.138790
  H      1.282265   -0.630021    1.089946
  H      2.098815    0.735800    0.013440

 Total Charge           Charge          ....    0
 Multiplicity           Mult            ....    1
 Number of Electrons    NEL             ....   30
 Basis Dimension        Dim             ....   76

ORBITAL ENERGIES
----------------

  NO   OCC          E(Eh)            E(eV)
   0   2.0000     -19.131590      -520.5970
   1   2.0000     -10.273547      -279.5574
   2   2.0000     -10.232159      -278.4312
   3   2.0000     -10.206787      -277.7408
   4   2.0000      -1.037971       -28.2446
   5   2.0000      -0.800521       -21.7833
   6   2.0000      -0.652316       -17.7504
   7   2.0000      -0.583007       -15.8644
   8   2.0000      -0.489264       -13.3135
   9   2.0000      -0.477331       -12.9888
  10   2.0000      -0.413061       -11.2400
  11   2.0000      -0.392803       -10.6887
  12   2.0000      -0.389220       -10.5912
  13   2.0000      -0.289313        -7.8726
  14   2.0000      -0.248893        -6.7727
  15   0.0000      -0.073325        -1.9953
  16   0.0000       0.045058         1.2261
  17   0.0000       0.058395         1.5890
  18   0.0000       0.091600         2.4926
  19   0.0000       0.112400         3.0586

MULLIKEN ATOMIC CHARGES
-----------------------
   0 C :    0.152001
   1 O :   -0.210079
   2 C :    0.054093
   3 C :    0.042497
   4 H :   -0.020154
   5 H :   -0.078553
   6 H :    0.052515
   7 H :    0.007679
Sum of atomic charges:   -0.0000000

LOEWDIN ATOMIC CHARGES
----------------------
   0 C :   -0.031668
   1 O :   -0.018225
   2 C :   -0.019595
   3 C :    0.034932
   4 H :    0.001201
   5 H :   -0.018994
   6 H :    0.053329
   7 H :   -0.000980

  Mayer bond orders larger than 0.100000
B(  0-C ,  1-O ) :   2.1277 B(  0-C ,  2-C ) :   1.0739 B(  0-C ,  4-H ) :   0.9401
B(  1-O ,  3-C ) :   0.1007 B(  2-C ,  3-C ) :   1.9077 B(  2-C ,  5-H ) :   0.9551
B(  3-C ,  6-H ) :   0.9430 B(  3-C ,  7-H ) :   0.9461

-----------------------------------------------------------------------------
         ABSORPTION SPECTRUM VIA TRANSITION ELECTRIC DIPOLE MOMENTS
-----------------------------------------------------------------------------
State   Energy    Wavelength  fosc         T2        TX        TY        TZ
        (cm-1)      (nm)                 (au**2)    (au)      (au)      (au)
-----------------------------------------------------------------------------
   1   26109.6    383.0   0.000090360   0.00114   0.02932  -0.01416  -0.00889

FINAL SINGLE POINT ENERGY      -191.642812564762

DIPOLE MOMENT
-------------
                                X             Y             Z
Electronic contribution:     -2.94994      -0.07605      -1.22205
Nuclear contribution   :      4.07915       0.21945       1.56766
                        -----------------------------------------
Total Dipole Moment    :      1.12922       0.14339       0.34561
                        -----------------------------------------
Magnitude (a.u.)       :      1.18959
Magnitude (Debye)      :      3.02371

Rotational constants in cm-1:     1.605273     0.150250     0.137506
Rotational constants in MHz : 48124.863619  4504.371621  4122.334689

                             ****ORCA TERMINATED NORMALLY****
TOTAL RUN TIME: 0 days 0 hours 3 minutes 25 seconds 718 msec
