                         Program Version 5.0.3 -  RELEASE  -
|  1> ! HF-3c
|  2> !TightSCF
|  3> %scf
|  4>  ConvForced true
|  5>  convergence tight
|  6>  MaxIter 500
|  7> end
|  8>
|  9> %tddft
| 10>  nroots 1
| 11> end
| 12>
| 13> # 	1857
| 14> * xyz 0 1
| 15> 		C   -1.139267  -0.309401  -0.049258
| 16> 		O   -2.136118  -0.354710  -0.884557
| 17> 		C    0.033522   0.452339  -0.368380
| 18> 		C    1.129175   0.105798   0.334821
| 19> 		H   -1.210869  -0.921510   0.797206
| 20> 		H   -0.017948   1.166763  -1.037749
| 21> 		H    1.216094  -0.643393   1.000813
| 22> 		H    2.172637   0.503710   0.206938
| 23> *
| 24>
| 25>                          ****END OF INPUT****

CARTESIAN COORDINATES (ANGSTROEM)
---------------------------------
  C     -1.139267   -0.309401   -0.049258
  O     -2.136118   -0.354710   -0.884557
  C      0.033522    0.452339   -0.368380
  C      1.129175    0.105798    0.334821
  H     -1.210869   -0.921510    0.797206
  H     -0.017948    1.166763   -1.037749
  H      1.216094   -0.643393    1.000813
  H      2.172637    0.503710    0.206938

 Total Charge           Charge          ....    0
 Multiplicity           Mult            ....    1
 Number of Electrons    NEL             ....   30
 Basis Dimension        Dim             ....   24

ORBITAL ENERGIES
----------------

  NO   OCC          E(Eh)            E(eV)
   0   2.0000     -20.337695      -553.4168
   1   2.0000     -11.278494      -306.9034
   2   2.0000     -11.213379      -305.1315
   3   2.0000     -11.205242      -304.9101
   4   2.0000      -1.339688       -36.4548
   5   2.0000      -1.104856       -30.0647
   6   2.0000      -0.896422       -24.3929
   7   2.0000      -0.818089       -22.2613
   8   2.0000      -0.678145       -18.4533
   9   2.0000      -0.662642       -18.0314
  10   2.0000      -0.577759       -15.7216
  11   2.0000      -0.541482       -14.7345
  12   2.0000      -0.514261       -13.9937
  13   2.0000      -0.422613       -11.4999
  14   2.0000      -0.385243       -10.4830
  15   0.0000       0.110922         3.0183
  16   0.0000       0.276595         7.5265
  17   0.0000       0.561732        15.2855
  18   0.0000       0.635704        17.2984
  19   0.0000       0.700450        19.0602

MULLIKEN ATOMIC CHARGES
-----------------------
   0 C :    0.128614
   1 O :   -0.331320
   2 C :   -0.186161
   3 C :   -0.212630
   4 H :    0.146973
   5 H :    0.165041
   6 H :    0.140754
   7 H :    0.148728
Sum of atomic charges:    0.0000000

LOEWDIN ATOMIC CHARGES
----------------------
   0 C :    0.134868
   1 O :   -0.264430
   2 C :   -0.121653
   3 C :   -0.110106
   4 H :    0.080404
   5 H :    0.098653
   6 H :    0.083368
   7 H :    0.098896

  Mayer bond orders larger than 0.100000
B(  0-C ,  1-O ) :   1.8719 B(  0-C ,  2-C ) :   1.0726 B(  0-C ,  4-H ) :   0.9426
B(  2-C ,  3-C ) :   1.9163 B(  2-C ,  5-H ) :   0.9567 B(  3-C ,  6-H ) :   0.9697
B(  3-C ,  7-H ) :   0.9644

-----------------------------------------------------------------------------
         ABSORPTION SPECTRUM VIA TRANSITION ELECTRIC DIPOLE MOMENTS
-----------------------------------------------------------------------------
State   Energy    Wavelength  fosc         T2        TX        TY        TZ
        (cm-1)      (nm)                 (au**2)    (au)      (au)      (au)
-----------------------------------------------------------------------------
   1   27473.0    364.0   0.000027075   0.00032  -0.01283   0.00447  -0.01183

Dispersion correction           -0.025903614
FINAL SINGLE POINT ENERGY      -189.329378137123

DIPOLE MOMENT
-------------
                                X             Y             Z
Electronic contribution:     -3.04038      -0.23680      -1.16547
Nuclear contribution   :      4.12618       0.26724       1.84667
                        -----------------------------------------
Total Dipole Moment    :      1.08580       0.03045       0.68120
                        -----------------------------------------
Magnitude (a.u.)       :      1.28216
Magnitude (Debye)      :      3.25899

Rotational constants in cm-1:     1.495425     0.158430     0.145016
Rotational constants in MHz : 44831.705956  4749.598147  4347.464067

                             ****ORCA TERMINATED NORMALLY****
TOTAL RUN TIME: 0 days 0 hours 0 minutes 16 seconds 44 msec
