                         Program Version 5.0.3 -  RELEASE  -
|  1> ! HF-3c
|  2> !TightSCF
|  3> %scf
|  4>  ConvForced true
|  5>  convergence tight
|  6>  MaxIter 500
|  7> end
|  8>
|  9> %tddft
| 10>  nroots 1
| 11> end
| 12>
| 13> # 	9902
| 14> * xyz 0 1
| 15> 		C   -1.194325  -0.327175   0.007205
| 16> 		O   -1.362360  -1.513697  -0.300800
| 17> 		C    0.029806   0.467068  -0.100429
| 18> 		C    1.267256   0.056050   0.011792
| 19> 		H   -2.013674   0.080695   0.372458
| 20> 		H   -0.194694   1.519236  -0.152615
| 21> 		H    1.401845  -1.014884   0.152261
| 22> 		H    2.056875   0.760574   0.049263
| 23> *
| 24>
| 25>                          ****END OF INPUT****

CARTESIAN COORDINATES (ANGSTROEM)
---------------------------------
  C     -1.194325   -0.327175    0.007205
  O     -1.362360   -1.513697   -0.300800
  C      0.029806    0.467068   -0.100429
  C      1.267256    0.056050    0.011792
  H     -2.013674    0.080695    0.372458
  H     -0.194694    1.519236   -0.152615
  H      1.401845   -1.014884    0.152261
  H      2.056875    0.760574    0.049263

 Total Charge           Charge          ....    0
 Multiplicity           Mult            ....    1
 Number of Electrons    NEL             ....   30
 Basis Dimension        Dim             ....   24

ORBITAL ENERGIES
----------------

  NO   OCC          E(Eh)            E(eV)
   0   2.0000     -20.364067      -554.1344
   1   2.0000     -11.294660      -307.3433
   2   2.0000     -11.199744      -304.7605
   3   2.0000     -11.198473      -304.7259
   4   2.0000      -1.388227       -37.7756
   5   2.0000      -1.095870       -29.8201
   6   2.0000      -0.916901       -24.9502
   7   2.0000      -0.771716       -20.9995
   8   2.0000      -0.714041       -19.4301
   9   2.0000      -0.627845       -17.0845
  10   2.0000      -0.607943       -16.5430
  11   2.0000      -0.544214       -14.8088
  12   2.0000      -0.520469       -14.1627
  13   2.0000      -0.426093       -11.5946
  14   2.0000      -0.405635       -11.0379
  15   0.0000       0.128489         3.4964
  16   0.0000       0.292298         7.9538
  17   0.0000       0.570553        15.5255
  18   0.0000       0.639582        17.4039
  19   0.0000       0.658858        17.9284

MULLIKEN ATOMIC CHARGES
-----------------------
   0 C :    0.129192
   1 O :   -0.332058
   2 C :   -0.170054
   3 C :   -0.228974
   4 H :    0.143578
   5 H :    0.143983
   6 H :    0.160937
   7 H :    0.153396
Sum of atomic charges:    0.0000000

LOEWDIN ATOMIC CHARGES
----------------------
   0 C :    0.129740
   1 O :   -0.246833
   2 C :   -0.122597
   3 C :   -0.127148
   4 H :    0.069896
   5 H :    0.090847
   6 H :    0.106840
   7 H :    0.099255

  Mayer bond orders larger than 0.100000
B(  0-C ,  1-O ) :   1.9033 B(  0-C ,  2-C ) :   1.0325 B(  0-C ,  4-H ) :   0.9429
B(  2-C ,  3-C ) :   1.9541 B(  2-C ,  5-H ) :   0.9545 B(  3-C ,  6-H ) :   0.9580
B(  3-C ,  7-H ) :   0.9625

-----------------------------------------------------------------------------
         ABSORPTION SPECTRUM VIA TRANSITION ELECTRIC DIPOLE MOMENTS
-----------------------------------------------------------------------------
State   Energy    Wavelength  fosc         T2        TX        TY        TZ
        (cm-1)      (nm)                 (au**2)    (au)      (au)      (au)
-----------------------------------------------------------------------------
   1   30259.6    330.5   0.000031508   0.00034   0.01769   0.00411   0.00359

Dispersion correction           -0.025688336
FINAL SINGLE POINT ENERGY      -189.335705700098

DIPOLE MOMENT
-------------
                                X             Y             Z
Electronic contribution:     -2.03363      -1.72531      -0.47063
Nuclear contribution   :      2.45000       2.61816       0.75145
                        -----------------------------------------
Total Dipole Moment    :      0.41637       0.89286       0.28083
                        -----------------------------------------
Magnitude (a.u.)       :      1.02441
Magnitude (Debye)      :      2.60385

Rotational constants in cm-1:     0.890480     0.187462     0.156888
Rotational constants in MHz : 26695.911301  5619.957813  4703.374458

                             ****ORCA TERMINATED NORMALLY****
TOTAL RUN TIME: 0 days 0 hours 0 minutes 10 seconds 209 msec
