                         Program Version 5.0.3 -  RELEASE  -
|  1> ! B3LYP cc-pVDZ
|  2> !TightSCF
|  3> %scf
|  4>  ConvForced true
|  5>  convergence tight
|  6>  MaxIter 500
|  7> end
|  8>
|  9> %tddft
| 10>  nroots 1
| 11> end
| 12>
| 13> # 	19955
| 14> * xyz 0 1
| 15> 		C   -1.217806  -0.306199   0.007683
| 16> 		O   -1.970439  -0.690957   0.844870
| 17> 		C    0.002793   0.439587   0.285717
| 18> 		C    1.202135   0.055140  -0.199255
| 19> 		H   -1.340120  -0.522972  -0.979498
| 20> 		H   -0.109885   1.270751   0.931878
| 21> 		H    1.310374  -0.882542  -0.835606
| 22> 		H    2.150120   0.656298  -0.008089
| 23> *
| 24>
| 25>                          ****END OF INPUT****

CARTESIAN COORDINATES (ANGSTROEM)
---------------------------------
  C     -1.217806   -0.306199    0.007683
  O     -1.970439   -0.690957    0.844870
  C      0.002793    0.439587    0.285717
  C      1.202135    0.055140   -0.199255
  H     -1.340120   -0.522972   -0.979498
  H     -0.109885    1.270751    0.931878
  H      1.310374   -0.882542   -0.835606
  H      2.150120    0.656298   -0.008089

 Total Charge           Charge          ....    0
 Multiplicity           Mult            ....    1
 Number of Electrons    NEL             ....   30
 Basis Dimension        Dim             ....   76

ORBITAL ENERGIES
----------------

  NO   OCC          E(Eh)            E(eV)
   0   2.0000     -19.138663      -520.7895
   1   2.0000     -10.265541      -279.3396
   2   2.0000     -10.220846      -278.1234
   3   2.0000     -10.201390      -277.5939
   4   2.0000      -1.059365       -28.8268
   5   2.0000      -0.797928       -21.7127
   6   2.0000      -0.651407       -17.7257
   7   2.0000      -0.578496       -15.7417
   8   2.0000      -0.484948       -13.1961
   9   2.0000      -0.467552       -12.7227
  10   2.0000      -0.436759       -11.8848
  11   2.0000      -0.393629       -10.7112
  12   2.0000      -0.381570       -10.3831
  13   2.0000      -0.286855        -7.8057
  14   2.0000      -0.255034        -6.9398
  15   0.0000      -0.054461        -1.4819
  16   0.0000       0.023231         0.6322
  17   0.0000       0.077406         2.1063
  18   0.0000       0.088993         2.4216
  19   0.0000       0.123376         3.3572

MULLIKEN ATOMIC CHARGES
-----------------------
   0 C :    0.215362
   1 O :   -0.178458
   2 C :   -0.058505
   3 C :   -0.018439
   4 H :   -0.045378
   5 H :   -0.000094
   6 H :    0.036650
   7 H :    0.048862
Sum of atomic charges:   -0.0000000

LOEWDIN ATOMIC CHARGES
----------------------
   0 C :   -0.037335
   1 O :    0.028214
   2 C :   -0.051666
   3 C :   -0.023405
   4 H :   -0.021132
   5 H :    0.027655
   6 H :    0.035969
   7 H :    0.041699

  Mayer bond orders larger than 0.100000
B(  0-C ,  1-O ) :   2.2220 B(  0-C ,  2-C ) :   1.0389 B(  0-C ,  4-H ) :   0.9311
B(  2-C ,  3-C ) :   1.9823 B(  2-C ,  5-H ) :   0.9442 B(  3-C ,  6-H ) :   0.9434
B(  3-C ,  7-H ) :   0.9418

-----------------------------------------------------------------------------
         ABSORPTION SPECTRUM VIA TRANSITION ELECTRIC DIPOLE MOMENTS
-----------------------------------------------------------------------------
State   Energy    Wavelength  fosc         T2        TX        TY        TZ
        (cm-1)      (nm)                 (au**2)    (au)      (au)      (au)
-----------------------------------------------------------------------------
   1   30783.1    324.9   0.000528505   0.00565   0.06892   0.00338  -0.02984

FINAL SINGLE POINT ENERGY      -191.651014669471

DIPOLE MOMENT
-------------
                                X             Y             Z
Electronic contribution:     -3.09657      -0.67560       1.19357
Nuclear contribution   :      3.84974       1.03445      -1.74767
                        -----------------------------------------
Total Dipole Moment    :      0.75317       0.35884      -0.55411
                        -----------------------------------------
Magnitude (a.u.)       :      1.00153
Magnitude (Debye)      :      2.54569

Rotational constants in cm-1:     1.308580     0.159212     0.151830
Rotational constants in MHz : 39230.234172  4773.070395  4551.747076

                             ****ORCA TERMINATED NORMALLY****
TOTAL RUN TIME: 0 days 0 hours 3 minutes 22 seconds 843 msec
