                         Program Version 5.0.3 -  RELEASE  -
|  1> ! HF-3c
|  2> !TightSCF
|  3> %scf
|  4>  ConvForced true
|  5>  convergence tight
|  6>  MaxIter 500
|  7> end
|  8>
|  9> %tddft
| 10>  nroots 1
| 11> end
| 12>
| 13> # 	20768
| 14> * xyz 0 1
| 15> 		C   -0.543751  -0.434146   0.079014
| 16> 		O   -0.621714  -1.708037  -0.015205
| 17> 		C    0.644453   0.461582  -0.045159
| 18> 		C    1.876664  -0.072310  -0.010156
| 19> 		H   -1.698386   0.181507  -0.336334
| 20> 		H    0.413829   1.525305   0.169663
| 21> 		H    1.899339  -1.230279   0.049803
| 22> 		H    2.667561   0.414398   0.091589
| 23> *
| 24>
| 25>                          ****END OF INPUT****

CARTESIAN COORDINATES (ANGSTROEM)
---------------------------------
  C     -0.543751   -0.434146    0.079014
  O     -0.621714   -1.708037   -0.015205
  C      0.644453    0.461582   -0.045159
  C      1.876664   -0.072310   -0.010156
  H     -1.698386    0.181507   -0.336334
  H      0.413829    1.525305    0.169663
  H      1.899339   -1.230279    0.049803
  H      2.667561    0.414398    0.091589

 Total Charge           Charge          ....    0
 Multiplicity           Mult            ....    1
 Number of Electrons    NEL             ....   30
 Basis Dimension        Dim             ....   24

ORBITAL ENERGIES
----------------

  NO   OCC          E(Eh)            E(eV)
   0   2.0000     -20.341595      -553.5229
   1   2.0000     -11.269607      -306.6616
   2   2.0000     -11.202769      -304.8428
   3   2.0000     -11.199726      -304.7600
   4   2.0000      -1.344575       -36.5877
   5   2.0000      -1.084860       -29.5205
   6   2.0000      -0.889252       -24.1978
   7   2.0000      -0.722170       -19.6513
   8   2.0000      -0.692290       -18.8382
   9   2.0000      -0.604628       -16.4528
  10   2.0000      -0.569601       -15.4996
  11   2.0000      -0.526322       -14.3220
  12   2.0000      -0.500125       -13.6091
  13   2.0000      -0.395595       -10.7647
  14   2.0000      -0.381912       -10.3924
  15   0.0000       0.111673         3.0388
  16   0.0000       0.274287         7.4637
  17   0.0000       0.427044        11.6205
  18   0.0000       0.545345        14.8396
  19   0.0000       0.591305        16.0902

MULLIKEN ATOMIC CHARGES
-----------------------
   0 C :    0.169714
   1 O :   -0.352518
   2 C :   -0.168286
   3 C :   -0.232942
   4 H :    0.119509
   5 H :    0.149255
   6 H :    0.173243
   7 H :    0.142026
Sum of atomic charges:   -0.0000000

LOEWDIN ATOMIC CHARGES
----------------------
   0 C :    0.141778
   1 O :   -0.275594
   2 C :   -0.121970
   3 C :   -0.124732
   4 H :    0.079836
   5 H :    0.097665
   6 H :    0.123211
   7 H :    0.079806

  Mayer bond orders larger than 0.100000
B(  0-C ,  1-O ) :   1.8954 B(  0-C ,  2-C ) :   1.0302 B(  0-C ,  4-H ) :   0.9057
B(  2-C ,  3-C ) :   1.9383 B(  2-C ,  5-H ) :   0.9555 B(  3-C ,  6-H ) :   0.9516
B(  3-C ,  7-H ) :   0.9700

-----------------------------------------------------------------------------
         ABSORPTION SPECTRUM VIA TRANSITION ELECTRIC DIPOLE MOMENTS
-----------------------------------------------------------------------------
State   Energy    Wavelength  fosc         T2        TX        TY        TZ
        (cm-1)      (nm)                 (au**2)    (au)      (au)      (au)
-----------------------------------------------------------------------------
   1   26644.5    375.3   0.000863837   0.01067   0.09201  -0.00955   0.04600

Dispersion correction           -0.025589693
FINAL SINGLE POINT ENERGY      -189.283508220502

DIPOLE MOMENT
-------------
                                X             Y             Z
Electronic contribution:     -1.60196      -1.66950       0.09296
Nuclear contribution   :      1.92030       2.62282      -0.02501
                        -----------------------------------------
Total Dipole Moment    :      0.31834       0.95332       0.06795
                        -----------------------------------------
Magnitude (a.u.)       :      1.00736
Magnitude (Debye)      :      2.56050

Rotational constants in cm-1:     0.727940     0.196668     0.155574
Rotational constants in MHz : 21823.094188  5895.968647  4663.992325

                             ****ORCA TERMINATED NORMALLY****
TOTAL RUN TIME: 0 days 0 hours 0 minutes 12 seconds 832 msec
