                         Program Version 5.0.3 -  RELEASE  -
|  1> ! B3LYP cc-pVDZ
|  2> !TightSCF
|  3> %scf
|  4>  ConvForced true
|  5>  convergence tight
|  6>  MaxIter 500
|  7> end
|  8>
|  9> %tddft
| 10>  nroots 1
| 11> end
| 12>
| 13> # 	14987
| 14> * xyz 0 1
| 15> 		C   -1.235914  -0.339968   0.042294
| 16> 		O   -1.622068  -1.219554   0.744566
| 17> 		C    0.037285   0.465003   0.233138
| 18> 		C    1.216759   0.083538  -0.078282
| 19> 		H   -1.730993  -0.127585  -1.000975
| 20> 		H   -0.165688   1.488295   0.591750
| 21> 		H    1.336717  -0.916612  -0.570069
| 22> 		H    2.185409   0.596141   0.057194
| 23> *
| 24>
| 25>                          ****END OF INPUT****

CARTESIAN COORDINATES (ANGSTROEM)
---------------------------------
  C     -1.235914   -0.339968    0.042294
  O     -1.622068   -1.219554    0.744566
  C      0.037285    0.465003    0.233138
  C      1.216759    0.083538   -0.078282
  H     -1.730993   -0.127585   -1.000975
  H     -0.165688    1.488295    0.591750
  H      1.336717   -0.916612   -0.570069
  H      2.185409    0.596141    0.057194

 Total Charge           Charge          ....    0
 Multiplicity           Mult            ....    1
 Number of Electrons    NEL             ....   30
 Basis Dimension        Dim             ....   76

ORBITAL ENERGIES
----------------

  NO   OCC          E(Eh)            E(eV)
   0   2.0000     -19.152469      -521.1652
   1   2.0000     -10.289370      -279.9880
   2   2.0000     -10.203247      -277.6445
   3   2.0000     -10.201697      -277.6023
   4   2.0000      -1.067498       -29.0481
   5   2.0000      -0.801939       -21.8219
   6   2.0000      -0.646149       -17.5826
   7   2.0000      -0.547931       -14.9100
   8   2.0000      -0.490408       -13.3447
   9   2.0000      -0.467985       -12.7345
  10   2.0000      -0.451445       -12.2844
  11   2.0000      -0.393803       -10.7159
  12   2.0000      -0.370504       -10.0819
  13   2.0000      -0.295477        -8.0403
  14   2.0000      -0.256999        -6.9933
  15   0.0000      -0.032221        -0.8768
  16   0.0000       0.001983         0.0540
  17   0.0000       0.079193         2.1550
  18   0.0000       0.089768         2.4427
  19   0.0000       0.095282         2.5928

MULLIKEN ATOMIC CHARGES
-----------------------
   0 C :    0.141748
   1 O :   -0.151634
   2 C :   -0.084308
   3 C :    0.032937
   4 H :   -0.006263
   5 H :    0.013462
   6 H :    0.020958
   7 H :    0.033099
Sum of atomic charges:   -0.0000000

LOEWDIN ATOMIC CHARGES
----------------------
   0 C :   -0.029656
   1 O :    0.034721
   2 C :   -0.071448
   3 C :   -0.036490
   4 H :   -0.004084
   5 H :    0.037574
   6 H :    0.033781
   7 H :    0.035601

  Mayer bond orders larger than 0.100000
B(  0-C ,  1-O ) :   2.2638 B(  0-C ,  2-C ) :   0.9553 B(  0-C ,  4-H ) :   0.8927
B(  2-C ,  3-C ) :   2.0672 B(  2-C ,  5-H ) :   0.9287 B(  3-C ,  6-H ) :   0.9334
B(  3-C ,  7-H ) :   0.9437

-----------------------------------------------------------------------------
         ABSORPTION SPECTRUM VIA TRANSITION ELECTRIC DIPOLE MOMENTS
-----------------------------------------------------------------------------
State   Energy    Wavelength  fosc         T2        TX        TY        TZ
        (cm-1)      (nm)                 (au**2)    (au)      (au)      (au)
-----------------------------------------------------------------------------
   1   34085.1    293.4   0.000296335   0.00286  -0.00306   0.00393   0.05327

FINAL SINGLE POINT ENERGY      -191.633996319613

DIPOLE MOMENT
-------------
                                X             Y             Z
Electronic contribution:     -2.65306      -1.38713       1.31808
Nuclear contribution   :      3.12016       2.03026      -1.75125
                        -----------------------------------------
Total Dipole Moment    :      0.46711       0.64313      -0.43317
                        -----------------------------------------
Magnitude (a.u.)       :      0.90523
Magnitude (Debye)      :      2.30091

Rotational constants in cm-1:     0.996194     0.167877     0.156706
Rotational constants in MHz : 29865.156739  5032.823009  4697.922258

                             ****ORCA TERMINATED NORMALLY****
TOTAL RUN TIME: 0 days 0 hours 3 minutes 14 seconds 798 msec
