                         Program Version 5.0.3 -  RELEASE  -
|  1> ! B3LYP cc-pVDZ
|  2> !TightSCF
|  3> %scf
|  4>  ConvForced true
|  5>  convergence tight
|  6>  MaxIter 500
|  7> end
|  8>
|  9> %tddft
| 10>  nroots 1
| 11> end
| 12>
| 13> # 	17046
| 14> * xyz 0 1
| 15> 		C   -1.156116  -0.296976   0.025415
| 16> 		O   -1.388647  -1.353433   0.554571
| 17> 		C   -0.025620   0.503258   0.149706
| 18> 		C    1.144676  -0.042313  -0.120217
| 19> 		H   -1.864720   0.086085  -0.783907
| 20> 		H   -0.154737   1.628194   0.583572
| 21> 		H    1.310670  -1.078169  -0.437494
| 22> 		H    2.084278   0.535942   0.042070
| 23> *
| 24>
| 25>                          ****END OF INPUT****

CARTESIAN COORDINATES (ANGSTROEM)
---------------------------------
  C     -1.156116   -0.296976    0.025415
  O     -1.388647   -1.353433    0.554571
  C     -0.025620    0.503258    0.149706
  C      1.144676   -0.042313   -0.120217
  H     -1.864720    0.086085   -0.783907
  H     -0.154737    1.628194    0.583572
  H      1.310670   -1.078169   -0.437494
  H      2.084278    0.535942    0.042070

 Total Charge           Charge          ....    0
 Multiplicity           Mult            ....    1
 Number of Electrons    NEL             ....   30
 Basis Dimension        Dim             ....   76

ORBITAL ENERGIES
----------------

  NO   OCC          E(Eh)            E(eV)
   0   2.0000     -19.140244      -520.8325
   1   2.0000     -10.272854      -279.5386
   2   2.0000     -10.212291      -277.8906
   3   2.0000     -10.211202      -277.8609
   4   2.0000      -1.052147       -28.6304
   5   2.0000      -0.811518       -22.0825
   6   2.0000      -0.663153       -18.0453
   7   2.0000      -0.538685       -14.6584
   8   2.0000      -0.500472       -13.6185
   9   2.0000      -0.457225       -12.4417
  10   2.0000      -0.446334       -12.1454
  11   2.0000      -0.382869       -10.4184
  12   2.0000      -0.373105       -10.1527
  13   2.0000      -0.291329        -7.9275
  14   2.0000      -0.253769        -6.9054
  15   0.0000      -0.046967        -1.2781
  16   0.0000       0.006630         0.1804
  17   0.0000       0.066902         1.8205
  18   0.0000       0.089265         2.4290
  19   0.0000       0.103336         2.8119

MULLIKEN ATOMIC CHARGES
-----------------------
   0 C :    0.172233
   1 O :   -0.180343
   2 C :   -0.120052
   3 C :    0.036739
   4 H :   -0.027378
   5 H :    0.050763
   6 H :    0.035616
   7 H :    0.032422
Sum of atomic charges:    0.0000000

LOEWDIN ATOMIC CHARGES
----------------------
   0 C :   -0.052031
   1 O :    0.011445
   2 C :   -0.080680
   3 C :   -0.006621
   4 H :   -0.007181
   5 H :    0.064789
   6 H :    0.034342
   7 H :    0.035939

  Mayer bond orders larger than 0.100000
B(  0-C ,  1-O ) :   2.2355 B(  0-C ,  2-C ) :   1.0435 B(  0-C ,  4-H ) :   0.9028
B(  2-C ,  3-C ) :   2.0021 B(  2-C ,  5-H ) :   0.9164 B(  3-C ,  6-H ) :   0.9461
B(  3-C ,  7-H ) :   0.9433

-----------------------------------------------------------------------------
         ABSORPTION SPECTRUM VIA TRANSITION ELECTRIC DIPOLE MOMENTS
-----------------------------------------------------------------------------
State   Energy    Wavelength  fosc         T2        TX        TY        TZ
        (cm-1)      (nm)                 (au**2)    (au)      (au)      (au)
-----------------------------------------------------------------------------
   1   31510.0    317.4   0.000360549   0.00377  -0.05704  -0.01679   0.01521

FINAL SINGLE POINT ENERGY      -191.640286100486

DIPOLE MOMENT
-------------
                                X             Y             Z
Electronic contribution:     -2.18792      -1.53621       0.85925
Nuclear contribution   :      2.69963       2.32296      -1.15092
                        -----------------------------------------
Total Dipole Moment    :      0.51171       0.78674      -0.29168
                        -----------------------------------------
Magnitude (a.u.)       :      0.98280
Magnitude (Debye)      :      2.49807

Rotational constants in cm-1:     0.822274     0.202239     0.172515
Rotational constants in MHz : 24651.167650  6062.979882  5171.864929

                             ****ORCA TERMINATED NORMALLY****
TOTAL RUN TIME: 0 days 0 hours 3 minutes 22 seconds 906 msec
