                         Program Version 5.0.3 -  RELEASE  -
|  1> ! B3LYP cc-pVDZ
|  2> !TightSCF
|  3> %scf
|  4>  ConvForced true
|  5>  convergence tight
|  6>  MaxIter 500
|  7> end
|  8>
|  9> %tddft
| 10>  nroots 1
| 11> end
| 12>
| 13> # 	31865
| 14> * xyz 0 1
| 15> 		C   -0.579547  -0.437071  -0.014735
| 16> 		O   -0.595425  -1.625673  -0.003595
| 17> 		C    0.632985   0.391848   0.021489
| 18> 		C    1.856438  -0.109705  -0.034246
| 19> 		H   -1.517764  -0.042700   0.037850
| 20> 		H    0.655941   1.451374   0.073972
| 21> 		H    1.787196  -1.070177   0.371223
| 22> 		H    2.734082   0.510372  -0.106821
| 23> *
| 24>
| 25>                          ****END OF INPUT****

CARTESIAN COORDINATES (ANGSTROEM)
---------------------------------
  C     -0.579547   -0.437071   -0.014735
  O     -0.595425   -1.625673   -0.003595
  C      0.632985    0.391848    0.021489
  C      1.856438   -0.109705   -0.034246
  H     -1.517764   -0.042700    0.037850
  H      0.655941    1.451374    0.073972
  H      1.787196   -1.070177    0.371223
  H      2.734082    0.510372   -0.106821

 Total Charge           Charge          ....    0
 Multiplicity           Mult            ....    1
 Number of Electrons    NEL             ....   30
 Basis Dimension        Dim             ....   76

ORBITAL ENERGIES
----------------

  NO   OCC          E(Eh)            E(eV)
   0   2.0000     -19.133115      -520.6385
   1   2.0000     -10.264103      -279.3005
   2   2.0000     -10.201068      -277.5852
   3   2.0000     -10.196132      -277.4509
   4   2.0000      -1.058976       -28.8162
   5   2.0000      -0.804788       -21.8994
   6   2.0000      -0.658354       -17.9147
   7   2.0000      -0.551842       -15.0164
   8   2.0000      -0.529739       -14.4149
   9   2.0000      -0.441211       -12.0060
  10   2.0000      -0.439875       -11.9696
  11   2.0000      -0.407177       -11.0798
  12   2.0000      -0.375242       -10.2109
  13   2.0000      -0.282178        -7.6785
  14   2.0000      -0.254282        -6.9194
  15   0.0000      -0.069737        -1.8976
  16   0.0000       0.063348         1.7238
  17   0.0000       0.071922         1.9571
  18   0.0000       0.110034         2.9942
  19   0.0000       0.131376         3.5749

MULLIKEN ATOMIC CHARGES
-----------------------
   0 C :    0.228722
   1 O :   -0.181138
   2 C :   -0.124568
   3 C :    0.107687
   4 H :   -0.050033
   5 H :   -0.027868
   6 H :    0.019510
   7 H :    0.027687
Sum of atomic charges:   -0.0000000

LOEWDIN ATOMIC CHARGES
----------------------
   0 C :   -0.039173
   1 O :    0.017698
   2 C :   -0.070490
   3 C :    0.034028
   4 H :   -0.017744
   5 H :    0.020304
   6 H :    0.024178
   7 H :    0.031198

  Mayer bond orders larger than 0.100000
B(  0-C ,  1-O ) :   2.2005 B(  0-C ,  2-C ) :   1.0303 B(  0-C ,  4-H ) :   0.9494
B(  2-C ,  3-C ) :   1.9621 B(  2-C ,  5-H ) :   0.9538 B(  3-C ,  6-H ) :   0.9300
B(  3-C ,  7-H ) :   0.9420

-----------------------------------------------------------------------------
         ABSORPTION SPECTRUM VIA TRANSITION ELECTRIC DIPOLE MOMENTS
-----------------------------------------------------------------------------
State   Energy    Wavelength  fosc         T2        TX        TY        TZ
        (cm-1)      (nm)                 (au**2)    (au)      (au)      (au)
-----------------------------------------------------------------------------
   1   27647.7    361.7   0.000092214   0.00110  -0.02528  -0.00088   0.02140

FINAL SINGLE POINT ENERGY      -191.648760557000

DIPOLE MOMENT
-------------
                                X             Y             Z
Electronic contribution:     -1.93205      -1.67196      -0.26606
Nuclear contribution   :      2.27515       2.58771       0.35348
                        -----------------------------------------
Total Dipole Moment    :      0.34310       0.91575       0.08742
                        -----------------------------------------
Magnitude (a.u.)       :      0.98181
Magnitude (Debye)      :      2.49557

Rotational constants in cm-1:     0.847408     0.206175     0.166417
Rotational constants in MHz : 25404.655623  6180.967700  4989.054377

                             ****ORCA TERMINATED NORMALLY****
TOTAL RUN TIME: 0 days 0 hours 3 minutes 22 seconds 220 msec
