                         Program Version 5.0.3 -  RELEASE  -
|  1> ! B3LYP cc-pVDZ
|  2> !TightSCF
|  3> %scf
|  4>  ConvForced true
|  5>  convergence tight
|  6>  MaxIter 500
|  7> end
|  8>
|  9> %tddft
| 10>  nroots 1
| 11> end
| 12>
| 13> # 	22058
| 14> * xyz 0 1
| 15> 		C   -0.568583  -0.411547   0.018935
| 16> 		O   -0.590566  -1.659025  -0.011396
| 17> 		C    0.592733   0.401425  -0.035991
| 18> 		C    1.884044  -0.112836   0.011022
| 19> 		H   -1.683768  -0.026661   0.111323
| 20> 		H    0.733508   1.615974   0.046997
| 21> 		H    1.857204  -1.215074   0.087466
| 22> 		H    2.739034   0.639931   0.006150
| 23> *
| 24>
| 25>                          ****END OF INPUT****

CARTESIAN COORDINATES (ANGSTROEM)
---------------------------------
  C     -0.568583   -0.411547    0.018935
  O     -0.590566   -1.659025   -0.011396
  C      0.592733    0.401425   -0.035991
  C      1.884044   -0.112836    0.011022
  H     -1.683768   -0.026661    0.111323
  H      0.733508    1.615974    0.046997
  H      1.857204   -1.215074    0.087466
  H      2.739034    0.639931    0.006150

 Total Charge           Charge          ....    0
 Multiplicity           Mult            ....    1
 Number of Electrons    NEL             ....   30
 Basis Dimension        Dim             ....   76

ORBITAL ENERGIES
----------------

  NO   OCC          E(Eh)            E(eV)
   0   2.0000     -19.135199      -520.6952
   1   2.0000     -10.281887      -279.7844
   2   2.0000     -10.231834      -278.4224
   3   2.0000     -10.223557      -278.1971
   4   2.0000      -1.027100       -27.9488
   5   2.0000      -0.794736       -21.6259
   6   2.0000      -0.657938       -17.9034
   7   2.0000      -0.524342       -14.2681
   8   2.0000      -0.512042       -13.9334
   9   2.0000      -0.433920       -11.8076
  10   2.0000      -0.424538       -11.5523
  11   2.0000      -0.392215       -10.6727
  12   2.0000      -0.361343        -9.8327
  13   2.0000      -0.283984        -7.7276
  14   2.0000      -0.252678        -6.8757
  15   0.0000      -0.085160        -2.3173
  16   0.0000       0.036349         0.9891
  17   0.0000       0.059218         1.6114
  18   0.0000       0.087425         2.3790
  19   0.0000       0.103613         2.8195

MULLIKEN ATOMIC CHARGES
-----------------------
   0 C :    0.171400
   1 O :   -0.225642
   2 C :   -0.128146
   3 C :    0.049056
   4 H :    0.000850
   5 H :    0.025848
   6 H :    0.048708
   7 H :    0.057926
Sum of atomic charges:   -0.0000000

LOEWDIN ATOMIC CHARGES
----------------------
   0 C :   -0.038834
   1 O :   -0.046447
   2 C :   -0.100414
   3 C :    0.036003
   4 H :    0.012045
   5 H :    0.054090
   6 H :    0.035318
   7 H :    0.048239

  Mayer bond orders larger than 0.100000
B(  0-C ,  1-O ) :   2.1026 B(  0-C ,  2-C ) :   1.0488 B(  0-C ,  4-H ) :   0.9351
B(  1-O ,  3-C ) :   0.1119 B(  2-C ,  3-C ) :   1.9101 B(  2-C ,  5-H ) :   0.9396
B(  3-C ,  6-H ) :   0.9299 B(  3-C ,  7-H ) :   0.9383

-----------------------------------------------------------------------------
         ABSORPTION SPECTRUM VIA TRANSITION ELECTRIC DIPOLE MOMENTS
-----------------------------------------------------------------------------
State   Energy    Wavelength  fosc         T2        TX        TY        TZ
        (cm-1)      (nm)                 (au**2)    (au)      (au)      (au)
-----------------------------------------------------------------------------
   1   24188.7    413.4   0.000223039   0.00304  -0.02718  -0.00871  -0.04713

FINAL SINGLE POINT ENERGY      -191.664382435449

DIPOLE MOMENT
-------------
                                X             Y             Z
Electronic contribution:     -1.71028      -1.79938      -0.17094
Nuclear contribution   :      2.25963       2.74115       0.23625
                        -----------------------------------------
Total Dipole Moment    :      0.54934       0.94177       0.06531
                        -----------------------------------------
Magnitude (a.u.)       :      1.09223
Magnitude (Debye)      :      2.77624

Rotational constants in cm-1:     0.765725     0.202420     0.160237
Rotational constants in MHz : 22955.856108  6068.393595  4803.798201

                             ****ORCA TERMINATED NORMALLY****
TOTAL RUN TIME: 0 days 0 hours 3 minutes 22 seconds 300 msec
