                         Program Version 5.0.3 -  RELEASE  -
|  1> ! HF-3c
|  2> !TightSCF
|  3> %scf
|  4>  ConvForced true
|  5>  convergence tight
|  6>  MaxIter 500
|  7> end
|  8>
|  9> %tddft
| 10>  nroots 1
| 11> end
| 12>
| 13> # 	31264
| 14> * xyz 0 1
| 15> 		C   -0.597568  -0.412971   0.021005
| 16> 		O   -0.539555  -1.594763  -0.011662
| 17> 		C    0.638411   0.387294  -0.047461
| 18> 		C    1.802243  -0.168998   0.030136
| 19> 		H   -1.595746   0.158784   0.094721
| 20> 		H    0.531900   1.420263   0.102900
| 21> 		H    1.931541  -1.046835   0.039333
| 22> 		H    2.661930   0.368835  -0.098887
| 23> *
| 24>
| 25>                          ****END OF INPUT****

CARTESIAN COORDINATES (ANGSTROEM)
---------------------------------
  C     -0.597568   -0.412971    0.021005
  O     -0.539555   -1.594763   -0.011662
  C      0.638411    0.387294   -0.047461
  C      1.802243   -0.168998    0.030136
  H     -1.595746    0.158784    0.094721
  H      0.531900    1.420263    0.102900
  H      1.931541   -1.046835    0.039333
  H      2.661930    0.368835   -0.098887

 Total Charge           Charge          ....    0
 Multiplicity           Mult            ....    1
 Number of Electrons    NEL             ....   30
 Basis Dimension        Dim             ....   24

ORBITAL ENERGIES
----------------

  NO   OCC          E(Eh)            E(eV)
   0   2.0000     -20.379690      -554.5595
   1   2.0000     -11.306359      -307.6617
   2   2.0000     -11.204960      -304.9025
   3   2.0000     -11.203849      -304.8722
   4   2.0000      -1.429426       -38.8967
   5   2.0000      -1.112247       -30.2658
   6   2.0000      -0.915405       -24.9094
   7   2.0000      -0.776811       -21.1381
   8   2.0000      -0.729628       -19.8542
   9   2.0000      -0.643939       -17.5225
  10   2.0000      -0.616919       -16.7872
  11   2.0000      -0.566604       -15.4181
  12   2.0000      -0.555012       -15.1027
  13   2.0000      -0.421619       -11.4728
  14   2.0000      -0.412447       -11.2233
  15   0.0000       0.130092         3.5400
  16   0.0000       0.309387         8.4188
  17   0.0000       0.542515        14.7626
  18   0.0000       0.678358        18.4590
  19   0.0000       0.688122        18.7248

MULLIKEN ATOMIC CHARGES
-----------------------
   0 C :    0.180800
   1 O :   -0.350536
   2 C :   -0.157345
   3 C :   -0.271337
   4 H :    0.139519
   5 H :    0.147377
   6 H :    0.154321
   7 H :    0.157202
Sum of atomic charges:    0.0000000

LOEWDIN ATOMIC CHARGES
----------------------
   0 C :    0.149025
   1 O :   -0.246570
   2 C :   -0.106301
   3 C :   -0.150470
   4 H :    0.078499
   5 H :    0.090997
   6 H :    0.084730
   7 H :    0.100090

  Mayer bond orders larger than 0.100000
B(  0-C ,  1-O ) :   1.9202 B(  0-C ,  2-C ) :   1.0113 B(  0-C ,  4-H ) :   0.9169
B(  2-C ,  3-C ) :   1.9597 B(  2-C ,  5-H ) :   0.9600 B(  3-C ,  6-H ) :   0.9639
B(  3-C ,  7-H ) :   0.9614

-----------------------------------------------------------------------------
         ABSORPTION SPECTRUM VIA TRANSITION ELECTRIC DIPOLE MOMENTS
-----------------------------------------------------------------------------
State   Energy    Wavelength  fosc         T2        TX        TY        TZ
        (cm-1)      (nm)                 (au**2)    (au)      (au)      (au)
-----------------------------------------------------------------------------
   1   33474.3    298.7   0.000138686   0.00136  -0.03583  -0.00384  -0.00808

Dispersion correction           -0.026571298
FINAL SINGLE POINT ENERGY      -189.284008594339

DIPOLE MOMENT
-------------
                                X             Y             Z
Electronic contribution:     -2.04450      -1.67485      -0.08523
Nuclear contribution   :      2.15681       2.63243       0.12957
                        -----------------------------------------
Total Dipole Moment    :      0.11231       0.95758       0.04434
                        -----------------------------------------
Magnitude (a.u.)       :      0.96517
Magnitude (Debye)      :      2.45326

Rotational constants in cm-1:     0.790467     0.223347     0.174419
Rotational constants in MHz : 23697.597418  6695.779742  5228.941078

                             ****ORCA TERMINATED NORMALLY****
TOTAL RUN TIME: 0 days 0 hours 0 minutes 11 seconds 696 msec
