                         Program Version 5.0.3 -  RELEASE  -
|  1> ! B3LYP cc-pVDZ
|  2> !TightSCF
|  3> %scf
|  4>  ConvForced true
|  5>  convergence tight
|  6>  MaxIter 500
|  7> end
|  8>
|  9> %tddft
| 10>  nroots 1
| 11> end
| 12>
| 13> # 	460
| 14> * xyz 0 1
| 15> 		C   -1.195325  -0.293890  -0.017366
| 16> 		O   -1.151943  -1.541371   0.033841
| 17> 		C    0.058634   0.603166   0.079198
| 18> 		C    1.245624  -0.027045  -0.027791
| 19> 		H   -2.224109   0.119462  -0.391074
| 20> 		H   -0.119436   1.725288   0.115854
| 21> 		H    1.259476  -1.060936  -0.000398
| 22> 		H    2.157819   0.529343   0.202819
| 23> *
| 24>
| 25>                          ****END OF INPUT****

CARTESIAN COORDINATES (ANGSTROEM)
---------------------------------
  C     -1.195325   -0.293890   -0.017366
  O     -1.151943   -1.541371    0.033841
  C      0.058634    0.603166    0.079198
  C      1.245624   -0.027045   -0.027791
  H     -2.224109    0.119462   -0.391074
  H     -0.119436    1.725288    0.115854
  H      1.259476   -1.060936   -0.000398
  H      2.157819    0.529343    0.202819

 Total Charge           Charge          ....    0
 Multiplicity           Mult            ....    1
 Number of Electrons    NEL             ....   30
 Basis Dimension        Dim             ....   76

ORBITAL ENERGIES
----------------

  NO   OCC          E(Eh)            E(eV)
   0   2.0000     -19.141104      -520.8559
   1   2.0000     -10.286417      -279.9076
   2   2.0000     -10.220111      -278.1034
   3   2.0000     -10.208653      -277.7916
   4   2.0000      -1.027133       -27.9497
   5   2.0000      -0.790320       -21.5057
   6   2.0000      -0.644746       -17.5444
   7   2.0000      -0.541228       -14.7276
   8   2.0000      -0.500823       -13.6281
   9   2.0000      -0.444197       -12.0872
  10   2.0000      -0.421818       -11.4782
  11   2.0000      -0.384972       -10.4756
  12   2.0000      -0.381788       -10.3890
  13   2.0000      -0.287738        -7.8297
  14   2.0000      -0.255048        -6.9402
  15   0.0000      -0.073228        -1.9926
  16   0.0000       0.036277         0.9872
  17   0.0000       0.065986         1.7956
  18   0.0000       0.094771         2.5789
  19   0.0000       0.108191         2.9440

MULLIKEN ATOMIC CHARGES
-----------------------
   0 C :    0.159683
   1 O :   -0.218688
   2 C :   -0.140877
   3 C :    0.113488
   4 H :    0.010829
   5 H :    0.017326
   6 H :    0.022848
   7 H :    0.035390
Sum of atomic charges:   -0.0000000

LOEWDIN ATOMIC CHARGES
----------------------
   0 C :   -0.007623
   1 O :   -0.043217
   2 C :   -0.073247
   3 C :    0.028371
   4 H :    0.007313
   5 H :    0.036210
   6 H :    0.017389
   7 H :    0.034805

  Mayer bond orders larger than 0.100000
B(  0-C ,  1-O ) :   2.1325 B(  0-C ,  2-C ) :   1.0062 B(  0-C ,  4-H ) :   0.9174
B(  2-C ,  3-C ) :   1.9715 B(  2-C ,  5-H ) :   0.9463 B(  3-C ,  6-H ) :   0.9292
B(  3-C ,  7-H ) :   0.9472

-----------------------------------------------------------------------------
         ABSORPTION SPECTRUM VIA TRANSITION ELECTRIC DIPOLE MOMENTS
-----------------------------------------------------------------------------
State   Energy    Wavelength  fosc         T2        TX        TY        TZ
        (cm-1)      (nm)                 (au**2)    (au)      (au)      (au)
-----------------------------------------------------------------------------
   1   26758.1    373.7   0.000167506   0.00206   0.00625  -0.00062   0.04496

FINAL SINGLE POINT ENERGY      -191.671522768154

DIPOLE MOMENT
-------------
                                X             Y             Z
Electronic contribution:     -1.72855      -1.63568       0.11568
Nuclear contribution   :      2.06816       2.54960      -0.12673
                        -----------------------------------------
Total Dipole Moment    :      0.33962       0.91392      -0.01105
                        -----------------------------------------
Magnitude (a.u.)       :      0.97505
Magnitude (Debye)      :      2.47838

Rotational constants in cm-1:     0.705902     0.207485     0.161247
Rotational constants in MHz : 21162.407924  6220.257117  4834.053961

                             ****ORCA TERMINATED NORMALLY****
TOTAL RUN TIME: 0 days 0 hours 3 minutes 22 seconds 389 msec
