                         Program Version 5.0.3 -  RELEASE  -
|  1> ! HF-3c
|  2> !TightSCF
|  3> %scf
|  4>  ConvForced true
|  5>  convergence tight
|  6>  MaxIter 500
|  7> end
|  8>
|  9> %tddft
| 10>  nroots 1
| 11> end
| 12>
| 13> # 	7975
| 14> * xyz 0 1
| 15> 		C   -1.229076  -0.367334   0.002650
| 16> 		O   -2.022439  -0.710836   0.696705
| 17> 		C   -0.043784   0.386776   0.319970
| 18> 		C    1.233285   0.048760  -0.209755
| 19> 		H   -1.160570  -0.721621  -0.902518
| 20> 		H   -0.120439   1.326895   0.903343
| 21> 		H    1.349793  -0.707562  -0.846576
| 22> 		H    2.007406   0.751125   0.018602
| 23> *
| 24>
| 25>                          ****END OF INPUT****

CARTESIAN COORDINATES (ANGSTROEM)
---------------------------------
  C     -1.229076   -0.367334    0.002650
  O     -2.022439   -0.710836    0.696705
  C     -0.043784    0.386776    0.319970
  C      1.233285    0.048760   -0.209755
  H     -1.160570   -0.721621   -0.902518
  H     -0.120439    1.326895    0.903343
  H      1.349793   -0.707562   -0.846576
  H      2.007406    0.751125    0.018602

 Total Charge           Charge          ....    0
 Multiplicity           Mult            ....    1
 Number of Electrons    NEL             ....   30
 Basis Dimension        Dim             ....   24

ORBITAL ENERGIES
----------------

  NO   OCC          E(Eh)            E(eV)
   0   2.0000     -20.413917      -555.4909
   1   2.0000     -11.338403      -308.5336
   2   2.0000     -11.187378      -304.4240
   3   2.0000     -11.185547      -304.3742
   4   2.0000      -1.497261       -40.7426
   5   2.0000      -1.075134       -29.2559
   6   2.0000      -0.908762       -24.7287
   7   2.0000      -0.815385       -22.1878
   8   2.0000      -0.704610       -19.1734
   9   2.0000      -0.662035       -18.0149
  10   2.0000      -0.616507       -16.7760
  11   2.0000      -0.591927       -16.1071
  12   2.0000      -0.551735       -15.0135
  13   2.0000      -0.421541       -11.4707
  14   2.0000      -0.381334       -10.3766
  15   0.0000       0.133374         3.6293
  16   0.0000       0.278737         7.5848
  17   0.0000       0.627043        17.0627
  18   0.0000       0.651322        17.7234
  19   0.0000       0.711235        19.3537

MULLIKEN ATOMIC CHARGES
-----------------------
   0 C :    0.167688
   1 O :   -0.349133
   2 C :   -0.142694
   3 C :   -0.247503
   4 H :    0.134611
   5 H :    0.149857
   6 H :    0.138742
   7 H :    0.148431
Sum of atomic charges:   -0.0000000

LOEWDIN ATOMIC CHARGES
----------------------
   0 C :    0.136738
   1 O :   -0.216986
   2 C :   -0.108347
   3 C :   -0.144839
   4 H :    0.055113
   5 H :    0.098521
   6 H :    0.082819
   7 H :    0.096981

  Mayer bond orders larger than 0.100000
B(  0-C ,  1-O ) :   1.9205 B(  0-C ,  2-C ) :   1.0080 B(  0-C ,  4-H ) :   0.9184
B(  2-C ,  3-C ) :   1.9521 B(  2-C ,  5-H ) :   0.9581 B(  3-C ,  6-H ) :   0.9719
B(  3-C ,  7-H ) :   0.9682

-----------------------------------------------------------------------------
         ABSORPTION SPECTRUM VIA TRANSITION ELECTRIC DIPOLE MOMENTS
-----------------------------------------------------------------------------
State   Energy    Wavelength  fosc         T2        TX        TY        TZ
        (cm-1)      (nm)                 (au**2)    (au)      (au)      (au)
-----------------------------------------------------------------------------
   1   37436.5    267.1   0.000349697   0.00308   0.05039   0.01363   0.01873

Dispersion correction           -0.025805819
FINAL SINGLE POINT ENERGY      -189.252348481303

DIPOLE MOMENT
-------------
                                X             Y             Z
Electronic contribution:     -3.19604      -0.88725       1.05533
Nuclear contribution   :      3.98362       1.26345      -1.54983
                        -----------------------------------------
Total Dipole Moment    :      0.78758       0.37621      -0.49450
                        -----------------------------------------
Magnitude (a.u.)       :      1.00317
Magnitude (Debye)      :      2.54984

Rotational constants in cm-1:     1.467152     0.159399     0.149751
Rotational constants in MHz : 43984.113878  4778.657363  4489.419694

                             ****ORCA TERMINATED NORMALLY****
TOTAL RUN TIME: 0 days 0 hours 0 minutes 16 seconds 108 msec
