                         Program Version 5.0.3 -  RELEASE  -
|  1> ! HF-3c
|  2> !TightSCF
|  3> %scf
|  4>  ConvForced true
|  5>  convergence tight
|  6>  MaxIter 500
|  7> end
|  8>
|  9> %tddft
| 10>  nroots 1
| 11> end
| 12>
| 13> # 	7701
| 14> * xyz 0 1
| 15> 		C   -1.244389  -0.401555  -0.035269
| 16> 		O   -1.301414  -1.564355   0.145727
| 17> 		C   -0.020196   0.435685   0.073518
| 18> 		C    1.239096  -0.039721  -0.021016
| 19> 		H   -2.147818   0.279646  -0.223986
| 20> 		H   -0.230357   1.551444   0.295513
| 21> 		H    1.522575  -0.977949  -0.179310
| 22> 		H    2.131257   0.727965  -0.084715
| 23> *
| 24>
| 25>                          ****END OF INPUT****

CARTESIAN COORDINATES (ANGSTROEM)
---------------------------------
  C     -1.244389   -0.401555   -0.035269
  O     -1.301414   -1.564355    0.145727
  C     -0.020196    0.435685    0.073518
  C      1.239096   -0.039721   -0.021016
  H     -2.147818    0.279646   -0.223986
  H     -0.230357    1.551444    0.295513
  H      1.522575   -0.977949   -0.179310
  H      2.131257    0.727965   -0.084715

 Total Charge           Charge          ....    0
 Multiplicity           Mult            ....    1
 Number of Electrons    NEL             ....   30
 Basis Dimension        Dim             ....   24

ORBITAL ENERGIES
----------------

  NO   OCC          E(Eh)            E(eV)
   0   2.0000     -20.379359      -554.5506
   1   2.0000     -11.304068      -307.5993
   2   2.0000     -11.188700      -304.4600
   3   2.0000     -11.184033      -304.3330
   4   2.0000      -1.426134       -38.8071
   5   2.0000      -1.065743       -29.0003
   6   2.0000      -0.891751       -24.2658
   7   2.0000      -0.746092       -20.3022
   8   2.0000      -0.692760       -18.8509
   9   2.0000      -0.625576       -17.0228
  10   2.0000      -0.586559       -15.9611
  11   2.0000      -0.551197       -14.9988
  12   2.0000      -0.528406       -14.3787
  13   2.0000      -0.404813       -11.0155
  14   2.0000      -0.390073       -10.6144
  15   0.0000       0.137603         3.7444
  16   0.0000       0.304160         8.2766
  17   0.0000       0.506323        13.7777
  18   0.0000       0.596159        16.2223
  19   0.0000       0.627741        17.0817

MULLIKEN ATOMIC CHARGES
-----------------------
   0 C :    0.181989
   1 O :   -0.356856
   2 C :   -0.161346
   3 C :   -0.225466
   4 H :    0.129301
   5 H :    0.140414
   6 H :    0.146704
   7 H :    0.145260
Sum of atomic charges:   -0.0000000

LOEWDIN ATOMIC CHARGES
----------------------
   0 C :    0.150759
   1 O :   -0.249525
   2 C :   -0.127305
   3 C :   -0.126418
   4 H :    0.068829
   5 H :    0.094705
   6 H :    0.086952
   7 H :    0.102003

  Mayer bond orders larger than 0.100000
B(  0-C ,  1-O ) :   1.9218 B(  0-C ,  2-C ) :   1.0106 B(  0-C ,  4-H ) :   0.9125
B(  2-C ,  3-C ) :   1.9534 B(  2-C ,  5-H ) :   0.9574 B(  3-C ,  6-H ) :   0.9666
B(  3-C ,  7-H ) :   0.9616

-----------------------------------------------------------------------------
         ABSORPTION SPECTRUM VIA TRANSITION ELECTRIC DIPOLE MOMENTS
-----------------------------------------------------------------------------
State   Energy    Wavelength  fosc         T2        TX        TY        TZ
        (cm-1)      (nm)                 (au**2)    (au)      (au)      (au)
-----------------------------------------------------------------------------
   1   34284.5    291.7   0.000027995   0.00027  -0.01519  -0.00205  -0.00581

Dispersion correction           -0.025110331
FINAL SINGLE POINT ENERGY      -189.314085364316

DIPOLE MOMENT
-------------
                                X             Y             Z
Electronic contribution:     -2.18045      -2.01836       0.18404
Nuclear contribution   :      2.51090       3.03952      -0.33599
                        -----------------------------------------
Total Dipole Moment    :      0.33045       1.02116      -0.15194
                        -----------------------------------------
Magnitude (a.u.)       :      1.08400
Magnitude (Debye)      :      2.75531

Rotational constants in cm-1:     0.805055     0.195412     0.158494
Rotational constants in MHz : 24134.934245  5858.301199  4751.517353

                             ****ORCA TERMINATED NORMALLY****
TOTAL RUN TIME: 0 days 0 hours 0 minutes 10 seconds 989 msec
