                         Program Version 5.0.3 -  RELEASE  -
|  1> ! HF-3c
|  2> !TightSCF
|  3> %scf
|  4>  ConvForced true
|  5>  convergence tight
|  6>  MaxIter 500
|  7> end
|  8>
|  9> %tddft
| 10>  nroots 1
| 11> end
| 12>
| 13> # 	25240
| 14> * xyz 0 1
| 15> 		C   -0.599655  -0.415508   0.038887
| 16> 		O   -0.534689  -1.597785  -0.012911
| 17> 		C    0.614363   0.459328  -0.005897
| 18> 		C    1.843051  -0.180848  -0.015723
| 19> 		H   -1.655248  -0.216855  -0.172109
| 20> 		H    0.419858   1.490584   0.043763
| 21> 		H    1.854686  -1.350736   0.156586
| 22> 		H    2.668987   0.289660  -0.028841
| 23> *
| 24>
| 25>                          ****END OF INPUT****

CARTESIAN COORDINATES (ANGSTROEM)
---------------------------------
  C     -0.599655   -0.415508    0.038887
  O     -0.534689   -1.597785   -0.012911
  C      0.614363    0.459328   -0.005897
  C      1.843051   -0.180848   -0.015723
  H     -1.655248   -0.216855   -0.172109
  H      0.419858    1.490584    0.043763
  H      1.854686   -1.350736    0.156586
  H      2.668987    0.289660   -0.028841

 Total Charge           Charge          ....    0
 Multiplicity           Mult            ....    1
 Number of Electrons    NEL             ....   30
 Basis Dimension        Dim             ....   24

ORBITAL ENERGIES
----------------

  NO   OCC          E(Eh)            E(eV)
   0   2.0000     -20.350593      -553.7678
   1   2.0000     -11.287241      -307.1415
   2   2.0000     -11.195396      -304.6422
   3   2.0000     -11.193076      -304.5791
   4   2.0000      -1.419121       -38.6163
   5   2.0000      -1.065277       -28.9877
   6   2.0000      -0.887100       -24.1392
   7   2.0000      -0.764758       -20.8101
   8   2.0000      -0.708057       -19.2672
   9   2.0000      -0.620963       -16.8972
  10   2.0000      -0.592746       -16.1294
  11   2.0000      -0.548478       -14.9249
  12   2.0000      -0.529632       -14.4120
  13   2.0000      -0.404779       -11.0146
  14   2.0000      -0.384018       -10.4497
  15   0.0000       0.129843         3.5332
  16   0.0000       0.295010         8.0276
  17   0.0000       0.509871        13.8743
  18   0.0000       0.588348        16.0098
  19   0.0000       0.680838        18.5265

MULLIKEN ATOMIC CHARGES
-----------------------
   0 C :    0.141379
   1 O :   -0.363730
   2 C :   -0.167446
   3 C :   -0.222146
   4 H :    0.151928
   5 H :    0.145873
   6 H :    0.175627
   7 H :    0.138515
Sum of atomic charges:   -0.0000000

LOEWDIN ATOMIC CHARGES
----------------------
   0 C :    0.120918
   1 O :   -0.264077
   2 C :   -0.119641
   3 C :   -0.119115
   4 H :    0.085900
   5 H :    0.090414
   6 H :    0.127133
   7 H :    0.078469

  Mayer bond orders larger than 0.100000
B(  0-C ,  1-O ) :   1.8950 B(  0-C ,  2-C ) :   1.0194 B(  0-C ,  4-H ) :   0.9361
B(  2-C ,  3-C ) :   1.9429 B(  2-C ,  5-H ) :   0.9631 B(  3-C ,  6-H ) :   0.9518
B(  3-C ,  7-H ) :   0.9722

-----------------------------------------------------------------------------
         ABSORPTION SPECTRUM VIA TRANSITION ELECTRIC DIPOLE MOMENTS
-----------------------------------------------------------------------------
State   Energy    Wavelength  fosc         T2        TX        TY        TZ
        (cm-1)      (nm)                 (au**2)    (au)      (au)      (au)
-----------------------------------------------------------------------------
   1   31465.1    317.8   0.000226046   0.00237   0.03557   0.01496   0.02959

Dispersion correction           -0.025839017
FINAL SINGLE POINT ENERGY      -189.297161649967

DIPOLE MOMENT
-------------
                                X             Y             Z
Electronic contribution:     -1.70299      -1.24124       0.04124
Nuclear contribution   :      1.92973       1.98990      -0.00077
                        -----------------------------------------
Total Dipole Moment    :      0.22674       0.74866       0.04047
                        -----------------------------------------
Magnitude (a.u.)       :      0.78329
Magnitude (Debye)      :      1.99096

Rotational constants in cm-1:     0.728029     0.219846     0.169132
Rotational constants in MHz : 21825.769573  6590.829157  5070.456946

                             ****ORCA TERMINATED NORMALLY****
TOTAL RUN TIME: 0 days 0 hours 0 minutes 13 seconds 249 msec
