                         Program Version 5.0.3 -  RELEASE  -
|  1> ! B3LYP cc-pVDZ
|  2> !TightSCF
|  3> %scf
|  4>  ConvForced true
|  5>  convergence tight
|  6>  MaxIter 500
|  7> end
|  8>
|  9> %tddft
| 10>  nroots 1
| 11> end
| 12>
| 13> # 	638
| 14> * xyz 0 1
| 15> 		C   -1.191322  -0.331315   0.135594
| 16> 		O   -2.056283  -0.380538   0.896169
| 17> 		C    0.014579   0.404096   0.325514
| 18> 		C    1.193185   0.055027  -0.320703
| 19> 		H   -1.268135  -0.918457  -0.904980
| 20> 		H    0.001063   1.284428   1.060601
| 21> 		H    1.177239  -0.750931  -0.990070
| 22> 		H    2.110848   0.644930  -0.215018
| 23> *
| 24>
| 25>                          ****END OF INPUT****

CARTESIAN COORDINATES (ANGSTROEM)
---------------------------------
  C     -1.191322   -0.331315    0.135594
  O     -2.056283   -0.380538    0.896169
  C      0.014579    0.404096    0.325514
  C      1.193185    0.055027   -0.320703
  H     -1.268135   -0.918457   -0.904980
  H      0.001063    1.284428    1.060601
  H      1.177239   -0.750931   -0.990070
  H      2.110848    0.644930   -0.215018

 Total Charge           Charge          ....    0
 Multiplicity           Mult            ....    1
 Number of Electrons    NEL             ....   30
 Basis Dimension        Dim             ....   76

ORBITAL ENERGIES
----------------

  NO   OCC          E(Eh)            E(eV)
   0   2.0000     -19.138103      -520.7743
   1   2.0000     -10.272998      -279.5425
   2   2.0000     -10.221137      -278.1313
   3   2.0000     -10.213958      -277.9359
   4   2.0000      -1.081572       -29.4311
   5   2.0000      -0.796937       -21.6858
   6   2.0000      -0.651949       -17.7404
   7   2.0000      -0.556600       -15.1459
   8   2.0000      -0.481330       -13.0976
   9   2.0000      -0.472932       -12.8691
  10   2.0000      -0.431699       -11.7471
  11   2.0000      -0.413290       -11.2462
  12   2.0000      -0.389602       -10.6016
  13   2.0000      -0.287318        -7.8183
  14   2.0000      -0.254436        -6.9235
  15   0.0000      -0.065683        -1.7873
  16   0.0000       0.045968         1.2508
  17   0.0000       0.076087         2.0704
  18   0.0000       0.081439         2.2161
  19   0.0000       0.122746         3.3401

MULLIKEN ATOMIC CHARGES
-----------------------
   0 C :    0.146752
   1 O :   -0.138475
   2 C :   -0.108053
   3 C :    0.062567
   4 H :   -0.043607
   5 H :    0.022867
   6 H :    0.015082
   7 H :    0.042867
Sum of atomic charges:    0.0000000

LOEWDIN ATOMIC CHARGES
----------------------
   0 C :   -0.100139
   1 O :    0.059880
   2 C :   -0.059350
   3 C :    0.019355
   4 H :   -0.014986
   5 H :    0.043723
   6 H :    0.016238
   7 H :    0.035277

  Mayer bond orders larger than 0.100000
B(  0-C ,  1-O ) :   2.2327 B(  0-C ,  2-C ) :   1.0700 B(  0-C ,  4-H ) :   0.8935
B(  2-C ,  3-C ) :   1.9304 B(  2-C ,  5-H ) :   0.9406 B(  3-C ,  6-H ) :   0.9439
B(  3-C ,  7-H ) :   0.9471

-----------------------------------------------------------------------------
         ABSORPTION SPECTRUM VIA TRANSITION ELECTRIC DIPOLE MOMENTS
-----------------------------------------------------------------------------
State   Energy    Wavelength  fosc         T2        TX        TY        TZ
        (cm-1)      (nm)                 (au**2)    (au)      (au)      (au)
-----------------------------------------------------------------------------
   1   29517.3    338.8   0.000214756   0.00240   0.04380  -0.01920  -0.01041

FINAL SINGLE POINT ENERGY      -191.660043500591

DIPOLE MOMENT
-------------
                                X             Y             Z
Electronic contribution:     -2.99513      -0.32595       1.51641
Nuclear contribution   :      3.92626       0.52663      -1.97707
                        -----------------------------------------
Total Dipole Moment    :      0.93114       0.20068      -0.46066
                        -----------------------------------------
Magnitude (a.u.)       :      1.05806
Magnitude (Debye)      :      2.68937

Rotational constants in cm-1:     1.495101     0.159638     0.146638
Rotational constants in MHz : 44821.994420  4785.829348  4396.084602

                             ****ORCA TERMINATED NORMALLY****
TOTAL RUN TIME: 0 days 0 hours 3 minutes 19 seconds 36 msec
