                         Program Version 5.0.3 -  RELEASE  -
|  1> ! HF-3c
|  2> !TightSCF
|  3> %scf
|  4>  ConvForced true
|  5>  convergence tight
|  6>  MaxIter 500
|  7> end
|  8>
|  9> %tddft
| 10>  nroots 1
| 11> end
| 12>
| 13> # 	10636
| 14> * xyz 0 1
| 15> 		C   -1.222517  -0.275839  -0.056439
| 16> 		O   -1.959641  -0.605232  -0.975634
| 17> 		C    0.029985   0.476115  -0.199558
| 18> 		C    1.112895   0.169649   0.407308
| 19> 		H   -1.235555  -0.623807   0.992605
| 20> 		H   -0.118964   1.162915  -0.989403
| 21> 		H    1.297826  -0.803237   0.863093
| 22> 		H    2.090390   0.556722  -0.044738
| 23> *
| 24>
| 25>                          ****END OF INPUT****

CARTESIAN COORDINATES (ANGSTROEM)
---------------------------------
  C     -1.222517   -0.275839   -0.056439
  O     -1.959641   -0.605232   -0.975634
  C      0.029985    0.476115   -0.199558
  C      1.112895    0.169649    0.407308
  H     -1.235555   -0.623807    0.992605
  H     -0.118964    1.162915   -0.989403
  H      1.297826   -0.803237    0.863093
  H      2.090390    0.556722   -0.044738

 Total Charge           Charge          ....    0
 Multiplicity           Mult            ....    1
 Number of Electrons    NEL             ....   30
 Basis Dimension        Dim             ....   24

ORBITAL ENERGIES
----------------

  NO   OCC          E(Eh)            E(eV)
   0   2.0000     -20.372787      -554.3717
   1   2.0000     -11.295487      -307.3658
   2   2.0000     -11.197903      -304.7104
   3   2.0000     -11.193130      -304.5806
   4   2.0000      -1.396179       -37.9920
   5   2.0000      -1.107743       -30.1432
   6   2.0000      -0.893905       -24.3244
   7   2.0000      -0.781511       -21.2660
   8   2.0000      -0.667735       -18.1700
   9   2.0000      -0.648736       -17.6530
  10   2.0000      -0.596261       -16.2251
  11   2.0000      -0.534943       -14.5565
  12   2.0000      -0.530402       -14.4330
  13   2.0000      -0.413842       -11.2612
  14   2.0000      -0.405666       -11.0387
  15   0.0000       0.137412         3.7392
  16   0.0000       0.276753         7.5308
  17   0.0000       0.514247        13.9934
  18   0.0000       0.634474        17.2649
  19   0.0000       0.676922        18.4200

MULLIKEN ATOMIC CHARGES
-----------------------
   0 C :    0.174149
   1 O :   -0.346597
   2 C :   -0.177412
   3 C :   -0.240980
   4 H :    0.134675
   5 H :    0.158128
   6 H :    0.147656
   7 H :    0.150380
Sum of atomic charges:    0.0000000

LOEWDIN ATOMIC CHARGES
----------------------
   0 C :    0.157193
   1 O :   -0.255239
   2 C :   -0.122941
   3 C :   -0.151027
   4 H :    0.071352
   5 H :    0.099980
   6 H :    0.097170
   7 H :    0.103512

  Mayer bond orders larger than 0.100000
B(  0-C ,  1-O ) :   1.9240 B(  0-C ,  2-C ) :   1.0093 B(  0-C ,  4-H ) :   0.9210
B(  2-C ,  3-C ) :   1.9706 B(  2-C ,  5-H ) :   0.9486 B(  3-C ,  6-H ) :   0.9590
B(  3-C ,  7-H ) :   0.9550

-----------------------------------------------------------------------------
         ABSORPTION SPECTRUM VIA TRANSITION ELECTRIC DIPOLE MOMENTS
-----------------------------------------------------------------------------
State   Energy    Wavelength  fosc         T2        TX        TY        TZ
        (cm-1)      (nm)                 (au**2)    (au)      (au)      (au)
-----------------------------------------------------------------------------
   1   32641.1    306.4   0.000067565   0.00068  -0.01933  -0.00625   0.01639

Dispersion correction           -0.026006501
FINAL SINGLE POINT ENERGY      -189.314550029475

DIPOLE MOMENT
-------------
                                X             Y             Z
Electronic contribution:     -3.06874      -0.41655      -1.03398
Nuclear contribution   :      3.91238       0.59786       1.62749
                        -----------------------------------------
Total Dipole Moment    :      0.84364       0.18130       0.59351
                        -----------------------------------------
Magnitude (a.u.)       :      1.04731
Magnitude (Debye)      :      2.66205

Rotational constants in cm-1:     1.393302     0.158619     0.150485
Rotational constants in MHz : 41770.157065  4755.275212  4511.417241

                             ****ORCA TERMINATED NORMALLY****
TOTAL RUN TIME: 0 days 0 hours 0 minutes 8 seconds 961 msec
