                         Program Version 5.0.3 -  RELEASE  -
|  1> ! B3LYP cc-pVDZ
|  2> !TightSCF
|  3> %scf
|  4>  ConvForced true
|  5>  convergence tight
|  6>  MaxIter 500
|  7> end
|  8>
|  9> %tddft
| 10>  nroots 1
| 11> end
| 12>
| 13> # 	21049
| 14> * xyz 0 1
| 15> 		C   -0.604635  -0.455015  -0.050507
| 16> 		O   -0.611083  -1.647880   0.017316
| 17> 		C    0.668278   0.379233   0.041467
| 18> 		C    1.894189  -0.062244  -0.019719
| 19> 		H   -1.540767   0.201545   0.067289
| 20> 		H    0.506393   1.496298  -0.026071
| 21> 		H    1.896995  -1.328809   0.013596
| 22> 		H    2.496486   0.675625   0.011874
| 23> *
| 24>
| 25>                          ****END OF INPUT****

CARTESIAN COORDINATES (ANGSTROEM)
---------------------------------
  C     -0.604635   -0.455015   -0.050507
  O     -0.611083   -1.647880    0.017316
  C      0.668278    0.379233    0.041467
  C      1.894189   -0.062244   -0.019719
  H     -1.540767    0.201545    0.067289
  H      0.506393    1.496298   -0.026071
  H      1.896995   -1.328809    0.013596
  H      2.496486    0.675625    0.011874

 Total Charge           Charge          ....    0
 Multiplicity           Mult            ....    1
 Number of Electrons    NEL             ....   30
 Basis Dimension        Dim             ....   76

ORBITAL ENERGIES
----------------

  NO   OCC          E(Eh)            E(eV)
   0   2.0000     -19.148797      -521.0652
   1   2.0000     -10.282776      -279.8086
   2   2.0000     -10.205150      -277.6962
   3   2.0000     -10.199676      -277.5473
   4   2.0000      -1.061913       -28.8961
   5   2.0000      -0.801935       -21.8218
   6   2.0000      -0.654780       -17.8175
   7   2.0000      -0.530772       -14.4430
   8   2.0000      -0.507147       -13.8002
   9   2.0000      -0.446004       -12.1364
  10   2.0000      -0.431160       -11.7325
  11   2.0000      -0.406742       -11.0680
  12   2.0000      -0.364801        -9.9267
  13   2.0000      -0.294191        -8.0054
  14   2.0000      -0.260390        -7.0856
  15   0.0000      -0.065881        -1.7927
  16   0.0000       0.058167         1.5828
  17   0.0000       0.063661         1.7323
  18   0.0000       0.071720         1.9516
  19   0.0000       0.112525         3.0620

MULLIKEN ATOMIC CHARGES
-----------------------
   0 C :    0.170327
   1 O :   -0.169939
   2 C :   -0.157755
   3 C :    0.129869
   4 H :   -0.008807
   5 H :   -0.006722
   6 H :    0.074375
   7 H :   -0.031349
Sum of atomic charges:   -0.0000000

LOEWDIN ATOMIC CHARGES
----------------------
   0 C :   -0.040461
   1 O :    0.019262
   2 C :   -0.088363
   3 C :    0.014494
   4 H :   -0.001754
   5 H :    0.029304
   6 H :    0.076503
   7 H :   -0.008986

  Mayer bond orders larger than 0.100000
B(  0-C ,  1-O ) :   2.2059 B(  0-C ,  2-C ) :   1.0260 B(  0-C ,  4-H ) :   0.9016
B(  2-C ,  3-C ) :   1.9913 B(  2-C ,  5-H ) :   0.9370 B(  3-C ,  6-H ) :   0.9094
B(  3-C ,  7-H ) :   0.9162

-----------------------------------------------------------------------------
         ABSORPTION SPECTRUM VIA TRANSITION ELECTRIC DIPOLE MOMENTS
-----------------------------------------------------------------------------
State   Energy    Wavelength  fosc         T2        TX        TY        TZ
        (cm-1)      (nm)                 (au**2)    (au)      (au)      (au)
-----------------------------------------------------------------------------
   1   29563.4    338.3   0.000668145   0.00744  -0.07253   0.00356   0.04655

FINAL SINGLE POINT ENERGY      -191.625205544279

DIPOLE MOMENT
-------------
                                X             Y             Z
Electronic contribution:     -1.70550      -1.93324      -0.09504
Nuclear contribution   :      1.99161       2.76803       0.06290
                        -----------------------------------------
Total Dipole Moment    :      0.28612       0.83480      -0.03214
                        -----------------------------------------
Magnitude (a.u.)       :      0.88305
Magnitude (Debye)      :      2.24454

Rotational constants in cm-1:     0.806050     0.199160     0.159902
Rotational constants in MHz : 24164.764495  5970.654702  4793.726942

                             ****ORCA TERMINATED NORMALLY****
TOTAL RUN TIME: 0 days 0 hours 3 minutes 22 seconds 582 msec
