                         Program Version 5.0.3 -  RELEASE  -
|  1> ! B3LYP cc-pVDZ
|  2> !TightSCF
|  3> %scf
|  4>  ConvForced true
|  5>  convergence tight
|  6>  MaxIter 500
|  7> end
|  8>
|  9> %tddft
| 10>  nroots 1
| 11> end
| 12>
| 13> # 	21053
| 14> * xyz 0 1
| 15> 		C   -0.532847  -0.393335  -0.044834
| 16> 		O   -0.620748  -1.646708   0.030992
| 17> 		C    0.600639   0.393352   0.021202
| 18> 		C    1.872187  -0.127275  -0.024915
| 19> 		H   -1.571538  -0.038137  -0.157991
| 20> 		H    0.353532   1.367447   0.270971
| 21> 		H    2.110133  -1.141751  -0.022009
| 22> 		H    2.800749   0.714694   0.011112
| 23> *
| 24>
| 25>                          ****END OF INPUT****

CARTESIAN COORDINATES (ANGSTROEM)
---------------------------------
  C     -0.532847   -0.393335   -0.044834
  O     -0.620748   -1.646708    0.030992
  C      0.600639    0.393352    0.021202
  C      1.872187   -0.127275   -0.024915
  H     -1.571538   -0.038137   -0.157991
  H      0.353532    1.367447    0.270971
  H      2.110133   -1.141751   -0.022009
  H      2.800749    0.714694    0.011112

 Total Charge           Charge          ....    0
 Multiplicity           Mult            ....    1
 Number of Electrons    NEL             ....   30
 Basis Dimension        Dim             ....   76

ORBITAL ENERGIES
----------------

  NO   OCC          E(Eh)            E(eV)
   0   2.0000     -19.123085      -520.3656
   1   2.0000     -10.260918      -279.2138
   2   2.0000     -10.239701      -278.6364
   3   2.0000     -10.207971      -277.7730
   4   2.0000      -1.012756       -27.5585
   5   2.0000      -0.806276       -21.9399
   6   2.0000      -0.671597       -18.2751
   7   2.0000      -0.546460       -14.8699
   8   2.0000      -0.510098       -13.8805
   9   2.0000      -0.459320       -12.4987
  10   2.0000      -0.404059       -10.9950
  11   2.0000      -0.392002       -10.6669
  12   2.0000      -0.374648       -10.1947
  13   2.0000      -0.283219        -7.7068
  14   2.0000      -0.241508        -6.5718
  15   0.0000      -0.086184        -2.3452
  16   0.0000       0.042749         1.1633
  17   0.0000       0.063042         1.7155
  18   0.0000       0.091577         2.4919
  19   0.0000       0.121537         3.3072

MULLIKEN ATOMIC CHARGES
-----------------------
   0 C :    0.155869
   1 O :   -0.242264
   2 C :   -0.017048
   3 C :    0.042470
   4 H :   -0.022223
   5 H :   -0.016676
   6 H :    0.035216
   7 H :    0.064657
Sum of atomic charges:    0.0000000

LOEWDIN ATOMIC CHARGES
----------------------
   0 C :   -0.033878
   1 O :   -0.060394
   2 C :   -0.075597
   3 C :    0.058194
   4 H :    0.004751
   5 H :    0.025448
   6 H :    0.020358
   7 H :    0.061119

  Mayer bond orders larger than 0.100000
B(  0-C ,  1-O ) :   2.1167 B(  0-C ,  2-C ) :   1.1296 B(  0-C ,  4-H ) :   0.9476
B(  1-O ,  3-C ) :   0.1273 B(  2-C ,  3-C ) :   1.8850 B(  2-C ,  5-H ) :   0.9436
B(  3-C ,  6-H ) :   0.9417 B(  3-C ,  7-H ) :   0.9429

-----------------------------------------------------------------------------
         ABSORPTION SPECTRUM VIA TRANSITION ELECTRIC DIPOLE MOMENTS
-----------------------------------------------------------------------------
State   Energy    Wavelength  fosc         T2        TX        TY        TZ
        (cm-1)      (nm)                 (au**2)    (au)      (au)      (au)
-----------------------------------------------------------------------------
   1   21585.8    463.3   0.000086346   0.00132  -0.00593   0.00789   0.03492

FINAL SINGLE POINT ENERGY      -191.672380624376

DIPOLE MOMENT
-------------
                                X             Y             Z
Electronic contribution:     -1.74282      -1.65896      -0.08647
Nuclear contribution   :      2.30680       2.63414       0.09518
                        -----------------------------------------
Total Dipole Moment    :      0.56397       0.97518       0.00871
                        -----------------------------------------
Magnitude (a.u.)       :      1.12655
Magnitude (Debye)      :      2.86347

Rotational constants in cm-1:     0.782841     0.204041     0.162329
Rotational constants in MHz : 23468.996818  6116.990070  4866.487604

                             ****ORCA TERMINATED NORMALLY****
TOTAL RUN TIME: 0 days 0 hours 3 minutes 22 seconds 726 msec
