                         Program Version 5.0.3 -  RELEASE  -
|  1> ! B3LYP cc-pVDZ
|  2> !TightSCF
|  3> %scf
|  4>  ConvForced true
|  5>  convergence tight
|  6>  MaxIter 500
|  7> end
|  8>
|  9> %tddft
| 10>  nroots 1
| 11> end
| 12>
| 13> # 	10670
| 14> * xyz 0 1
| 15> 		C   -1.254105  -0.301609  -0.006343
| 16> 		O   -1.638162  -1.086738   0.768891
| 17> 		C    0.001562   0.552660   0.162151
| 18> 		C    1.184695   0.075522  -0.128424
| 19> 		H   -1.528647  -0.344767  -1.083141
| 20> 		H   -0.184396   1.449061   0.759457
| 21> 		H    1.278800  -1.009094  -0.494934
| 22> 		H    2.082925   0.690883   0.006272
| 23> *
| 24>
| 25>                          ****END OF INPUT****

CARTESIAN COORDINATES (ANGSTROEM)
---------------------------------
  C     -1.254105   -0.301609   -0.006343
  O     -1.638162   -1.086738    0.768891
  C      0.001562    0.552660    0.162151
  C      1.184695    0.075522   -0.128424
  H     -1.528647   -0.344767   -1.083141
  H     -0.184396    1.449061    0.759457
  H      1.278800   -1.009094   -0.494934
  H      2.082925    0.690883    0.006272

 Total Charge           Charge          ....    0
 Multiplicity           Mult            ....    1
 Number of Electrons    NEL             ....   30
 Basis Dimension        Dim             ....   76

ORBITAL ENERGIES
----------------

  NO   OCC          E(Eh)            E(eV)
   0   2.0000     -19.150164      -521.1024
   1   2.0000     -10.279380      -279.7161
   2   2.0000     -10.205765      -277.7130
   3   2.0000     -10.199885      -277.5530
   4   2.0000      -1.078840       -29.3567
   5   2.0000      -0.794109       -21.6088
   6   2.0000      -0.641335       -17.4516
   7   2.0000      -0.555543       -15.1171
   8   2.0000      -0.486460       -13.2372
   9   2.0000      -0.466770       -12.7014
  10   2.0000      -0.446138       -12.1400
  11   2.0000      -0.398042       -10.8313
  12   2.0000      -0.382265       -10.4020
  13   2.0000      -0.287574        -7.8253
  14   2.0000      -0.252527        -6.8716
  15   0.0000      -0.032278        -0.8783
  16   0.0000      -0.001353        -0.0368
  17   0.0000       0.082721         2.2510
  18   0.0000       0.087173         2.3721
  19   0.0000       0.103769         2.8237

MULLIKEN ATOMIC CHARGES
-----------------------
   0 C :    0.152316
   1 O :   -0.137894
   2 C :   -0.097347
   3 C :    0.016706
   4 H :   -0.017653
   5 H :    0.015150
   6 H :    0.035318
   7 H :    0.033404
Sum of atomic charges:   -0.0000000

LOEWDIN ATOMIC CHARGES
----------------------
   0 C :   -0.044634
   1 O :    0.056448
   2 C :   -0.067331
   3 C :   -0.038822
   4 H :   -0.011889
   5 H :    0.032079
   6 H :    0.040616
   7 H :    0.033533

  Mayer bond orders larger than 0.100000
B(  0-C ,  1-O ) :   2.2812 B(  0-C ,  2-C ) :   0.9584 B(  0-C ,  4-H ) :   0.9038
B(  2-C ,  3-C ) :   2.0549 B(  2-C ,  5-H ) :   0.9353 B(  3-C ,  6-H ) :   0.9369
B(  3-C ,  7-H ) :   0.9403

-----------------------------------------------------------------------------
         ABSORPTION SPECTRUM VIA TRANSITION ELECTRIC DIPOLE MOMENTS
-----------------------------------------------------------------------------
State   Energy    Wavelength  fosc         T2        TX        TY        TZ
        (cm-1)      (nm)                 (au**2)    (au)      (au)      (au)
-----------------------------------------------------------------------------
   1   33632.8    297.3   0.000916090   0.00897   0.05377   0.02134   0.07497

FINAL SINGLE POINT ENERGY      -191.630678214628

DIPOLE MOMENT
-------------
                                X             Y             Z
Electronic contribution:     -2.80770      -1.04048       1.15120
Nuclear contribution   :      3.22685       1.57296      -1.54449
                        -----------------------------------------
Total Dipole Moment    :      0.41915       0.53248      -0.39329
                        -----------------------------------------
Magnitude (a.u.)       :      0.78352
Magnitude (Debye)      :      1.99154

Rotational constants in cm-1:     0.964757     0.172001     0.162157
Rotational constants in MHz : 28922.687332  5156.462707  4861.348687

                             ****ORCA TERMINATED NORMALLY****
TOTAL RUN TIME: 0 days 0 hours 3 minutes 21 seconds 156 msec
