                         Program Version 5.0.3 -  RELEASE  -
|  1> ! B3LYP cc-pVDZ
|  2> !TightSCF
|  3> %scf
|  4>  ConvForced true
|  5>  convergence tight
|  6>  MaxIter 500
|  7> end
|  8>
|  9> %tddft
| 10>  nroots 1
| 11> end
| 12>
| 13> # 	10969
| 14> * xyz 0 1
| 15> 		C   -1.233614  -0.300932  -0.057185
| 16> 		O   -1.449017  -1.221005  -0.680403
| 17> 		C   -0.010131   0.509948  -0.161932
| 18> 		C    1.208981  -0.025198   0.082155
| 19> 		H   -1.920047  -0.015310   0.733956
| 20> 		H   -0.079287   1.623920  -0.323257
| 21> 		H    1.223653  -1.086749   0.332976
| 22> 		H    2.235093   0.567392   0.051076
| 23> *
| 24>
| 25>                          ****END OF INPUT****

CARTESIAN COORDINATES (ANGSTROEM)
---------------------------------
  C     -1.233614   -0.300932   -0.057185
  O     -1.449017   -1.221005   -0.680403
  C     -0.010131    0.509948   -0.161932
  C      1.208981   -0.025198    0.082155
  H     -1.920047   -0.015310    0.733956
  H     -0.079287    1.623920   -0.323257
  H      1.223653   -1.086749    0.332976
  H      2.235093    0.567392    0.051076

 Total Charge           Charge          ....    0
 Multiplicity           Mult            ....    1
 Number of Electrons    NEL             ....   30
 Basis Dimension        Dim             ....   76

ORBITAL ENERGIES
----------------

  NO   OCC          E(Eh)            E(eV)
   0   2.0000     -19.139689      -520.8174
   1   2.0000     -10.269476      -279.4466
   2   2.0000     -10.215208      -277.9699
   3   2.0000     -10.204426      -277.6766
   4   2.0000      -1.096471       -29.8365
   5   2.0000      -0.788062       -21.4443
   6   2.0000      -0.645336       -17.5605
   7   2.0000      -0.548720       -14.9314
   8   2.0000      -0.507790       -13.8177
   9   2.0000      -0.455884       -12.4052
  10   2.0000      -0.447516       -12.1775
  11   2.0000      -0.401799       -10.9335
  12   2.0000      -0.379115       -10.3163
  13   2.0000      -0.283352        -7.7104
  14   2.0000      -0.253599        -6.9008
  15   0.0000      -0.034890        -0.9494
  16   0.0000       0.016290         0.4433
  17   0.0000       0.072197         1.9646
  18   0.0000       0.094977         2.5845
  19   0.0000       0.111520         3.0346

MULLIKEN ATOMIC CHARGES
-----------------------
   0 C :    0.178347
   1 O :   -0.117904
   2 C :   -0.109052
   3 C :   -0.007035
   4 H :   -0.041932
   5 H :    0.015933
   6 H :    0.026735
   7 H :    0.054907
Sum of atomic charges:   -0.0000000

LOEWDIN ATOMIC CHARGES
----------------------
   0 C :   -0.083596
   1 O :    0.084930
   2 C :   -0.070282
   3 C :   -0.025652
   4 H :   -0.017368
   5 H :    0.037859
   6 H :    0.025473
   7 H :    0.048636

  Mayer bond orders larger than 0.100000
B(  0-C ,  1-O ) :   2.3062 B(  0-C ,  2-C ) :   0.9819 B(  0-C ,  4-H ) :   0.9099
B(  2-C ,  3-C ) :   2.0096 B(  2-C ,  5-H ) :   0.9331 B(  3-C ,  6-H ) :   0.9399
B(  3-C ,  7-H ) :   0.9461

-----------------------------------------------------------------------------
         ABSORPTION SPECTRUM VIA TRANSITION ELECTRIC DIPOLE MOMENTS
-----------------------------------------------------------------------------
State   Energy    Wavelength  fosc         T2        TX        TY        TZ
        (cm-1)      (nm)                 (au**2)    (au)      (au)      (au)
-----------------------------------------------------------------------------
   1   34916.8    286.4   0.000083194   0.00078  -0.02679  -0.00813  -0.00083

FINAL SINGLE POINT ENERGY      -191.623126736637

DIPOLE MOMENT
-------------
                                X             Y             Z
Electronic contribution:     -2.46947      -1.46057      -1.11485
Nuclear contribution   :      2.83484       2.09444       1.52379
                        -----------------------------------------
Total Dipole Moment    :      0.36537       0.63387       0.40894
                        -----------------------------------------
Magnitude (a.u.)       :      0.83817
Magnitude (Debye)      :      2.13045

Rotational constants in cm-1:     0.886793     0.190030     0.165931
Rotational constants in MHz : 26585.384009  5696.949027  4974.483252

                             ****ORCA TERMINATED NORMALLY****
TOTAL RUN TIME: 0 days 0 hours 3 minutes 21 seconds 573 msec
