                         Program Version 5.0.3 -  RELEASE  -
|  1> ! B3LYP cc-pVDZ
|  2> !TightSCF
|  3> %scf
|  4>  ConvForced true
|  5>  convergence tight
|  6>  MaxIter 500
|  7> end
|  8>
|  9> %tddft
| 10>  nroots 1
| 11> end
| 12>
| 13> # 	13214
| 14> * xyz 0 1
| 15> 		C   -1.180517  -0.336973   0.040078
| 16> 		O   -1.830082  -0.853673   0.968916
| 17> 		C    0.025414   0.470272   0.311103
| 18> 		C    1.199916   0.086031  -0.166898
| 19> 		H   -1.418980  -0.432323  -1.053226
| 20> 		H   -0.224571   1.311944   0.891160
| 21> 		H    1.250417  -0.822853  -0.785623
| 22> 		H    2.211477   0.614813  -0.114202
| 23> *
| 24>
| 25>                          ****END OF INPUT****

CARTESIAN COORDINATES (ANGSTROEM)
---------------------------------
  C     -1.180517   -0.336973    0.040078
  O     -1.830082   -0.853673    0.968916
  C      0.025414    0.470272    0.311103
  C      1.199916    0.086031   -0.166898
  H     -1.418980   -0.432323   -1.053226
  H     -0.224571    1.311944    0.891160
  H      1.250417   -0.822853   -0.785623
  H      2.211477    0.614813   -0.114202

 Total Charge           Charge          ....    0
 Multiplicity           Mult            ....    1
 Number of Electrons    NEL             ....   30
 Basis Dimension        Dim             ....   76

ORBITAL ENERGIES
----------------

  NO   OCC          E(Eh)            E(eV)
   0   2.0000     -19.146764      -521.0099
   1   2.0000     -10.283983      -279.8414
   2   2.0000     -10.214410      -277.9482
   3   2.0000     -10.204680      -277.6835
   4   2.0000      -1.033248       -28.1161
   5   2.0000      -0.802303       -21.8318
   6   2.0000      -0.649975       -17.6867
   7   2.0000      -0.570121       -15.5138
   8   2.0000      -0.478512       -13.0210
   9   2.0000      -0.471426       -12.8282
  10   2.0000      -0.437882       -11.9154
  11   2.0000      -0.383575       -10.4376
  12   2.0000      -0.369686       -10.0597
  13   2.0000      -0.290113        -7.8944
  14   2.0000      -0.257981        -7.0200
  15   0.0000      -0.056239        -1.5303
  16   0.0000       0.008816         0.2399
  17   0.0000       0.080002         2.1770
  18   0.0000       0.090047         2.4503
  19   0.0000       0.105811         2.8793

MULLIKEN ATOMIC CHARGES
-----------------------
   0 C :    0.157235
   1 O :   -0.211409
   2 C :   -0.025364
   3 C :    0.004730
   4 H :    0.004694
   5 H :   -0.000072
   6 H :    0.022926
   7 H :    0.047261
Sum of atomic charges:   -0.0000000

LOEWDIN ATOMIC CHARGES
----------------------
   0 C :    0.002323
   1 O :   -0.022820
   2 C :   -0.050997
   3 C :   -0.028340
   4 H :    0.001255
   5 H :    0.027766
   6 H :    0.029299
   7 H :    0.041515

  Mayer bond orders larger than 0.100000
B(  0-C ,  1-O ) :   2.1698 B(  0-C ,  2-C ) :   1.0169 B(  0-C ,  4-H ) :   0.9145
B(  2-C ,  3-C ) :   1.9941 B(  2-C ,  5-H ) :   0.9521 B(  3-C ,  6-H ) :   0.9385
B(  3-C ,  7-H ) :   0.9504

-----------------------------------------------------------------------------
         ABSORPTION SPECTRUM VIA TRANSITION ELECTRIC DIPOLE MOMENTS
-----------------------------------------------------------------------------
State   Energy    Wavelength  fosc         T2        TX        TY        TZ
        (cm-1)      (nm)                 (au**2)    (au)      (au)      (au)
-----------------------------------------------------------------------------
   1   30085.3    332.4   0.000720344   0.00788  -0.08326  -0.00326   0.03066

FINAL SINGLE POINT ENERGY      -191.655106313476

DIPOLE MOMENT
-------------
                                X             Y             Z
Electronic contribution:     -2.83006      -0.83306       1.45377
Nuclear contribution   :      3.48710       1.31273      -2.10044
                        -----------------------------------------
Total Dipole Moment    :      0.65704       0.47966      -0.64666
                        -----------------------------------------
Magnitude (a.u.)       :      1.03921
Magnitude (Debye)      :      2.64145

Rotational constants in cm-1:     1.144278     0.159942     0.155443
Rotational constants in MHz : 34304.587592  4794.945954  4660.078517

                             ****ORCA TERMINATED NORMALLY****
TOTAL RUN TIME: 0 days 0 hours 3 minutes 6 seconds 659 msec
