                         Program Version 5.0.3 -  RELEASE  -
|  1> ! HF-3c
|  2> !TightSCF
|  3> %scf
|  4>  ConvForced true
|  5>  convergence tight
|  6>  MaxIter 500
|  7> end
|  8>
|  9> %tddft
| 10>  nroots 1
| 11> end
| 12>
| 13> # 	5683
| 14> * xyz 0 1
| 15> 		C   -1.288043  -0.252582   0.032473
| 16> 		O   -1.172748  -1.481943   0.180632
| 17> 		C    0.008877   0.492641   0.023958
| 18> 		C    1.283767   0.051292  -0.010866
| 19> 		H   -2.271895   0.182617  -0.078510
| 20> 		H   -0.143031   1.556165   0.189691
| 21> 		H    1.362237  -1.053179  -0.169397
| 22> 		H    2.234931   0.561582  -0.141782
| 23> *
| 24>
| 25>                          ****END OF INPUT****

CARTESIAN COORDINATES (ANGSTROEM)
---------------------------------
  C     -1.288043   -0.252582    0.032473
  O     -1.172748   -1.481943    0.180632
  C      0.008877    0.492641    0.023958
  C      1.283767    0.051292   -0.010866
  H     -2.271895    0.182617   -0.078510
  H     -0.143031    1.556165    0.189691
  H      1.362237   -1.053179   -0.169397
  H      2.234931    0.561582   -0.141782

 Total Charge           Charge          ....    0
 Multiplicity           Mult            ....    1
 Number of Electrons    NEL             ....   30
 Basis Dimension        Dim             ....   24

ORBITAL ENERGIES
----------------

  NO   OCC          E(Eh)            E(eV)
   0   2.0000     -20.355835      -553.9104
   1   2.0000     -11.291298      -307.2519
   2   2.0000     -11.185789      -304.3808
   3   2.0000     -11.184280      -304.3397
   4   2.0000      -1.382030       -37.6070
   5   2.0000      -1.058367       -28.7996
   6   2.0000      -0.890068       -24.2200
   7   2.0000      -0.758836       -20.6490
   8   2.0000      -0.689228       -18.7548
   9   2.0000      -0.618166       -16.8211
  10   2.0000      -0.589607       -16.0440
  11   2.0000      -0.526896       -14.3376
  12   2.0000      -0.502098       -13.6628
  13   2.0000      -0.419694       -11.4204
  14   2.0000      -0.381551       -10.3825
  15   0.0000       0.126606         3.4451
  16   0.0000       0.294187         8.0052
  17   0.0000       0.485521        13.2117
  18   0.0000       0.653880        17.7930
  19   0.0000       0.675794        18.3893

MULLIKEN ATOMIC CHARGES
-----------------------
   0 C :    0.137392
   1 O :   -0.337955
   2 C :   -0.163019
   3 C :   -0.221518
   4 H :    0.154085
   5 H :    0.129247
   6 H :    0.149176
   7 H :    0.152591
Sum of atomic charges:   -0.0000000

LOEWDIN ATOMIC CHARGES
----------------------
   0 C :    0.131661
   1 O :   -0.253529
   2 C :   -0.120492
   3 C :   -0.126122
   4 H :    0.088536
   5 H :    0.079518
   6 H :    0.099177
   7 H :    0.101251

  Mayer bond orders larger than 0.100000
B(  0-C ,  1-O ) :   1.8993 B(  0-C ,  2-C ) :   1.0332 B(  0-C ,  4-H ) :   0.9331
B(  2-C ,  3-C ) :   1.9492 B(  2-C ,  5-H ) :   0.9606 B(  3-C ,  6-H ) :   0.9593
B(  3-C ,  7-H ) :   0.9641

-----------------------------------------------------------------------------
         ABSORPTION SPECTRUM VIA TRANSITION ELECTRIC DIPOLE MOMENTS
-----------------------------------------------------------------------------
State   Energy    Wavelength  fosc         T2        TX        TY        TZ
        (cm-1)      (nm)                 (au**2)    (au)      (au)      (au)
-----------------------------------------------------------------------------
   1   29503.7    338.9   0.000167470   0.00187  -0.04315  -0.00116   0.00224

Dispersion correction           -0.025238053
FINAL SINGLE POINT ENERGY      -189.342548016968

DIPOLE MOMENT
-------------
                                X             Y             Z
Electronic contribution:     -2.09350      -1.56070       0.25551
Nuclear contribution   :      2.26887       2.42180      -0.40239
                        -----------------------------------------
Total Dipole Moment    :      0.17537       0.86110      -0.14689
                        -----------------------------------------
Magnitude (a.u.)       :      0.89097
Magnitude (Debye)      :      2.26466

Rotational constants in cm-1:     0.759033     0.202697     0.160563
Rotational constants in MHz : 22755.249582  6076.706491  4813.546380

                             ****ORCA TERMINATED NORMALLY****
TOTAL RUN TIME: 0 days 0 hours 0 minutes 15 seconds 965 msec
