                         Program Version 5.0.3 -  RELEASE  -
|  1> ! HF-3c
|  2> !TightSCF
|  3> %scf
|  4>  ConvForced true
|  5>  convergence tight
|  6>  MaxIter 500
|  7> end
|  8>
|  9> %tddft
| 10>  nroots 1
| 11> end
| 12>
| 13> # 	22002
| 14> * xyz 0 1
| 15> 		C   -0.633331  -0.424372   0.010978
| 16> 		O   -0.609887  -1.680596  -0.004798
| 17> 		C    0.595572   0.395937   0.001175
| 18> 		C    1.962470  -0.071488   0.006307
| 19> 		H   -1.581398   0.152513  -0.066273
| 20> 		H    0.328766   1.521316  -0.002394
| 21> 		H    2.126899  -1.128648   0.011565
| 22> 		H    2.801697   0.590579  -0.091013
| 23> *
| 24>
| 25>                          ****END OF INPUT****

CARTESIAN COORDINATES (ANGSTROEM)
---------------------------------
  C     -0.633331   -0.424372    0.010978
  O     -0.609887   -1.680596   -0.004798
  C      0.595572    0.395937    0.001175
  C      1.962470   -0.071488    0.006307
  H     -1.581398    0.152513   -0.066273
  H      0.328766    1.521316   -0.002394
  H      2.126899   -1.128648    0.011565
  H      2.801697    0.590579   -0.091013

 Total Charge           Charge          ....    0
 Multiplicity           Mult            ....    1
 Number of Electrons    NEL             ....   30
 Basis Dimension        Dim             ....   24

ORBITAL ENERGIES
----------------

  NO   OCC          E(Eh)            E(eV)
   0   2.0000     -20.349562      -553.7397
   1   2.0000     -11.283753      -307.0465
   2   2.0000     -11.191542      -304.5373
   3   2.0000     -11.182117      -304.2809
   4   2.0000      -1.364297       -37.1244
   5   2.0000      -1.039521       -28.2868
   6   2.0000      -0.897674       -24.4270
   7   2.0000      -0.741576       -20.1793
   8   2.0000      -0.674397       -18.3513
   9   2.0000      -0.597575       -16.2609
  10   2.0000      -0.591262       -16.0891
  11   2.0000      -0.520491       -14.1633
  12   2.0000      -0.515034       -14.0148
  13   2.0000      -0.413488       -11.2516
  14   2.0000      -0.360448        -9.8083
  15   0.0000       0.105786         2.8786
  16   0.0000       0.289483         7.8772
  17   0.0000       0.534063        14.5326
  18   0.0000       0.584573        15.9070
  19   0.0000       0.655489        17.8368

MULLIKEN ATOMIC CHARGES
-----------------------
   0 C :    0.138153
   1 O :   -0.344419
   2 C :   -0.151731
   3 C :   -0.215827
   4 H :    0.139870
   5 H :    0.132013
   6 H :    0.155126
   7 H :    0.146815
Sum of atomic charges:    0.0000000

LOEWDIN ATOMIC CHARGES
----------------------
   0 C :    0.131890
   1 O :   -0.263595
   2 C :   -0.117712
   3 C :   -0.112693
   4 H :    0.078767
   5 H :    0.087565
   6 H :    0.100424
   7 H :    0.095354

  Mayer bond orders larger than 0.100000
B(  0-C ,  1-O ) :   1.8816 B(  0-C ,  2-C ) :   1.0589 B(  0-C ,  4-H ) :   0.9288
B(  2-C ,  3-C ) :   1.9091 B(  2-C ,  5-H ) :   0.9623 B(  3-C ,  6-H ) :   0.9641
B(  3-C ,  7-H ) :   0.9678

-----------------------------------------------------------------------------
         ABSORPTION SPECTRUM VIA TRANSITION ELECTRIC DIPOLE MOMENTS
-----------------------------------------------------------------------------
State   Energy    Wavelength  fosc         T2        TX        TY        TZ
        (cm-1)      (nm)                 (au**2)    (au)      (au)      (au)
-----------------------------------------------------------------------------
   1   28908.0    345.9   0.000008563   0.00010  -0.00980  -0.00014  -0.00117

Dispersion correction           -0.024568748
FINAL SINGLE POINT ENERGY      -189.338943972530

DIPOLE MOMENT
-------------
                                X             Y             Z
Electronic contribution:     -1.97870      -1.84505       0.11218
Nuclear contribution   :      2.29288       2.85127      -0.13874
                        -----------------------------------------
Total Dipole Moment    :      0.31418       1.00622      -0.02656
                        -----------------------------------------
Magnitude (a.u.)       :      1.05446
Magnitude (Debye)      :      2.68023

Rotational constants in cm-1:     0.720797     0.191182     0.151145
Rotational constants in MHz : 21608.939486  5731.494497  4531.213019

                             ****ORCA TERMINATED NORMALLY****
TOTAL RUN TIME: 0 days 0 hours 0 minutes 16 seconds 60 msec
