                         Program Version 5.0.3 -  RELEASE  -
|  1> ! HF-3c
|  2> !TightSCF
|  3> %scf
|  4>  ConvForced true
|  5>  convergence tight
|  6>  MaxIter 500
|  7> end
|  8>
|  9> %tddft
| 10>  nroots 1
| 11> end
| 12>
| 13> # 	26831
| 14> * xyz 0 1
| 15> 		C   -0.575309  -0.424320  -0.045203
| 16> 		O   -0.574028  -1.636981   0.049042
| 17> 		C    0.589081   0.413025   0.014603
| 18> 		C    1.850183  -0.126775  -0.028676
| 19> 		H   -1.411429   0.062355  -0.295122
| 20> 		H    0.521314   1.608740   0.317417
| 21> 		H    1.875087  -1.227452  -0.321864
| 22> 		H    2.881650   0.425418   0.265226
| 23> *
| 24>
| 25>                          ****END OF INPUT****

CARTESIAN COORDINATES (ANGSTROEM)
---------------------------------
  C     -0.575309   -0.424320   -0.045203
  O     -0.574028   -1.636981    0.049042
  C      0.589081    0.413025    0.014603
  C      1.850183   -0.126775   -0.028676
  H     -1.411429    0.062355   -0.295122
  H      0.521314    1.608740    0.317417
  H      1.875087   -1.227452   -0.321864
  H      2.881650    0.425418    0.265226

 Total Charge           Charge          ....    0
 Multiplicity           Mult            ....    1
 Number of Electrons    NEL             ....   30
 Basis Dimension        Dim             ....   24

ORBITAL ENERGIES
----------------

  NO   OCC          E(Eh)            E(eV)
   0   2.0000     -20.361020      -554.0515
   1   2.0000     -11.296906      -307.4044
   2   2.0000     -11.183384      -304.3153
   3   2.0000     -11.173078      -304.0349
   4   2.0000      -1.397880       -38.0383
   5   2.0000      -1.058893       -28.8140
   6   2.0000      -0.896572       -24.3970
   7   2.0000      -0.742185       -20.1959
   8   2.0000      -0.680170       -18.5084
   9   2.0000      -0.604794       -16.4573
  10   2.0000      -0.580200       -15.7880
  11   2.0000      -0.531148       -14.4533
  12   2.0000      -0.495412       -13.4808
  13   2.0000      -0.420302       -11.4370
  14   2.0000      -0.373052       -10.1513
  15   0.0000       0.125310         3.4099
  16   0.0000       0.304021         8.2728
  17   0.0000       0.484858        13.1937
  18   0.0000       0.547439        14.8966
  19   0.0000       0.609669        16.5899

MULLIKEN ATOMIC CHARGES
-----------------------
   0 C :    0.134695
   1 O :   -0.348148
   2 C :   -0.176503
   3 C :   -0.189609
   4 H :    0.137269
   5 H :    0.141255
   6 H :    0.151343
   7 H :    0.149699
Sum of atomic charges:    0.0000000

LOEWDIN ATOMIC CHARGES
----------------------
   0 C :    0.133622
   1 O :   -0.257963
   2 C :   -0.151013
   3 C :   -0.100701
   4 H :    0.064795
   5 H :    0.101503
   6 H :    0.102219
   7 H :    0.107537

  Mayer bond orders larger than 0.100000
B(  0-C ,  1-O ) :   1.8823 B(  0-C ,  2-C ) :   1.0566 B(  0-C ,  4-H ) :   0.9348
B(  2-C ,  3-C ) :   1.9161 B(  2-C ,  5-H ) :   0.9521 B(  3-C ,  6-H ) :   0.9570
B(  3-C ,  7-H ) :   0.9609

-----------------------------------------------------------------------------
         ABSORPTION SPECTRUM VIA TRANSITION ELECTRIC DIPOLE MOMENTS
-----------------------------------------------------------------------------
State   Energy    Wavelength  fosc         T2        TX        TY        TZ
        (cm-1)      (nm)                 (au**2)    (au)      (au)      (au)
-----------------------------------------------------------------------------
   1   31794.0    314.5   0.000126324   0.00131  -0.03436   0.00339  -0.01075

Dispersion correction           -0.025550868
FINAL SINGLE POINT ENERGY      -189.301209558957

DIPOLE MOMENT
-------------
                                X             Y             Z
Electronic contribution:     -1.98564      -1.65835       0.01013
Nuclear contribution   :      2.46986       2.60367      -0.03405
                        -----------------------------------------
Total Dipole Moment    :      0.48421       0.94531      -0.02393
                        -----------------------------------------
Magnitude (a.u.)       :      1.06238
Magnitude (Debye)      :      2.70036

Rotational constants in cm-1:     0.742545     0.209926     0.165068
Rotational constants in MHz : 22260.924783  6293.422445  4948.611346

                             ****ORCA TERMINATED NORMALLY****
TOTAL RUN TIME: 0 days 0 hours 0 minutes 8 seconds 958 msec
