                         Program Version 5.0.3 -  RELEASE  -
|  1> ! HF-3c
|  2> !TightSCF
|  3> %scf
|  4>  ConvForced true
|  5>  convergence tight
|  6>  MaxIter 500
|  7> end
|  8>
|  9> %tddft
| 10>  nroots 1
| 11> end
| 12>
| 13> # 	2300
| 14> * xyz 0 1
| 15> 		C   -1.218725  -0.277711  -0.040102
| 16> 		O   -1.145572  -1.476297  -0.041498
| 17> 		C   -0.019901   0.555162  -0.102330
| 18> 		C    1.244626  -0.053211  -0.082565
| 19> 		H   -2.245554   0.212031   0.195690
| 20> 		H   -0.146984   1.791709  -0.157973
| 21> 		H    1.234870  -1.214622  -0.022742
| 22> 		H    2.233074   0.439542   0.215701
| 23> *
| 24>
| 25>                          ****END OF INPUT****

CARTESIAN COORDINATES (ANGSTROEM)
---------------------------------
  C     -1.218725   -0.277711   -0.040102
  O     -1.145572   -1.476297   -0.041498
  C     -0.019901    0.555162   -0.102330
  C      1.244626   -0.053211   -0.082565
  H     -2.245554    0.212031    0.195690
  H     -0.146984    1.791709   -0.157973
  H      1.234870   -1.214622   -0.022742
  H      2.233074    0.439542    0.215701

 Total Charge           Charge          ....    0
 Multiplicity           Mult            ....    1
 Number of Electrons    NEL             ....   30
 Basis Dimension        Dim             ....   24

ORBITAL ENERGIES
----------------

  NO   OCC          E(Eh)            E(eV)
   0   2.0000     -20.350538      -553.7663
   1   2.0000     -11.290641      -307.2340
   2   2.0000     -11.179263      -304.2032
   3   2.0000     -11.173922      -304.0579
   4   2.0000      -1.402305       -38.1587
   5   2.0000      -1.039702       -28.2917
   6   2.0000      -0.868058       -23.6211
   7   2.0000      -0.722544       -19.6614
   8   2.0000      -0.669143       -18.2083
   9   2.0000      -0.596513       -16.2319
  10   2.0000      -0.569853       -15.5065
  11   2.0000      -0.538962       -14.6659
  12   2.0000      -0.492459       -13.4005
  13   2.0000      -0.404414       -11.0047
  14   2.0000      -0.363218        -9.8837
  15   0.0000       0.127933         3.4812
  16   0.0000       0.303743         8.2653
  17   0.0000       0.482191        13.1211
  18   0.0000       0.551620        15.0103
  19   0.0000       0.597990        16.2721

MULLIKEN ATOMIC CHARGES
-----------------------
   0 C :    0.158849
   1 O :   -0.368338
   2 C :   -0.165135
   3 C :   -0.200588
   4 H :    0.135771
   5 H :    0.137715
   6 H :    0.156192
   7 H :    0.145534
Sum of atomic charges:    0.0000000

LOEWDIN ATOMIC CHARGES
----------------------
   0 C :    0.137070
   1 O :   -0.272470
   2 C :   -0.138350
   3 C :   -0.110275
   4 H :    0.077274
   5 H :    0.098646
   6 H :    0.108361
   7 H :    0.099745

  Mayer bond orders larger than 0.100000
B(  0-C ,  1-O ) :   1.8860 B(  0-C ,  2-C ) :   1.0455 B(  0-C ,  4-H ) :   0.9186
B(  2-C ,  3-C ) :   1.9154 B(  2-C ,  5-H ) :   0.9558 B(  3-C ,  6-H ) :   0.9548
B(  3-C ,  7-H ) :   0.9640

-----------------------------------------------------------------------------
         ABSORPTION SPECTRUM VIA TRANSITION ELECTRIC DIPOLE MOMENTS
-----------------------------------------------------------------------------
State   Energy    Wavelength  fosc         T2        TX        TY        TZ
        (cm-1)      (nm)                 (au**2)    (au)      (au)      (au)
-----------------------------------------------------------------------------
   1   32767.5    305.2   0.000065470   0.00066  -0.01773  -0.00076   0.01851

Dispersion correction           -0.025229861
FINAL SINGLE POINT ENERGY      -189.304906533833

DIPOLE MOMENT
-------------
                                X             Y             Z
Electronic contribution:     -1.82239      -1.52583      -0.31893
Nuclear contribution   :      2.14593       2.45386       0.42640
                        -----------------------------------------
Total Dipole Moment    :      0.32354       0.92803       0.10746
                        -----------------------------------------
Magnitude (a.u.)       :      0.98867
Magnitude (Debye)      :      2.51300

Rotational constants in cm-1:     0.688161     0.218070     0.166162
Rotational constants in MHz : 20630.545672  6537.563025  4981.412868

                             ****ORCA TERMINATED NORMALLY****
TOTAL RUN TIME: 0 days 0 hours 0 minutes 12 seconds 566 msec
