                         Program Version 5.0.3 -  RELEASE  -
|  1> ! HF-3c
|  2> !TightSCF
|  3> %scf
|  4>  ConvForced true
|  5>  convergence tight
|  6>  MaxIter 500
|  7> end
|  8>
|  9> %tddft
| 10>  nroots 1
| 11> end
| 12>
| 13> # 	25595
| 14> * xyz 0 1
| 15> 		C   -0.544842  -0.420450   0.015341
| 16> 		O   -0.552524  -1.594688  -0.018950
| 17> 		C    0.619132   0.406886  -0.018469
| 18> 		C    1.797059  -0.166550  -0.007881
| 19> 		H   -1.683814   0.063891   0.242510
| 20> 		H    0.468264   1.484243  -0.118699
| 21> 		H    1.851384  -1.192799   0.205483
| 22> 		H    2.777453   0.352098   0.095848
| 23> *
| 24>
| 25>                          ****END OF INPUT****

CARTESIAN COORDINATES (ANGSTROEM)
---------------------------------
  C     -0.544842   -0.420450    0.015341
  O     -0.552524   -1.594688   -0.018950
  C      0.619132    0.406886   -0.018469
  C      1.797059   -0.166550   -0.007881
  H     -1.683814    0.063891    0.242510
  H      0.468264    1.484243   -0.118699
  H      1.851384   -1.192799    0.205483
  H      2.777453    0.352098    0.095848

 Total Charge           Charge          ....    0
 Multiplicity           Mult            ....    1
 Number of Electrons    NEL             ....   30
 Basis Dimension        Dim             ....   24

ORBITAL ENERGIES
----------------

  NO   OCC          E(Eh)            E(eV)
   0   2.0000     -20.361180      -554.0559
   1   2.0000     -11.296115      -307.3829
   2   2.0000     -11.197877      -304.7097
   3   2.0000     -11.196265      -304.6659
   4   2.0000      -1.424327       -38.7579
   5   2.0000      -1.097292       -29.8588
   6   2.0000      -0.887285       -24.1443
   7   2.0000      -0.733368       -19.9560
   8   2.0000      -0.708750       -19.2861
   9   2.0000      -0.626325       -17.0432
  10   2.0000      -0.591088       -16.0843
  11   2.0000      -0.556666       -15.1476
  12   2.0000      -0.530464       -14.4347
  13   2.0000      -0.404481       -11.0065
  14   2.0000      -0.395554       -10.7636
  15   0.0000       0.136298         3.7089
  16   0.0000       0.325766         8.8645
  17   0.0000       0.476049        12.9539
  18   0.0000       0.622613        16.9422
  19   0.0000       0.668205        18.1828

MULLIKEN ATOMIC CHARGES
-----------------------
   0 C :    0.186924
   1 O :   -0.369929
   2 C :   -0.189249
   3 C :   -0.212421
   4 H :    0.124958
   5 H :    0.149765
   6 H :    0.158432
   7 H :    0.151520
Sum of atomic charges:   -0.0000000

LOEWDIN ATOMIC CHARGES
----------------------
   0 C :    0.145026
   1 O :   -0.265074
   2 C :   -0.141409
   3 C :   -0.110236
   4 H :    0.073170
   5 H :    0.096796
   6 H :    0.100288
   7 H :    0.101438

  Mayer bond orders larger than 0.100000
B(  0-C ,  1-O ) :   1.9004 B(  0-C ,  2-C ) :   1.0353 B(  0-C ,  4-H ) :   0.9075
B(  2-C ,  3-C ) :   1.9394 B(  2-C ,  5-H ) :   0.9556 B(  3-C ,  6-H ) :   0.9581
B(  3-C ,  7-H ) :   0.9622

-----------------------------------------------------------------------------
         ABSORPTION SPECTRUM VIA TRANSITION ELECTRIC DIPOLE MOMENTS
-----------------------------------------------------------------------------
State   Energy    Wavelength  fosc         T2        TX        TY        TZ
        (cm-1)      (nm)                 (au**2)    (au)      (au)      (au)
-----------------------------------------------------------------------------
   1   33410.8    299.3   0.000114104   0.00112  -0.01927  -0.00037   0.02744

Dispersion correction           -0.026212381
FINAL SINGLE POINT ENERGY      -189.314938891600

DIPOLE MOMENT
-------------
                                X             Y             Z
Electronic contribution:     -1.69661      -1.53861      -0.29646
Nuclear contribution   :      2.04649       2.45207       0.39904
                        -----------------------------------------
Total Dipole Moment    :      0.34988       0.91346       0.10258
                        -----------------------------------------
Magnitude (a.u.)       :      0.98353
Magnitude (Debye)      :      2.49994

Rotational constants in cm-1:     0.778135     0.223250     0.173975
Rotational constants in MHz : 23327.901345  6692.856332  5215.627661

                             ****ORCA TERMINATED NORMALLY****
TOTAL RUN TIME: 0 days 0 hours 0 minutes 11 seconds 439 msec
