                         Program Version 5.0.3 -  RELEASE  -
|  1> ! HF-3c
|  2> !TightSCF
|  3> %scf
|  4>  ConvForced true
|  5>  convergence tight
|  6>  MaxIter 500
|  7> end
|  8>
|  9> %tddft
| 10>  nroots 1
| 11> end
| 12>
| 13> # 	13101
| 14> * xyz 0 1
| 15> 		C   -1.222290  -0.332261   0.063293
| 16> 		O   -1.183220  -1.531932   0.156270
| 17> 		C   -0.003112   0.533979   0.081486
| 18> 		C    1.183253  -0.082714  -0.031339
| 19> 		H   -2.118835   0.252576  -0.267731
| 20> 		H   -0.148630   1.714780  -0.026311
| 21> 		H    1.290242  -1.125402  -0.037273
| 22> 		H    2.190318   0.549578   0.015746
| 23> *
| 24>
| 25>                          ****END OF INPUT****

CARTESIAN COORDINATES (ANGSTROEM)
---------------------------------
  C     -1.222290   -0.332261    0.063293
  O     -1.183220   -1.531932    0.156270
  C     -0.003112    0.533979    0.081486
  C      1.183253   -0.082714   -0.031339
  H     -2.118835    0.252576   -0.267731
  H     -0.148630    1.714780   -0.026311
  H      1.290242   -1.125402   -0.037273
  H      2.190318    0.549578    0.015746

 Total Charge           Charge          ....    0
 Multiplicity           Mult            ....    1
 Number of Electrons    NEL             ....   30
 Basis Dimension        Dim             ....   24

ORBITAL ENERGIES
----------------

  NO   OCC          E(Eh)            E(eV)
   0   2.0000     -20.365273      -554.1672
   1   2.0000     -11.294062      -307.3271
   2   2.0000     -11.183065      -304.3067
   3   2.0000     -11.178399      -304.1797
   4   2.0000      -1.404670       -38.2230
   5   2.0000      -1.064083       -28.9552
   6   2.0000      -0.879153       -23.9230
   7   2.0000      -0.732758       -19.9394
   8   2.0000      -0.686974       -18.6935
   9   2.0000      -0.613280       -16.6882
  10   2.0000      -0.575034       -15.6475
  11   2.0000      -0.535725       -14.5778
  12   2.0000      -0.520006       -14.1501
  13   2.0000      -0.406775       -11.0689
  14   2.0000      -0.385462       -10.4889
  15   0.0000       0.138330         3.7642
  16   0.0000       0.303756         8.2656
  17   0.0000       0.500475        13.6186
  18   0.0000       0.568337        15.4652
  19   0.0000       0.629600        17.1323

MULLIKEN ATOMIC CHARGES
-----------------------
   0 C :    0.170865
   1 O :   -0.359287
   2 C :   -0.168842
   3 C :   -0.215903
   4 H :    0.132236
   5 H :    0.143389
   6 H :    0.154117
   7 H :    0.143425
Sum of atomic charges:   -0.0000000

LOEWDIN ATOMIC CHARGES
----------------------
   0 C :    0.150231
   1 O :   -0.262177
   2 C :   -0.136321
   3 C :   -0.120405
   4 H :    0.070382
   5 H :    0.100217
   6 H :    0.097071
   7 H :    0.101000

  Mayer bond orders larger than 0.100000
B(  0-C ,  1-O ) :   1.9127 B(  0-C ,  2-C ) :   1.0139 B(  0-C ,  4-H ) :   0.9206
B(  2-C ,  3-C ) :   1.9483 B(  2-C ,  5-H ) :   0.9564 B(  3-C ,  6-H ) :   0.9605
B(  3-C ,  7-H ) :   0.9616

-----------------------------------------------------------------------------
         ABSORPTION SPECTRUM VIA TRANSITION ELECTRIC DIPOLE MOMENTS
-----------------------------------------------------------------------------
State   Energy    Wavelength  fosc         T2        TX        TY        TZ
        (cm-1)      (nm)                 (au**2)    (au)      (au)      (au)
-----------------------------------------------------------------------------
   1   33250.6    300.7   0.000025042   0.00025   0.00143  -0.00108   0.01564

Dispersion correction           -0.025606232
FINAL SINGLE POINT ENERGY      -189.322955735989

DIPOLE MOMENT
-------------
                                X             Y             Z
Electronic contribution:     -2.03668      -1.74597       0.38023
Nuclear contribution   :      2.34456       2.73956      -0.53194
                        -----------------------------------------
Total Dipole Moment    :      0.30788       0.99360      -0.15172
                        -----------------------------------------
Magnitude (a.u.)       :      1.05121
Magnitude (Debye)      :      2.67196

Rotational constants in cm-1:     0.720762     0.215778     0.166790
Rotational constants in MHz : 21607.896011  6468.863233  5000.243982

                             ****ORCA TERMINATED NORMALLY****
TOTAL RUN TIME: 0 days 0 hours 0 minutes 16 seconds 53 msec
