                         Program Version 5.0.3 -  RELEASE  -
|  1> ! B3LYP cc-pVDZ
|  2> !TightSCF
|  3> %scf
|  4>  ConvForced true
|  5>  convergence tight
|  6>  MaxIter 500
|  7> end
|  8>
|  9> %tddft
| 10>  nroots 1
| 11> end
| 12>
| 13> # 	7946
| 14> * xyz 0 1
| 15> 		C   -1.181081  -0.326097  -0.018300
| 16> 		O   -1.352234  -1.410733   0.618639
| 17> 		C    0.028376   0.498898   0.141275
| 18> 		C    1.283206  -0.010871  -0.108722
| 19> 		H   -1.955883   0.117293  -0.742303
| 20> 		H   -0.098771   1.487571   0.672350
| 21> 		H    1.286107  -1.009996  -0.501770
| 22> 		H    1.997132   0.649443  -0.085688
| 23> *
| 24>
| 25>                          ****END OF INPUT****

CARTESIAN COORDINATES (ANGSTROEM)
---------------------------------
  C     -1.181081   -0.326097   -0.018300
  O     -1.352234   -1.410733    0.618639
  C      0.028376    0.498898    0.141275
  C      1.283206   -0.010871   -0.108722
  H     -1.955883    0.117293   -0.742303
  H     -0.098771    1.487571    0.672350
  H      1.286107   -1.009996   -0.501770
  H      1.997132    0.649443   -0.085688

 Total Charge           Charge          ....    0
 Multiplicity           Mult            ....    1
 Number of Electrons    NEL             ....   30
 Basis Dimension        Dim             ....   76

ORBITAL ENERGIES
----------------

  NO   OCC          E(Eh)            E(eV)
   0   2.0000     -19.146161      -520.9935
   1   2.0000     -10.287731      -279.9434
   2   2.0000     -10.214475      -277.9500
   3   2.0000     -10.201215      -277.5892
   4   2.0000      -1.019514       -27.7424
   5   2.0000      -0.794325       -21.6147
   6   2.0000      -0.666014       -18.1231
   7   2.0000      -0.546568       -14.8729
   8   2.0000      -0.507753       -13.8167
   9   2.0000      -0.441084       -12.0025
  10   2.0000      -0.432703       -11.7745
  11   2.0000      -0.403463       -10.9788
  12   2.0000      -0.360142        -9.7999
  13   2.0000      -0.284423        -7.7395
  14   2.0000      -0.254946        -6.9374
  15   0.0000      -0.057289        -1.5589
  16   0.0000      -0.009750        -0.2653
  17   0.0000       0.080073         2.1789
  18   0.0000       0.090553         2.4641
  19   0.0000       0.103449         2.8150

MULLIKEN ATOMIC CHARGES
-----------------------
   0 C :    0.167433
   1 O :   -0.225455
   2 C :   -0.140519
   3 C :    0.143850
   4 H :    0.012107
   5 H :    0.034207
   6 H :    0.023249
   7 H :   -0.014871
Sum of atomic charges:   -0.0000000

LOEWDIN ATOMIC CHARGES
----------------------
   0 C :    0.003664
   1 O :   -0.047665
   2 C :   -0.055801
   3 C :    0.020940
   4 H :    0.006987
   5 H :    0.043937
   6 H :    0.031931
   7 H :   -0.003993

  Mayer bond orders larger than 0.100000
B(  0-C ,  1-O ) :   2.1568 B(  0-C ,  2-C ) :   1.0210 B(  0-C ,  4-H ) :   0.9089
B(  2-C ,  3-C ) :   1.9989 B(  2-C ,  5-H ) :   0.9341 B(  3-C ,  6-H ) :   0.9478
B(  3-C ,  7-H ) :   0.9400

-----------------------------------------------------------------------------
         ABSORPTION SPECTRUM VIA TRANSITION ELECTRIC DIPOLE MOMENTS
-----------------------------------------------------------------------------
State   Energy    Wavelength  fosc         T2        TX        TY        TZ
        (cm-1)      (nm)                 (au**2)    (au)      (au)      (au)
-----------------------------------------------------------------------------
   1   29294.5    341.4   0.000369804   0.00416   0.06294   0.01143  -0.00796

FINAL SINGLE POINT ENERGY      -191.642436969555

DIPOLE MOMENT
-------------
                                X             Y             Z
Electronic contribution:     -2.00477      -1.58052       0.81817
Nuclear contribution   :      2.39791       2.44826      -1.23971
                        -----------------------------------------
Total Dipole Moment    :      0.39314       0.86773      -0.42154
                        -----------------------------------------
Magnitude (a.u.)       :      1.04173
Magnitude (Debye)      :      2.64788

Rotational constants in cm-1:     0.785558     0.186346     0.160911
Rotational constants in MHz : 23550.432716  5586.507063  4824.005026

                             ****ORCA TERMINATED NORMALLY****
TOTAL RUN TIME: 0 days 0 hours 3 minutes 20 seconds 755 msec
