                         Program Version 5.0.3 -  RELEASE  -
|  1> ! HF-3c
|  2> !TightSCF
|  3> %scf
|  4>  ConvForced true
|  5>  convergence tight
|  6>  MaxIter 500
|  7> end
|  8>
|  9> %tddft
| 10>  nroots 1
| 11> end
| 12>
| 13> # 	18089
| 14> * xyz 0 1
| 15> 		C   -1.114774  -0.334561  -0.007014
| 16> 		O   -1.517529  -1.181851   0.827397
| 17> 		C    0.055652   0.473545   0.081416
| 18> 		C    1.264012   0.094101  -0.108204
| 19> 		H   -1.873186  -0.261907  -0.880251
| 20> 		H   -0.210993   1.474338   0.609983
| 21> 		H    1.386871  -0.943315  -0.460327
| 22> 		H    2.086394   0.694470  -0.019295
| 23> *
| 24>
| 25>                          ****END OF INPUT****

CARTESIAN COORDINATES (ANGSTROEM)
---------------------------------
  C     -1.114774   -0.334561   -0.007014
  O     -1.517529   -1.181851    0.827397
  C      0.055652    0.473545    0.081416
  C      1.264012    0.094101   -0.108204
  H     -1.873186   -0.261907   -0.880251
  H     -0.210993    1.474338    0.609983
  H      1.386871   -0.943315   -0.460327
  H      2.086394    0.694470   -0.019295

 Total Charge           Charge          ....    0
 Multiplicity           Mult            ....    1
 Number of Electrons    NEL             ....   30
 Basis Dimension        Dim             ....   24

ORBITAL ENERGIES
----------------

  NO   OCC          E(Eh)            E(eV)
   0   2.0000     -20.352192      -553.8113
   1   2.0000     -11.285131      -307.0840
   2   2.0000     -11.205827      -304.9261
   3   2.0000     -11.194633      -304.6214
   4   2.0000      -1.370192       -37.2848
   5   2.0000      -1.105470       -30.0814
   6   2.0000      -0.902721       -24.5643
   7   2.0000      -0.746708       -20.3189
   8   2.0000      -0.689293       -18.7566
   9   2.0000      -0.650865       -17.7109
  10   2.0000      -0.595476       -16.2037
  11   2.0000      -0.542096       -14.7512
  12   2.0000      -0.471110       -12.8196
  13   2.0000      -0.422562       -11.4985
  14   2.0000      -0.409359       -11.1392
  15   0.0000       0.179519         4.8850
  16   0.0000       0.215590         5.8665
  17   0.0000       0.539982        14.6937
  18   0.0000       0.582607        15.8536
  19   0.0000       0.686665        18.6851

MULLIKEN ATOMIC CHARGES
-----------------------
   0 C :    0.148836
   1 O :   -0.338699
   2 C :   -0.165853
   3 C :   -0.248539
   4 H :    0.143942
   5 H :    0.160085
   6 H :    0.150773
   7 H :    0.149457
Sum of atomic charges:   -0.0000000

LOEWDIN ATOMIC CHARGES
----------------------
   0 C :    0.138795
   1 O :   -0.259943
   2 C :   -0.118460
   3 C :   -0.151776
   4 H :    0.085518
   5 H :    0.112429
   6 H :    0.100500
   7 H :    0.092937

  Mayer bond orders larger than 0.100000
B(  0-C ,  1-O ) :   1.9264 B(  0-C ,  2-C ) :   1.0228 B(  0-C ,  4-H ) :   0.9214
B(  2-C ,  3-C ) :   1.9926 B(  2-C ,  5-H ) :   0.9306 B(  3-C ,  6-H ) :   0.9581
B(  3-C ,  7-H ) :   0.9628

-----------------------------------------------------------------------------
         ABSORPTION SPECTRUM VIA TRANSITION ELECTRIC DIPOLE MOMENTS
-----------------------------------------------------------------------------
State   Energy    Wavelength  fosc         T2        TX        TY        TZ
        (cm-1)      (nm)                 (au**2)    (au)      (au)      (au)
-----------------------------------------------------------------------------
   1   31422.1    318.2   0.000085244   0.00089   0.02945   0.00357  -0.00359

Dispersion correction           -0.025379523
FINAL SINGLE POINT ENERGY      -189.315886682453

DIPOLE MOMENT
-------------
                                X             Y             Z
Electronic contribution:     -2.22867      -1.21355       0.91724
Nuclear contribution   :      2.65284       1.90378      -1.50277
                        -----------------------------------------
Total Dipole Moment    :      0.42417       0.69023      -0.58553
                        -----------------------------------------
Magnitude (a.u.)       :      0.99959
Magnitude (Debye)      :      2.54076

Rotational constants in cm-1:     0.981855     0.173792     0.160928
Rotational constants in MHz : 29435.275255  5210.164248  4824.514582

                             ****ORCA TERMINATED NORMALLY****
TOTAL RUN TIME: 0 days 0 hours 0 minutes 13 seconds 240 msec
