                         Program Version 5.0.3 -  RELEASE  -
|  1> ! B3LYP cc-pVDZ
|  2> !TightSCF
|  3> %scf
|  4>  ConvForced true
|  5>  convergence tight
|  6>  MaxIter 500
|  7> end
|  8>
|  9> %tddft
| 10>  nroots 1
| 11> end
| 12>
| 13> # 	717
| 14> * xyz 0 1
| 15> 		C   -1.148664  -0.375288  -0.036693
| 16> 		O   -2.125313  -0.482405   0.716438
| 17> 		C   -0.007736   0.467549   0.259675
| 18> 		C    1.207658   0.089527  -0.205216
| 19> 		H   -1.161949  -0.929691  -0.918540
| 20> 		H   -0.217068   1.248960   0.983733
| 21> 		H    1.236309  -0.730435  -0.947282
| 22> 		H    2.152770   0.713277   0.121270
| 23> *
| 24>
| 25>                          ****END OF INPUT****

CARTESIAN COORDINATES (ANGSTROEM)
---------------------------------
  C     -1.148664   -0.375288   -0.036693
  O     -2.125313   -0.482405    0.716438
  C     -0.007736    0.467549    0.259675
  C      1.207658    0.089527   -0.205216
  H     -1.161949   -0.929691   -0.918540
  H     -0.217068    1.248960    0.983733
  H      1.236309   -0.730435   -0.947282
  H      2.152770    0.713277    0.121270

 Total Charge           Charge          ....    0
 Multiplicity           Mult            ....    1
 Number of Electrons    NEL             ....   30
 Basis Dimension        Dim             ....   76

ORBITAL ENERGIES
----------------

  NO   OCC          E(Eh)            E(eV)
   0   2.0000     -19.131943      -520.6066
   1   2.0000     -10.265848      -279.3479
   2   2.0000     -10.231419      -278.4111
   3   2.0000     -10.209809      -277.8230
   4   2.0000      -1.027890       -27.9703
   5   2.0000      -0.804226       -21.8841
   6   2.0000      -0.645896       -17.5757
   7   2.0000      -0.580298       -15.7907
   8   2.0000      -0.481058       -13.0903
   9   2.0000      -0.461413       -12.5557
  10   2.0000      -0.417967       -11.3735
  11   2.0000      -0.393345       -10.7035
  12   2.0000      -0.381326       -10.3764
  13   2.0000      -0.290206        -7.8969
  14   2.0000      -0.251959        -6.8561
  15   0.0000      -0.066536        -1.8105
  16   0.0000       0.033829         0.9205
  17   0.0000       0.063793         1.7359
  18   0.0000       0.080141         2.1808
  19   0.0000       0.126720         3.4482

MULLIKEN ATOMIC CHARGES
-----------------------
   0 C :    0.198890
   1 O :   -0.227285
   2 C :   -0.043753
   3 C :    0.004456
   4 H :   -0.037974
   5 H :    0.004661
   6 H :    0.038277
   7 H :    0.062729
Sum of atomic charges:   -0.0000000

LOEWDIN ATOMIC CHARGES
----------------------
   0 C :   -0.018274
   1 O :   -0.030199
   2 C :   -0.052366
   3 C :   -0.006755
   4 H :   -0.012822
   5 H :    0.033245
   6 H :    0.034021
   7 H :    0.053149

  Mayer bond orders larger than 0.100000
B(  0-C ,  1-O ) :   2.1245 B(  0-C ,  2-C ) :   1.1015 B(  0-C ,  4-H ) :   0.9400
B(  2-C ,  3-C ) :   1.9108 B(  2-C ,  5-H ) :   0.9457 B(  3-C ,  6-H ) :   0.9361
B(  3-C ,  7-H ) :   0.9390

-----------------------------------------------------------------------------
         ABSORPTION SPECTRUM VIA TRANSITION ELECTRIC DIPOLE MOMENTS
-----------------------------------------------------------------------------
State   Energy    Wavelength  fosc         T2        TX        TY        TZ
        (cm-1)      (nm)                 (au**2)    (au)      (au)      (au)
-----------------------------------------------------------------------------
   1   27766.5    360.1   0.000526847   0.00625  -0.07871  -0.00658  -0.00277

FINAL SINGLE POINT ENERGY      -191.671648617109

DIPOLE MOMENT
-------------
                                X             Y             Z
Electronic contribution:     -2.92760      -0.42206       0.91215
Nuclear contribution   :      3.96182       0.62776      -1.43626
                        -----------------------------------------
Total Dipole Moment    :      1.03423       0.20570      -0.52411
                        -----------------------------------------
Magnitude (a.u.)       :      1.17755
Magnitude (Debye)      :      2.99310

Rotational constants in cm-1:     1.419871     0.158170     0.145843
Rotational constants in MHz : 42566.656894  4741.807199  4372.253699

                             ****ORCA TERMINATED NORMALLY****
TOTAL RUN TIME: 0 days 0 hours 3 minutes 22 seconds 280 msec
