                         Program Version 5.0.3 -  RELEASE  -
|  1> ! HF-3c
|  2> !TightSCF
|  3> %scf
|  4>  ConvForced true
|  5>  convergence tight
|  6>  MaxIter 500
|  7> end
|  8>
|  9> %tddft
| 10>  nroots 1
| 11> end
| 12>
| 13> # 	19930
| 14> * xyz 0 1
| 15> 		C   -1.207635  -0.240019  -0.065627
| 16> 		O   -1.512967  -1.105515  -0.798721
| 17> 		C    0.046782   0.559506  -0.195908
| 18> 		C    1.221912   0.014465   0.206235
| 19> 		H   -1.825599  -0.118561   0.917996
| 20> 		H   -0.071278   1.363800  -0.840205
| 21> 		H    1.137470  -0.910765   0.617732
| 22> 		H    2.244853   0.530643   0.095872
| 23> *
| 24>
| 25>                          ****END OF INPUT****

CARTESIAN COORDINATES (ANGSTROEM)
---------------------------------
  C     -1.207635   -0.240019   -0.065627
  O     -1.512967   -1.105515   -0.798721
  C      0.046782    0.559506   -0.195908
  C      1.221912    0.014465    0.206235
  H     -1.825599   -0.118561    0.917996
  H     -0.071278    1.363800   -0.840205
  H      1.137470   -0.910765    0.617732
  H      2.244853    0.530643    0.095872

 Total Charge           Charge          ....    0
 Multiplicity           Mult            ....    1
 Number of Electrons    NEL             ....   30
 Basis Dimension        Dim             ....   24

ORBITAL ENERGIES
----------------

  NO   OCC          E(Eh)            E(eV)
   0   2.0000     -20.383687      -554.6683
   1   2.0000     -11.304733      -307.6174
   2   2.0000     -11.189322      -304.4769
   3   2.0000     -11.185644      -304.3769
   4   2.0000      -1.434413       -39.0324
   5   2.0000      -1.077149       -29.3107
   6   2.0000      -0.878171       -23.8962
   7   2.0000      -0.768058       -20.8999
   8   2.0000      -0.689394       -18.7594
   9   2.0000      -0.634080       -17.2542
  10   2.0000      -0.610965       -16.6252
  11   2.0000      -0.561983       -15.2923
  12   2.0000      -0.521089       -14.1796
  13   2.0000      -0.403892       -10.9905
  14   2.0000      -0.397569       -10.8184
  15   0.0000       0.195609         5.3228
  16   0.0000       0.205710         5.5977
  17   0.0000       0.536244        14.5919
  18   0.0000       0.602768        16.4021
  19   0.0000       0.674304        18.3487

MULLIKEN ATOMIC CHARGES
-----------------------
   0 C :    0.185589
   1 O :   -0.352490
   2 C :   -0.171985
   3 C :   -0.236984
   4 H :    0.133359
   5 H :    0.149762
   6 H :    0.139286
   7 H :    0.153464
Sum of atomic charges:   -0.0000000

LOEWDIN ATOMIC CHARGES
----------------------
   0 C :    0.151990
   1 O :   -0.244262
   2 C :   -0.123995
   3 C :   -0.142837
   4 H :    0.073844
   5 H :    0.093710
   6 H :    0.084613
   7 H :    0.106939

  Mayer bond orders larger than 0.100000
B(  0-C ,  1-O ) :   1.9543 B(  0-C ,  2-C ) :   0.9783 B(  0-C ,  4-H ) :   0.9080
B(  2-C ,  3-C ) :   1.9923 B(  2-C ,  5-H ) :   0.9555 B(  3-C ,  6-H ) :   0.9683
B(  3-C ,  7-H ) :   0.9608

-----------------------------------------------------------------------------
         ABSORPTION SPECTRUM VIA TRANSITION ELECTRIC DIPOLE MOMENTS
-----------------------------------------------------------------------------
State   Energy    Wavelength  fosc         T2        TX        TY        TZ
        (cm-1)      (nm)                 (au**2)    (au)      (au)      (au)
-----------------------------------------------------------------------------
   1   36581.9    273.4   0.000177727   0.00160   0.02968   0.01407  -0.02281

Dispersion correction           -0.025424548
FINAL SINGLE POINT ENERGY      -189.297253269937

DIPOLE MOMENT
-------------
                                X             Y             Z
Electronic contribution:     -2.41608      -1.02936      -1.04390
Nuclear contribution   :      2.84797       1.65571       1.58041
                        -----------------------------------------
Total Dipole Moment    :      0.43189       0.62635       0.53651
                        -----------------------------------------
Magnitude (a.u.)       :      0.93096
Magnitude (Debye)      :      2.36632

Rotational constants in cm-1:     0.915016     0.177975     0.164986
Rotational constants in MHz : 27431.493519  5335.547994  4946.145056

                             ****ORCA TERMINATED NORMALLY****
TOTAL RUN TIME: 0 days 0 hours 0 minutes 12 seconds 906 msec
