                         Program Version 5.0.3 -  RELEASE  -
|  1> ! HF-3c
|  2> !TightSCF
|  3> %scf
|  4>  ConvForced true
|  5>  convergence tight
|  6>  MaxIter 500
|  7> end
|  8>
|  9> %tddft
| 10>  nroots 1
| 11> end
| 12>
| 13> # 	29379
| 14> * xyz 0 1
| 15> 		C   -0.604128  -0.450918  -0.005741
| 16> 		O   -0.598667  -1.655612   0.018496
| 17> 		C    0.686426   0.444271  -0.003838
| 18> 		C    1.851077  -0.112709   0.001062
| 19> 		H   -1.696435  -0.007445  -0.131260
| 20> 		H    0.492083   1.487723   0.060117
| 21> 		H    1.953398  -1.150232  -0.287694
| 22> 		H    2.699442   0.603555   0.185666
| 23> *
| 24>
| 25>                          ****END OF INPUT****

CARTESIAN COORDINATES (ANGSTROEM)
---------------------------------
  C     -0.604128   -0.450918   -0.005741
  O     -0.598667   -1.655612    0.018496
  C      0.686426    0.444271   -0.003838
  C      1.851077   -0.112709    0.001062
  H     -1.696435   -0.007445   -0.131260
  H      0.492083    1.487723    0.060117
  H      1.953398   -1.150232   -0.287694
  H      2.699442    0.603555    0.185666

 Total Charge           Charge          ....    0
 Multiplicity           Mult            ....    1
 Number of Electrons    NEL             ....   30
 Basis Dimension        Dim             ....   24

ORBITAL ENERGIES
----------------

  NO   OCC          E(Eh)            E(eV)
   0   2.0000     -20.359581      -554.0124
   1   2.0000     -11.286593      -307.1238
   2   2.0000     -11.191038      -304.5236
   3   2.0000     -11.189984      -304.4949
   4   2.0000      -1.400911       -38.1207
   5   2.0000      -1.084571       -29.5127
   6   2.0000      -0.859615       -23.3913
   7   2.0000      -0.738883       -20.1060
   8   2.0000      -0.698890       -19.0178
   9   2.0000      -0.610254       -16.6059
  10   2.0000      -0.591356       -16.0916
  11   2.0000      -0.538908       -14.6644
  12   2.0000      -0.529836       -14.4176
  13   2.0000      -0.409742       -11.1496
  14   2.0000      -0.393860       -10.7175
  15   0.0000       0.150158         4.0860
  16   0.0000       0.304009         8.2725
  17   0.0000       0.473020        12.8715
  18   0.0000       0.599526        16.3139
  19   0.0000       0.635151        17.2833

MULLIKEN ATOMIC CHARGES
-----------------------
   0 C :    0.175775
   1 O :   -0.364212
   2 C :   -0.172817
   3 C :   -0.234134
   4 H :    0.134401
   5 H :    0.142481
   6 H :    0.166122
   7 H :    0.152385
Sum of atomic charges:   -0.0000000

LOEWDIN ATOMIC CHARGES
----------------------
   0 C :    0.144761
   1 O :   -0.265384
   2 C :   -0.124995
   3 C :   -0.136085
   4 H :    0.078243
   5 H :    0.088488
   6 H :    0.110568
   7 H :    0.104404

  Mayer bond orders larger than 0.100000
B(  0-C ,  1-O ) :   1.9298 B(  0-C ,  2-C ) :   0.9766 B(  0-C ,  4-H ) :   0.9205
B(  2-C ,  3-C ) :   1.9813 B(  2-C ,  5-H ) :   0.9603 B(  3-C ,  6-H ) :   0.9550
B(  3-C ,  7-H ) :   0.9575

-----------------------------------------------------------------------------
         ABSORPTION SPECTRUM VIA TRANSITION ELECTRIC DIPOLE MOMENTS
-----------------------------------------------------------------------------
State   Energy    Wavelength  fosc         T2        TX        TY        TZ
        (cm-1)      (nm)                 (au**2)    (au)      (au)      (au)
-----------------------------------------------------------------------------
   1   33313.3    300.2   0.000158862   0.00157   0.03547   0.00575   0.01669

Dispersion correction           -0.025288108
FINAL SINGLE POINT ENERGY      -189.327347374582

DIPOLE MOMENT
-------------
                                X             Y             Z
Electronic contribution:     -1.81382      -1.71791       0.11366
Nuclear contribution   :      2.07599       2.66449      -0.16347
                        -----------------------------------------
Total Dipole Moment    :      0.26217       0.94659      -0.04982
                        -----------------------------------------
Magnitude (a.u.)       :      0.98348
Magnitude (Debye)      :      2.49982

Rotational constants in cm-1:     0.783061     0.199331     0.159322
Rotational constants in MHz : 23475.568068  5975.802192  4776.354675

                             ****ORCA TERMINATED NORMALLY****
TOTAL RUN TIME: 0 days 0 hours 0 minutes 15 seconds 646 msec
