                         Program Version 5.0.3 -  RELEASE  -
|  1> ! B3LYP cc-pVDZ
|  2> !TightSCF
|  3> %scf
|  4>  ConvForced true
|  5>  convergence tight
|  6>  MaxIter 500
|  7> end
|  8>
|  9> %tddft
| 10>  nroots 1
| 11> end
| 12>
| 13> # 	22615
| 14> * xyz 0 1
| 15> 		C   -0.569470  -0.410907  -0.006958
| 16> 		O   -0.580848  -1.654152   0.001864
| 17> 		C    0.631694   0.422219   0.004616
| 18> 		C    1.844012  -0.126285  -0.003162
| 19> 		H   -1.435195   0.258586   0.086859
| 20> 		H    0.291628   1.391348  -0.104740
| 21> 		H    1.879666  -1.173830  -0.074445
| 22> 		H    2.692579   0.417101   0.130720
| 23> *
| 24>
| 25>                          ****END OF INPUT****

CARTESIAN COORDINATES (ANGSTROEM)
---------------------------------
  C     -0.569470   -0.410907   -0.006958
  O     -0.580848   -1.654152    0.001864
  C      0.631694    0.422219    0.004616
  C      1.844012   -0.126285   -0.003162
  H     -1.435195    0.258586    0.086859
  H      0.291628    1.391348   -0.104740
  H      1.879666   -1.173830   -0.074445
  H      2.692579    0.417101    0.130720

 Total Charge           Charge          ....    0
 Multiplicity           Mult            ....    1
 Number of Electrons    NEL             ....   30
 Basis Dimension        Dim             ....   76

ORBITAL ENERGIES
----------------

  NO   OCC          E(Eh)            E(eV)
   0   2.0000     -19.138068      -520.7733
   1   2.0000     -10.270517      -279.4750
   2   2.0000     -10.205953      -277.7181
   3   2.0000     -10.196986      -277.4741
   4   2.0000      -1.026129       -27.9224
   5   2.0000      -0.805334       -21.9142
   6   2.0000      -0.680055       -18.5052
   7   2.0000      -0.544271       -14.8104
   8   2.0000      -0.514520       -14.0008
   9   2.0000      -0.452201       -12.3050
  10   2.0000      -0.426055       -11.5935
  11   2.0000      -0.396133       -10.7793
  12   2.0000      -0.382559       -10.4100
  13   2.0000      -0.287407        -7.8207
  14   2.0000      -0.254968        -6.9380
  15   0.0000      -0.077383        -2.1057
  16   0.0000       0.056787         1.5453
  17   0.0000       0.073702         2.0055
  18   0.0000       0.098630         2.6839
  19   0.0000       0.140360         3.8194

MULLIKEN ATOMIC CHARGES
-----------------------
   0 C :    0.179211
   1 O :   -0.220235
   2 C :   -0.102191
   3 C :    0.177390
   4 H :   -0.021353
   5 H :   -0.044126
   6 H :    0.022714
   7 H :    0.008589
Sum of atomic charges:   -0.0000000

LOEWDIN ATOMIC CHARGES
----------------------
   0 C :   -0.017734
   1 O :   -0.034793
   2 C :   -0.064506
   3 C :    0.063273
   4 H :   -0.003909
   5 H :    0.014277
   6 H :    0.029377
   7 H :    0.014015

  Mayer bond orders larger than 0.100000
B(  0-C ,  1-O ) :   2.1503 B(  0-C ,  2-C ) :   1.1071 B(  0-C ,  4-H ) :   0.9151
B(  2-C ,  3-C ) :   1.9487 B(  2-C ,  5-H ) :   0.9574 B(  3-C ,  6-H ) :   0.9214
B(  3-C ,  7-H ) :   0.9442

-----------------------------------------------------------------------------
         ABSORPTION SPECTRUM VIA TRANSITION ELECTRIC DIPOLE MOMENTS
-----------------------------------------------------------------------------
State   Energy    Wavelength  fosc         T2        TX        TY        TZ
        (cm-1)      (nm)                 (au**2)    (au)      (au)      (au)
-----------------------------------------------------------------------------
   1   26038.0    384.1   0.000096511   0.00122  -0.01621  -0.00228   0.03086

FINAL SINGLE POINT ENERGY      -191.671336186342

DIPOLE MOMENT
-------------
                                X             Y             Z
Electronic contribution:     -1.62100      -1.67726      -0.04504
Nuclear contribution   :      2.06176       2.62425       0.03589
                        -----------------------------------------
Total Dipole Moment    :      0.44076       0.94699      -0.00916
                        -----------------------------------------
Magnitude (a.u.)       :      1.04457
Magnitude (Debye)      :      2.65509

Rotational constants in cm-1:     0.751881     0.212841     0.166022
Rotational constants in MHz : 22540.837749  6380.822062  4977.214490

                             ****ORCA TERMINATED NORMALLY****
TOTAL RUN TIME: 0 days 0 hours 3 minutes 12 seconds 983 msec
