                         Program Version 5.0.3 -  RELEASE  -
|  1> ! B3LYP cc-pVDZ
|  2> !TightSCF
|  3> %scf
|  4>  ConvForced true
|  5>  convergence tight
|  6>  MaxIter 500
|  7> end
|  8>
|  9> %tddft
| 10>  nroots 1
| 11> end
| 12>
| 13> # 	3198
| 14> * xyz 0 1
| 15> 		C   -1.184396  -0.370249  -0.135136
| 16> 		O   -2.192701  -0.404414  -0.735924
| 17> 		C    0.020463   0.426298  -0.324101
| 18> 		C    1.201513   0.233344   0.339006
| 19> 		H   -1.041430  -0.981136   0.917552
| 20> 		H   -0.058074   0.956858  -1.188880
| 21> 		H    1.288547  -0.636619   1.092134
| 22> 		H    1.963706   0.765345   0.017357
| 23> *
| 24>
| 25>                          ****END OF INPUT****

CARTESIAN COORDINATES (ANGSTROEM)
---------------------------------
  C     -1.184396   -0.370249   -0.135136
  O     -2.192701   -0.404414   -0.735924
  C      0.020463    0.426298   -0.324101
  C      1.201513    0.233344    0.339006
  H     -1.041430   -0.981136    0.917552
  H     -0.058074    0.956858   -1.188880
  H      1.288547   -0.636619    1.092134
  H      1.963706    0.765345    0.017357

 Total Charge           Charge          ....    0
 Multiplicity           Mult            ....    1
 Number of Electrons    NEL             ....   30
 Basis Dimension        Dim             ....   76

ORBITAL ENERGIES
----------------

  NO   OCC          E(Eh)            E(eV)
   0   2.0000     -19.146532      -521.0036
   1   2.0000     -10.278887      -279.7027
   2   2.0000     -10.225557      -278.2516
   3   2.0000     -10.205745      -277.7124
   4   2.0000      -1.071082       -29.1456
   5   2.0000      -0.807353       -21.9692
   6   2.0000      -0.663738       -18.0612
   7   2.0000      -0.561454       -15.2779
   8   2.0000      -0.487475       -13.2649
   9   2.0000      -0.466181       -12.6854
  10   2.0000      -0.431003       -11.7282
  11   2.0000      -0.412660       -11.2290
  12   2.0000      -0.400063       -10.8863
  13   2.0000      -0.295835        -8.0501
  14   2.0000      -0.252982        -6.8840
  15   0.0000      -0.073911        -2.0112
  16   0.0000       0.053476         1.4552
  17   0.0000       0.070861         1.9282
  18   0.0000       0.089131         2.4254
  19   0.0000       0.118012         3.2113

MULLIKEN ATOMIC CHARGES
-----------------------
   0 C :    0.128542
   1 O :   -0.148794
   2 C :   -0.050478
   3 C :    0.103534
   4 H :   -0.059907
   5 H :   -0.030548
   6 H :    0.053870
   7 H :    0.003782
Sum of atomic charges:    0.0000000

LOEWDIN ATOMIC CHARGES
----------------------
   0 C :   -0.072611
   1 O :    0.042188
   2 C :   -0.048451
   3 C :    0.042831
   4 H :   -0.027347
   5 H :    0.010010
   6 H :    0.050635
   7 H :    0.002745

  Mayer bond orders larger than 0.100000
B(  0-C ,  1-O ) :   2.2242 B(  0-C ,  2-C ) :   1.0858 B(  0-C ,  4-H ) :   0.8764
B(  2-C ,  3-C ) :   1.9361 B(  2-C ,  5-H ) :   0.9413 B(  3-C ,  6-H ) :   0.9372
B(  3-C ,  7-H ) :   0.9324

-----------------------------------------------------------------------------
         ABSORPTION SPECTRUM VIA TRANSITION ELECTRIC DIPOLE MOMENTS
-----------------------------------------------------------------------------
State   Energy    Wavelength  fosc         T2        TX        TY        TZ
        (cm-1)      (nm)                 (au**2)    (au)      (au)      (au)
-----------------------------------------------------------------------------
   1   27490.1    363.8   0.000288086   0.00345   0.04832  -0.00585  -0.03288

FINAL SINGLE POINT ENERGY      -191.655172934034

DIPOLE MOMENT
-------------
                                X             Y             Z
Electronic contribution:     -3.07161      -0.09335      -1.35043
Nuclear contribution   :      4.16852       0.28615       1.60694
                        -----------------------------------------
Total Dipole Moment    :      1.09691       0.19280       0.25652
                        -----------------------------------------
Magnitude (a.u.)       :      1.14288
Magnitude (Debye)      :      2.90498

Rotational constants in cm-1:     1.691518     0.151395     0.139465
Rotational constants in MHz : 50710.439493  4538.708935  4181.054604

                             ****ORCA TERMINATED NORMALLY****
TOTAL RUN TIME: 0 days 0 hours 2 minutes 57 seconds 163 msec
