                         Program Version 5.0.3 -  RELEASE  -
|  1> ! B3LYP cc-pVDZ
|  2> !TightSCF
|  3> %scf
|  4>  ConvForced true
|  5>  convergence tight
|  6>  MaxIter 500
|  7> end
|  8>
|  9> %tddft
| 10>  nroots 1
| 11> end
| 12>
| 13> # 	32397
| 14> * xyz 0 1
| 15> 		C   -0.549380  -0.441154   0.036476
| 16> 		O   -0.614120  -1.644552  -0.024193
| 17> 		C    0.611922   0.391637  -0.030520
| 18> 		C    1.848309  -0.084932   0.009578
| 19> 		H   -1.278811   0.145145   0.198816
| 20> 		H    0.586860   1.427211  -0.187081
| 21> 		H    1.799418  -1.151981   0.058893
| 22> 		H    2.837299   0.502035   0.122527
| 23> *
| 24>
| 25>                          ****END OF INPUT****

CARTESIAN COORDINATES (ANGSTROEM)
---------------------------------
  C     -0.549380   -0.441154    0.036476
  O     -0.614120   -1.644552   -0.024193
  C      0.611922    0.391637   -0.030520
  C      1.848309   -0.084932    0.009578
  H     -1.278811    0.145145    0.198816
  H      0.586860    1.427211   -0.187081
  H      1.799418   -1.151981    0.058893
  H      2.837299    0.502035    0.122527

 Total Charge           Charge          ....    0
 Multiplicity           Mult            ....    1
 Number of Electrons    NEL             ....   30
 Basis Dimension        Dim             ....   76

ORBITAL ENERGIES
----------------

  NO   OCC          E(Eh)            E(eV)
   0   2.0000     -19.136718      -520.7366
   1   2.0000     -10.257496      -279.1206
   2   2.0000     -10.212428      -277.8943
   3   2.0000     -10.189922      -277.2819
   4   2.0000      -1.046910       -28.4879
   5   2.0000      -0.807906       -21.9842
   6   2.0000      -0.682166       -18.5627
   7   2.0000      -0.551808       -15.0155
   8   2.0000      -0.522443       -14.2164
   9   2.0000      -0.445164       -12.1135
  10   2.0000      -0.428171       -11.6511
  11   2.0000      -0.401656       -10.9296
  12   2.0000      -0.371859       -10.1188
  13   2.0000      -0.288658        -7.8548
  14   2.0000      -0.257808        -7.0153
  15   0.0000      -0.071108        -1.9349
  16   0.0000       0.058421         1.5897
  17   0.0000       0.076099         2.0708
  18   0.0000       0.101899         2.7728
  19   0.0000       0.139083         3.7846

MULLIKEN ATOMIC CHARGES
-----------------------
   0 C :    0.301380
   1 O :   -0.201392
   2 C :   -0.130146
   3 C :    0.056791
   4 H :   -0.069417
   5 H :   -0.032852
   6 H :    0.023178
   7 H :    0.052459
Sum of atomic charges:   -0.0000000

LOEWDIN ATOMIC CHARGES
----------------------
   0 C :   -0.025768
   1 O :    0.006791
   2 C :   -0.077047
   3 C :    0.034343
   4 H :   -0.031938
   5 H :    0.020809
   6 H :    0.024876
   7 H :    0.047934

  Mayer bond orders larger than 0.100000
B(  0-C ,  1-O ) :   2.1890 B(  0-C ,  2-C ) :   1.0811 B(  0-C ,  4-H ) :   0.9280
B(  2-C ,  3-C ) :   1.9497 B(  2-C ,  5-H ) :   0.9510 B(  3-C ,  6-H ) :   0.9228
B(  3-C ,  7-H ) :   0.9440

-----------------------------------------------------------------------------
         ABSORPTION SPECTRUM VIA TRANSITION ELECTRIC DIPOLE MOMENTS
-----------------------------------------------------------------------------
State   Energy    Wavelength  fosc         T2        TX        TY        TZ
        (cm-1)      (nm)                 (au**2)    (au)      (au)      (au)
-----------------------------------------------------------------------------
   1   27918.2    358.2   0.000022694   0.00027   0.00343  -0.00397  -0.01549

FINAL SINGLE POINT ENERGY      -191.640897233776

DIPOLE MOMENT
-------------
                                X             Y             Z
Electronic contribution:     -2.11454      -1.69289      -0.12817
Nuclear contribution   :      2.54253       2.65521       0.18124
                        -----------------------------------------
Total Dipole Moment    :      0.42799       0.96232       0.05308
                        -----------------------------------------
Magnitude (a.u.)       :      1.05454
Magnitude (Debye)      :      2.68043

Rotational constants in cm-1:     0.845476     0.205899     0.166004
Rotational constants in MHz : 25346.741925  6172.684976  4976.677125

                             ****ORCA TERMINATED NORMALLY****
TOTAL RUN TIME: 0 days 0 hours 3 minutes 27 seconds 817 msec
