                         Program Version 5.0.3 -  RELEASE  -
|  1> ! HF-3c
|  2> !TightSCF
|  3> %scf
|  4>  ConvForced true
|  5>  convergence tight
|  6>  MaxIter 500
|  7> end
|  8>
|  9> %tddft
| 10>  nroots 1
| 11> end
| 12>
| 13> # 	22360
| 14> * xyz 0 1
| 15> 		C   -0.591039  -0.422037  -0.033121
| 16> 		O   -0.618384  -1.639271   0.025833
| 17> 		C    0.641196   0.377679   0.019706
| 18> 		C    1.898862  -0.090157  -0.026001
| 19> 		H   -1.508135   0.026348  -0.181872
| 20> 		H    0.244122   1.387784   0.244971
| 21> 		H    2.070792  -1.220314   0.001008
| 22> 		H    2.723693   0.681242   0.009768
| 23> *
| 24>
| 25>                          ****END OF INPUT****

CARTESIAN COORDINATES (ANGSTROEM)
---------------------------------
  C     -0.591039   -0.422037   -0.033121
  O     -0.618384   -1.639271    0.025833
  C      0.641196    0.377679    0.019706
  C      1.898862   -0.090157   -0.026001
  H     -1.508135    0.026348   -0.181872
  H      0.244122    1.387784    0.244971
  H      2.070792   -1.220314    0.001008
  H      2.723693    0.681242    0.009768

 Total Charge           Charge          ....    0
 Multiplicity           Mult            ....    1
 Number of Electrons    NEL             ....   30
 Basis Dimension        Dim             ....   24

ORBITAL ENERGIES
----------------

  NO   OCC          E(Eh)            E(eV)
   0   2.0000     -20.354700      -553.8795
   1   2.0000     -11.285284      -307.0882
   2   2.0000     -11.192990      -304.5767
   3   2.0000     -11.183520      -304.3190
   4   2.0000      -1.392461       -37.8908
   5   2.0000      -1.068494       -29.0752
   6   2.0000      -0.900412       -24.5014
   7   2.0000      -0.751977       -20.4623
   8   2.0000      -0.688043       -18.7226
   9   2.0000      -0.610468       -16.6117
  10   2.0000      -0.590916       -16.0796
  11   2.0000      -0.539868       -14.6906
  12   2.0000      -0.514458       -13.9991
  13   2.0000      -0.412862       -11.2345
  14   2.0000      -0.385928       -10.5016
  15   0.0000       0.129908         3.5350
  16   0.0000       0.306406         8.3377
  17   0.0000       0.527035        14.3414
  18   0.0000       0.571283        15.5454
  19   0.0000       0.657133        17.8815

MULLIKEN ATOMIC CHARGES
-----------------------
   0 C :    0.137434
   1 O :   -0.347708
   2 C :   -0.174659
   3 C :   -0.211706
   4 H :    0.137877
   5 H :    0.140040
   6 H :    0.167621
   7 H :    0.151100
Sum of atomic charges:    0.0000000

LOEWDIN ATOMIC CHARGES
----------------------
   0 C :    0.128055
   1 O :   -0.256334
   2 C :   -0.133220
   3 C :   -0.119064
   4 H :    0.069046
   5 H :    0.091019
   6 H :    0.117190
   7 H :    0.103308

  Mayer bond orders larger than 0.100000
B(  0-C ,  1-O ) :   1.8934 B(  0-C ,  2-C ) :   1.0339 B(  0-C ,  4-H ) :   0.9388
B(  2-C ,  3-C ) :   1.9444 B(  2-C ,  5-H ) :   0.9576 B(  3-C ,  6-H ) :   0.9535
B(  3-C ,  7-H ) :   0.9605

-----------------------------------------------------------------------------
         ABSORPTION SPECTRUM VIA TRANSITION ELECTRIC DIPOLE MOMENTS
-----------------------------------------------------------------------------
State   Energy    Wavelength  fosc         T2        TX        TY        TZ
        (cm-1)      (nm)                 (au**2)    (au)      (au)      (au)
-----------------------------------------------------------------------------
   1   30687.7    325.9   0.000061504   0.00066   0.02478   0.00354   0.00577

Dispersion correction           -0.025449562
FINAL SINGLE POINT ENERGY      -189.332742333333

DIPOLE MOMENT
-------------
                                X             Y             Z
Electronic contribution:     -1.79161      -1.70404      -0.06624
Nuclear contribution   :      2.15563       2.60845       0.06873
                        -----------------------------------------
Total Dipole Moment    :      0.36402       0.90441       0.00249
                        -----------------------------------------
Magnitude (a.u.)       :      0.97492
Magnitude (Debye)      :      2.47805

Rotational constants in cm-1:     0.793626     0.199685     0.159937
Rotational constants in MHz : 23792.298880  5986.408943  4794.798072

                             ****ORCA TERMINATED NORMALLY****
TOTAL RUN TIME: 0 days 0 hours 0 minutes 12 seconds 276 msec
