                         Program Version 5.0.3 -  RELEASE  -
|  1> ! B3LYP cc-pVDZ
|  2> !TightSCF
|  3> %scf
|  4>  ConvForced true
|  5>  convergence tight
|  6>  MaxIter 500
|  7> end
|  8>
|  9> %tddft
| 10>  nroots 1
| 11> end
| 12>
| 13> # 	1098
| 14> * xyz 0 1
| 15> 		C   -1.232219  -0.386980  -0.043748
| 16> 		O   -2.144078  -0.404612  -0.790100
| 17> 		C   -0.000313   0.428053  -0.372580
| 18> 		C    1.144542   0.041413   0.236230
| 19> 		H   -1.161673  -0.908078   0.890598
| 20> 		H   -0.088484   1.299902  -0.919106
| 21> 		H    1.280894  -0.830423   0.914882
| 22> 		H    2.153932   0.730646   0.097847
| 23> *
| 24>
| 25>                          ****END OF INPUT****

CARTESIAN COORDINATES (ANGSTROEM)
---------------------------------
  C     -1.232219   -0.386980   -0.043748
  O     -2.144078   -0.404612   -0.790100
  C     -0.000313    0.428053   -0.372580
  C      1.144542    0.041413    0.236230
  H     -1.161673   -0.908078    0.890598
  H     -0.088484    1.299902   -0.919106
  H      1.280894   -0.830423    0.914882
  H      2.153932    0.730646    0.097847

 Total Charge           Charge          ....    0
 Multiplicity           Mult            ....    1
 Number of Electrons    NEL             ....   30
 Basis Dimension        Dim             ....   76

ORBITAL ENERGIES
----------------

  NO   OCC          E(Eh)            E(eV)
   0   2.0000     -19.138830      -520.7940
   1   2.0000     -10.272457      -279.5278
   2   2.0000     -10.226838      -278.2864
   3   2.0000     -10.201790      -277.6048
   4   2.0000      -1.065566       -28.9955
   5   2.0000      -0.792224       -21.5575
   6   2.0000      -0.629983       -17.1427
   7   2.0000      -0.581805       -15.8317
   8   2.0000      -0.480866       -13.0850
   9   2.0000      -0.461774       -12.5655
  10   2.0000      -0.432794       -11.7769
  11   2.0000      -0.399656       -10.8752
  12   2.0000      -0.381461       -10.3801
  13   2.0000      -0.288117        -7.8401
  14   2.0000      -0.253632        -6.9017
  15   0.0000      -0.054605        -1.4859
  16   0.0000       0.033910         0.9227
  17   0.0000       0.062744         1.7074
  18   0.0000       0.085641         2.3304
  19   0.0000       0.122260         3.3269

MULLIKEN ATOMIC CHARGES
-----------------------
   0 C :    0.192365
   1 O :   -0.168673
   2 C :   -0.023615
   3 C :   -0.048735
   4 H :   -0.030317
   5 H :   -0.013569
   6 H :    0.040073
   7 H :    0.052470
Sum of atomic charges:    0.0000000

LOEWDIN ATOMIC CHARGES
----------------------
   0 C :   -0.046279
   1 O :    0.033017
   2 C :   -0.047534
   3 C :   -0.023159
   4 H :   -0.012422
   5 H :    0.017211
   6 H :    0.030077
   7 H :    0.049088

  Mayer bond orders larger than 0.100000
B(  0-C ,  1-O ) :   2.2132 B(  0-C ,  2-C ) :   1.0382 B(  0-C ,  4-H ) :   0.9220
B(  2-C ,  3-C ) :   1.9377 B(  2-C ,  5-H ) :   0.9559 B(  3-C ,  6-H ) :   0.9459
B(  3-C ,  7-H ) :   0.9401

-----------------------------------------------------------------------------
         ABSORPTION SPECTRUM VIA TRANSITION ELECTRIC DIPOLE MOMENTS
-----------------------------------------------------------------------------
State   Energy    Wavelength  fosc         T2        TX        TY        TZ
        (cm-1)      (nm)                 (au**2)    (au)      (au)      (au)
-----------------------------------------------------------------------------
   1   30845.2    324.2   0.000124374   0.00133   0.02708  -0.01729   0.01718

FINAL SINGLE POINT ENERGY      -191.649654474280

DIPOLE MOMENT
-------------
                                X             Y             Z
Electronic contribution:     -3.41222      -0.48663      -1.30521
Nuclear contribution   :      4.24610       0.61666       1.83984
                        -----------------------------------------
Total Dipole Moment    :      0.83388       0.13002       0.53463
                        -----------------------------------------
Magnitude (a.u.)       :      0.99904
Magnitude (Debye)      :      2.53936

Rotational constants in cm-1:     1.403793     0.159123     0.145300
Rotational constants in MHz : 42084.661914  4770.402500  4355.985234

                             ****ORCA TERMINATED NORMALLY****
TOTAL RUN TIME: 0 days 0 hours 3 minutes 23 seconds 497 msec
