                         Program Version 5.0.3 -  RELEASE  -
|  1> ! HF-3c
|  2> !TightSCF
|  3> %scf
|  4>  ConvForced true
|  5>  convergence tight
|  6>  MaxIter 500
|  7> end
|  8>
|  9> %tddft
| 10>  nroots 1
| 11> end
| 12>
| 13> # 	6893
| 14> * xyz 0 1
| 15> 		C   -1.136434  -0.301266  -0.063682
| 16> 		O   -1.612549  -0.953495  -1.030906
| 17> 		C    0.042918   0.522923  -0.217428
| 18> 		C    1.183568   0.078706   0.224484
| 19> 		H   -1.628652  -0.376070   0.927821
| 20> 		H   -0.031039   1.337705  -0.586494
| 21> 		H    1.111424  -1.001195   0.561731
| 22> 		H    2.080744   0.685904   0.176502
| 23> *
| 24>
| 25>                          ****END OF INPUT****

CARTESIAN COORDINATES (ANGSTROEM)
---------------------------------
  C     -1.136434   -0.301266   -0.063682
  O     -1.612549   -0.953495   -1.030906
  C      0.042918    0.522923   -0.217428
  C      1.183568    0.078706    0.224484
  H     -1.628652   -0.376070    0.927821
  H     -0.031039    1.337705   -0.586494
  H      1.111424   -1.001195    0.561731
  H      2.080744    0.685904    0.176502

 Total Charge           Charge          ....    0
 Multiplicity           Mult            ....    1
 Number of Electrons    NEL             ....   30
 Basis Dimension        Dim             ....   24

ORBITAL ENERGIES
----------------

  NO   OCC          E(Eh)            E(eV)
   0   2.0000     -20.362741      -554.0984
   1   2.0000     -11.290164      -307.2210
   2   2.0000     -11.201762      -304.8155
   3   2.0000     -11.194766      -304.6251
   4   2.0000      -1.373464       -37.3738
   5   2.0000      -1.115167       -30.3452
   6   2.0000      -0.890269       -24.2255
   7   2.0000      -0.801099       -21.7990
   8   2.0000      -0.705187       -19.1891
   9   2.0000      -0.640452       -17.4276
  10   2.0000      -0.594704       -16.1827
  11   2.0000      -0.559897       -15.2356
  12   2.0000      -0.485774       -13.2186
  13   2.0000      -0.424339       -11.5469
  14   2.0000      -0.417553       -11.3622
  15   0.0000       0.168047         4.5728
  16   0.0000       0.218197         5.9374
  17   0.0000       0.557120        15.1600
  18   0.0000       0.611107        16.6291
  19   0.0000       0.684451        18.6249

MULLIKEN ATOMIC CHARGES
-----------------------
   0 C :    0.158358
   1 O :   -0.329144
   2 C :   -0.215578
   3 C :   -0.213451
   4 H :    0.146896
   5 H :    0.150793
   6 H :    0.148204
   7 H :    0.153922
Sum of atomic charges:    0.0000000

LOEWDIN ATOMIC CHARGES
----------------------
   0 C :    0.151836
   1 O :   -0.249521
   2 C :   -0.149103
   3 C :   -0.122182
   4 H :    0.083899
   5 H :    0.082734
   6 H :    0.101186
   7 H :    0.101151

  Mayer bond orders larger than 0.100000
B(  0-C ,  1-O ) :   1.9414 B(  0-C ,  2-C ) :   1.0040 B(  0-C ,  4-H ) :   0.9247
B(  2-C ,  3-C ) :   1.9842 B(  2-C ,  5-H ) :   0.9552 B(  3-C ,  6-H ) :   0.9622
B(  3-C ,  7-H ) :   0.9614

-----------------------------------------------------------------------------
         ABSORPTION SPECTRUM VIA TRANSITION ELECTRIC DIPOLE MOMENTS
-----------------------------------------------------------------------------
State   Energy    Wavelength  fosc         T2        TX        TY        TZ
        (cm-1)      (nm)                 (au**2)    (au)      (au)      (au)
-----------------------------------------------------------------------------
   1   31342.8    319.1   0.000037426   0.00039   0.01561  -0.00895   0.00832

Dispersion correction           -0.026194826
FINAL SINGLE POINT ENERGY      -189.289990710287

DIPOLE MOMENT
-------------
                                X             Y             Z
Electronic contribution:     -2.42320      -0.93002      -1.28555
Nuclear contribution   :      2.97110       1.33120       2.07851
                        -----------------------------------------
Total Dipole Moment    :      0.54790       0.40118       0.79295
                        -----------------------------------------
Magnitude (a.u.)       :      1.04399
Magnitude (Debye)      :      2.65361

Rotational constants in cm-1:     1.054297     0.170553     0.166264
Rotational constants in MHz : 31607.031852  5113.049769  4984.474533

                             ****ORCA TERMINATED NORMALLY****
TOTAL RUN TIME: 0 days 0 hours 0 minutes 16 seconds 17 msec
