                         Program Version 5.0.3 -  RELEASE  -
|  1> ! B3LYP cc-pVDZ
|  2> !TightSCF
|  3> %scf
|  4>  ConvForced true
|  5>  convergence tight
|  6>  MaxIter 500
|  7> end
|  8>
|  9> %tddft
| 10>  nroots 1
| 11> end
| 12>
| 13> # 	3834
| 14> * xyz 0 1
| 15> 		C   -1.243093  -0.241857   0.149617
| 16> 		O   -2.005871  -0.415382   0.841837
| 17> 		C   -0.046285   0.540490   0.189284
| 18> 		C    1.228334   0.029427  -0.207891
| 19> 		H   -1.239271  -0.970492  -0.785922
| 20> 		H   -0.180829   1.444085   0.791191
| 21> 		H    1.195125  -0.932511  -0.956718
| 22> 		H    2.287396   0.554918  -0.050029
| 23> *
| 24>
| 25>                          ****END OF INPUT****

CARTESIAN COORDINATES (ANGSTROEM)
---------------------------------
  C     -1.243093   -0.241857    0.149617
  O     -2.005871   -0.415382    0.841837
  C     -0.046285    0.540490    0.189284
  C      1.228334    0.029427   -0.207891
  H     -1.239271   -0.970492   -0.785922
  H     -0.180829    1.444085    0.791191
  H      1.195125   -0.932511   -0.956718
  H      2.287396    0.554918   -0.050029

 Total Charge           Charge          ....    0
 Multiplicity           Mult            ....    1
 Number of Electrons    NEL             ....   30
 Basis Dimension        Dim             ....   76

ORBITAL ENERGIES
----------------

  NO   OCC          E(Eh)            E(eV)
   0   2.0000     -19.142295      -520.8883
   1   2.0000     -10.265158      -279.3292
   2   2.0000     -10.248785      -278.8836
   3   2.0000     -10.213337      -277.9190
   4   2.0000      -1.154865       -31.4255
   5   2.0000      -0.785091       -21.3634
   6   2.0000      -0.639361       -17.3979
   7   2.0000      -0.556219       -15.1355
   8   2.0000      -0.486292       -13.2327
   9   2.0000      -0.481228       -13.0949
  10   2.0000      -0.464648       -12.6437
  11   2.0000      -0.427504       -11.6330
  12   2.0000      -0.381509       -10.3814
  13   2.0000      -0.283049        -7.7021
  14   2.0000      -0.240581        -6.5465
  15   0.0000      -0.059244        -1.6121
  16   0.0000       0.045313         1.2330
  17   0.0000       0.065379         1.7791
  18   0.0000       0.087144         2.3713
  19   0.0000       0.122094         3.3223

MULLIKEN ATOMIC CHARGES
-----------------------
   0 C :    0.127858
   1 O :   -0.021438
   2 C :   -0.063418
   3 C :   -0.073158
   4 H :   -0.122361
   5 H :    0.002704
   6 H :    0.069225
   7 H :    0.080588
Sum of atomic charges:    0.0000000

LOEWDIN ATOMIC CHARGES
----------------------
   0 C :   -0.172305
   1 O :    0.182953
   2 C :   -0.063498
   3 C :   -0.021070
   4 H :   -0.057732
   5 H :    0.024542
   6 H :    0.052213
   7 H :    0.054898

  Mayer bond orders larger than 0.100000
B(  0-C ,  1-O ) :   2.3995 B(  0-C ,  2-C ) :   1.0290 B(  0-C ,  4-H ) :   0.8617
B(  2-C ,  3-C ) :   1.9192 B(  2-C ,  5-H ) :   0.9318 B(  3-C ,  6-H ) :   0.9303
B(  3-C ,  7-H ) :   0.9438

-----------------------------------------------------------------------------
         ABSORPTION SPECTRUM VIA TRANSITION ELECTRIC DIPOLE MOMENTS
-----------------------------------------------------------------------------
State   Energy    Wavelength  fosc         T2        TX        TY        TZ
        (cm-1)      (nm)                 (au**2)    (au)      (au)      (au)
-----------------------------------------------------------------------------
   1   29278.1    341.6   0.000151191   0.00170   0.00233  -0.02047  -0.03572

FINAL SINGLE POINT ENERGY      -191.578544911156

DIPOLE MOMENT
-------------
                                X             Y             Z
Electronic contribution:     -3.21918       0.03684       1.63489
Nuclear contribution   :      3.97139       0.25922      -1.87010
                        -----------------------------------------
Total Dipole Moment    :      0.75221       0.29606      -0.23521
                        -----------------------------------------
Magnitude (a.u.)       :      0.84190
Magnitude (Debye)      :      2.13993

Rotational constants in cm-1:     1.383030     0.160567     0.149852
Rotational constants in MHz : 41462.203877  4813.671874  4492.459505

                             ****ORCA TERMINATED NORMALLY****
TOTAL RUN TIME: 0 days 0 hours 3 minutes 20 seconds 570 msec
