                         Program Version 5.0.3 -  RELEASE  -
|  1> ! HF-3c
|  2> !TightSCF
|  3> %scf
|  4>  ConvForced true
|  5>  convergence tight
|  6>  MaxIter 500
|  7> end
|  8>
|  9> %tddft
| 10>  nroots 1
| 11> end
| 12>
| 13> # 	12617
| 14> * xyz 0 1
| 15> 		C   -1.117934  -0.381014   0.033912
| 16> 		O   -2.186582  -0.376548   0.782182
| 17> 		C    0.018405   0.309566   0.473083
| 18> 		C    1.169424   0.164003  -0.265848
| 19> 		H   -1.185865  -0.917262  -0.996600
| 20> 		H   -0.075534   0.940790   1.196160
| 21> 		H    1.077866  -0.560082  -1.147630
| 22> 		H    2.295907   0.874248  -0.114184
| 23> *
| 24>
| 25>                          ****END OF INPUT****

CARTESIAN COORDINATES (ANGSTROEM)
---------------------------------
  C     -1.117934   -0.381014    0.033912
  O     -2.186582   -0.376548    0.782182
  C      0.018405    0.309566    0.473083
  C      1.169424    0.164003   -0.265848
  H     -1.185865   -0.917262   -0.996600
  H     -0.075534    0.940790    1.196160
  H      1.077866   -0.560082   -1.147630
  H      2.295907    0.874248   -0.114184

 Total Charge           Charge          ....    0
 Multiplicity           Mult            ....    1
 Number of Electrons    NEL             ....   30
 Basis Dimension        Dim             ....   24

ORBITAL ENERGIES
----------------

  NO   OCC          E(Eh)            E(eV)
   0   2.0000     -20.316979      -552.8531
   1   2.0000     -11.267371      -306.6007
   2   2.0000     -11.199944      -304.7660
   3   2.0000     -11.191075      -304.5246
   4   2.0000      -1.325305       -36.0634
   5   2.0000      -1.086661       -29.5696
   6   2.0000      -0.858445       -23.3595
   7   2.0000      -0.786556       -21.4033
   8   2.0000      -0.646275       -17.5860
   9   2.0000      -0.613660       -16.6985
  10   2.0000      -0.547737       -14.9047
  11   2.0000      -0.516695       -14.0600
  12   2.0000      -0.502864       -13.6836
  13   2.0000      -0.406688       -11.0665
  14   2.0000      -0.364152        -9.9091
  15   0.0000       0.112978         3.0743
  16   0.0000       0.296409         8.0657
  17   0.0000       0.406007        11.0480
  18   0.0000       0.561910        15.2904
  19   0.0000       0.584586        15.9074

MULLIKEN ATOMIC CHARGES
-----------------------
   0 C :    0.135165
   1 O :   -0.347599
   2 C :   -0.224410
   3 C :   -0.157896
   4 H :    0.140389
   5 H :    0.157233
   6 H :    0.135906
   7 H :    0.161212
Sum of atomic charges:   -0.0000000

LOEWDIN ATOMIC CHARGES
----------------------
   0 C :    0.133697
   1 O :   -0.282931
   2 C :   -0.164655
   3 C :   -0.080270
   4 H :    0.085338
   5 H :    0.091976
   6 H :    0.090714
   7 H :    0.126131

  Mayer bond orders larger than 0.100000
B(  0-C ,  1-O ) :   1.8482 B(  0-C ,  2-C ) :   1.1019 B(  0-C ,  4-H ) :   0.9312
B(  1-O ,  3-C ) :   0.1097 B(  2-C ,  3-C ) :   1.8790 B(  2-C ,  5-H ) :   0.9573
B(  3-C ,  6-H ) :   0.9621 B(  3-C ,  7-H ) :   0.9526

-----------------------------------------------------------------------------
         ABSORPTION SPECTRUM VIA TRANSITION ELECTRIC DIPOLE MOMENTS
-----------------------------------------------------------------------------
State   Energy    Wavelength  fosc         T2        TX        TY        TZ
        (cm-1)      (nm)                 (au**2)    (au)      (au)      (au)
-----------------------------------------------------------------------------
   1   27591.2    362.4   0.000016653   0.00020   0.01292  -0.00564  -0.00026

Dispersion correction           -0.025710430
FINAL SINGLE POINT ENERGY      -189.287317784069

DIPOLE MOMENT
-------------
                                X             Y             Z
Electronic contribution:     -2.77265      -0.50258       1.16475
Nuclear contribution   :      4.10080       0.61851      -1.94865
                        -----------------------------------------
Total Dipole Moment    :      1.32815       0.11592      -0.78390
                        -----------------------------------------
Magnitude (a.u.)       :      1.54658
Magnitude (Debye)      :      3.93110

Rotational constants in cm-1:     1.497551     0.156297     0.141900
Rotational constants in MHz : 44895.457234  4685.666308  4254.043605

                             ****ORCA TERMINATED NORMALLY****
TOTAL RUN TIME: 0 days 0 hours 0 minutes 15 seconds 859 msec
