                         Program Version 5.0.3 -  RELEASE  -
|  1> ! B3LYP cc-pVDZ
|  2> !TightSCF
|  3> %scf
|  4>  ConvForced true
|  5>  convergence tight
|  6>  MaxIter 500
|  7> end
|  8>
|  9> %tddft
| 10>  nroots 1
| 11> end
| 12>
| 13> # 	23203
| 14> * xyz 0 1
| 15> 		C   -0.569907  -0.487899  -0.066862
| 16> 		O   -0.592882  -1.627210   0.042546
| 17> 		C    0.642498   0.468241   0.025060
| 18> 		C    1.832632  -0.134829  -0.003805
| 19> 		H   -1.593285   0.102480  -0.060677
| 20> 		H    0.651004   1.460685   0.149509
| 21> 		H    1.939562  -1.240978  -0.327341
| 22> 		H    2.711124   0.577104   0.126399
| 23> *
| 24>
| 25>                          ****END OF INPUT****

CARTESIAN COORDINATES (ANGSTROEM)
---------------------------------
  C     -0.569907   -0.487899   -0.066862
  O     -0.592882   -1.627210    0.042546
  C      0.642498    0.468241    0.025060
  C      1.832632   -0.134829   -0.003805
  H     -1.593285    0.102480   -0.060677
  H      0.651004    1.460685    0.149509
  H      1.939562   -1.240978   -0.327341
  H      2.711124    0.577104    0.126399

 Total Charge           Charge          ....    0
 Multiplicity           Mult            ....    1
 Number of Electrons    NEL             ....   30
 Basis Dimension        Dim             ....   76

ORBITAL ENERGIES
----------------

  NO   OCC          E(Eh)            E(eV)
   0   2.0000     -19.146672      -521.0074
   1   2.0000     -10.281263      -279.7674
   2   2.0000     -10.215954      -277.9903
   3   2.0000     -10.195525      -277.4343
   4   2.0000      -1.090247       -29.6671
   5   2.0000      -0.793353       -21.5882
   6   2.0000      -0.629696       -17.1349
   7   2.0000      -0.545734       -14.8502
   8   2.0000      -0.509720       -13.8702
   9   2.0000      -0.454389       -12.3646
  10   2.0000      -0.421701       -11.4751
  11   2.0000      -0.415214       -11.2986
  12   2.0000      -0.388243       -10.5646
  13   2.0000      -0.289544        -7.8789
  14   2.0000      -0.253078        -6.8866
  15   0.0000      -0.055591        -1.5127
  16   0.0000       0.053423         1.4537
  17   0.0000       0.068723         1.8701
  18   0.0000       0.087279         2.3750
  19   0.0000       0.119412         3.2494

MULLIKEN ATOMIC CHARGES
-----------------------
   0 C :    0.155648
   1 O :   -0.120769
   2 C :   -0.053593
   3 C :    0.011449
   4 H :   -0.038204
   5 H :   -0.048265
   6 H :    0.057199
   7 H :    0.036536
Sum of atomic charges:    0.0000000

LOEWDIN ATOMIC CHARGES
----------------------
   0 C :   -0.067245
   1 O :    0.066751
   2 C :   -0.074151
   3 C :    0.006793
   4 H :   -0.021161
   5 H :    0.003756
   6 H :    0.046044
   7 H :    0.039213

  Mayer bond orders larger than 0.100000
B(  0-C ,  1-O ) :   2.2830 B(  0-C ,  2-C ) :   0.9725 B(  0-C ,  4-H ) :   0.8951
B(  2-C ,  3-C ) :   1.9762 B(  2-C ,  5-H ) :   0.9514 B(  3-C ,  6-H ) :   0.9339
B(  3-C ,  7-H ) :   0.9390

-----------------------------------------------------------------------------
         ABSORPTION SPECTRUM VIA TRANSITION ELECTRIC DIPOLE MOMENTS
-----------------------------------------------------------------------------
State   Energy    Wavelength  fosc         T2        TX        TY        TZ
        (cm-1)      (nm)                 (au**2)    (au)      (au)      (au)
-----------------------------------------------------------------------------
   1   31027.6    322.3   0.000148791   0.00158  -0.01977   0.00421   0.03421

FINAL SINGLE POINT ENERGY      -191.638205287350

DIPOLE MOMENT
-------------
                                X             Y             Z
Electronic contribution:     -1.91202      -1.87040       0.03631
Nuclear contribution   :      2.31882       2.63287      -0.10589
                        -----------------------------------------
Total Dipole Moment    :      0.40680       0.76247      -0.06958
                        -----------------------------------------
Magnitude (a.u.)       :      0.86700
Magnitude (Debye)      :      2.20374

Rotational constants in cm-1:     0.785571     0.205757     0.163812
Rotational constants in MHz : 23550.825670  6168.445583  4910.959912

                             ****ORCA TERMINATED NORMALLY****
TOTAL RUN TIME: 0 days 0 hours 3 minutes 20 seconds 72 msec
