                         Program Version 5.0.3 -  RELEASE  -
|  1> ! HF-3c
|  2> !TightSCF
|  3> %scf
|  4>  ConvForced true
|  5>  convergence tight
|  6>  MaxIter 500
|  7> end
|  8>
|  9> %tddft
| 10>  nroots 1
| 11> end
| 12>
| 13> # 	8257
| 14> * xyz 0 1
| 15> 		C   -1.141354  -0.401903  -0.011749
| 16> 		O   -2.105898  -0.498955  -0.813985
| 17> 		C    0.152901   0.320554  -0.438490
| 18> 		C    1.207461   0.178806   0.200032
| 19> 		H   -1.164913  -0.865721   1.233702
| 20> 		H    0.007588   0.977078  -1.225266
| 21> 		H    1.157214  -0.492400   1.037293
| 22> 		H    1.962636   0.816064  -0.013800
| 23> *
| 24>
| 25>                          ****END OF INPUT****

CARTESIAN COORDINATES (ANGSTROEM)
---------------------------------
  C     -1.141354   -0.401903   -0.011749
  O     -2.105898   -0.498955   -0.813985
  C      0.152901    0.320554   -0.438490
  C      1.207461    0.178806    0.200032
  H     -1.164913   -0.865721    1.233702
  H      0.007588    0.977078   -1.225266
  H      1.157214   -0.492400    1.037293
  H      1.962636    0.816064   -0.013800

 Total Charge           Charge          ....    0
 Multiplicity           Mult            ....    1
 Number of Electrons    NEL             ....   30
 Basis Dimension        Dim             ....   24

ORBITAL ENERGIES
----------------

  NO   OCC          E(Eh)            E(eV)
   0   2.0000     -20.355397      -553.8985
   1   2.0000     -11.281661      -306.9896
   2   2.0000     -11.203610      -304.8657
   3   2.0000     -11.198756      -304.7336
   4   2.0000      -1.365571       -37.1591
   5   2.0000      -1.122832       -30.5538
   6   2.0000      -0.865803       -23.5597
   7   2.0000      -0.767975       -20.8977
   8   2.0000      -0.676194       -18.4002
   9   2.0000      -0.642036       -17.4707
  10   2.0000      -0.572188       -15.5700
  11   2.0000      -0.548986       -14.9387
  12   2.0000      -0.516672       -14.0594
  13   2.0000      -0.424552       -11.5526
  14   2.0000      -0.398570       -10.8456
  15   0.0000       0.144001         3.9185
  16   0.0000       0.299007         8.1364
  17   0.0000       0.417260        11.3542
  18   0.0000       0.553254        15.0548
  19   0.0000       0.676623        18.4118

MULLIKEN ATOMIC CHARGES
-----------------------
   0 C :    0.187122
   1 O :   -0.351613
   2 C :   -0.166488
   3 C :   -0.270300
   4 H :    0.135961
   5 H :    0.158114
   6 H :    0.151323
   7 H :    0.155881
Sum of atomic charges:    0.0000000

LOEWDIN ATOMIC CHARGES
----------------------
   0 C :    0.154198
   1 O :   -0.267574
   2 C :   -0.109506
   3 C :   -0.164142
   4 H :    0.092250
   5 H :    0.097290
   6 H :    0.099833
   7 H :    0.097651

  Mayer bond orders larger than 0.100000
B(  0-C ,  1-O ) :   1.9340 B(  0-C ,  2-C ) :   0.9857 B(  0-C ,  4-H ) :   0.8978
B(  2-C ,  3-C ) :   1.9890 B(  2-C ,  5-H ) :   0.9520 B(  3-C ,  6-H ) :   0.9557
B(  3-C ,  7-H ) :   0.9585

-----------------------------------------------------------------------------
         ABSORPTION SPECTRUM VIA TRANSITION ELECTRIC DIPOLE MOMENTS
-----------------------------------------------------------------------------
State   Energy    Wavelength  fosc         T2        TX        TY        TZ
        (cm-1)      (nm)                 (au**2)    (au)      (au)      (au)
-----------------------------------------------------------------------------
   1   31553.2    316.9   0.000026158   0.00027   0.01212  -0.00843   0.00742

Dispersion correction           -0.025823991
FINAL SINGLE POINT ENERGY      -189.300184714827

DIPOLE MOMENT
-------------
                                X             Y             Z
Electronic contribution:     -2.92961      -0.68812      -1.24731
Nuclear contribution   :      3.76446       0.82906       1.96329
                        -----------------------------------------
Total Dipole Moment    :      0.83485       0.14094       0.71598
                        -----------------------------------------
Magnitude (a.u.)       :      1.10881
Magnitude (Debye)      :      2.81838

Rotational constants in cm-1:     1.423571     0.156734     0.142442
Rotational constants in MHz : 42677.579107  4698.766103  4270.305345

                             ****ORCA TERMINATED NORMALLY****
TOTAL RUN TIME: 0 days 0 hours 0 minutes 13 seconds 12 msec
