                         Program Version 5.0.3 -  RELEASE  -
|  1> ! HF-3c
|  2> !TightSCF
|  3> %scf
|  4>  ConvForced true
|  5>  convergence tight
|  6>  MaxIter 500
|  7> end
|  8>
|  9> %tddft
| 10>  nroots 1
| 11> end
| 12>
| 13> # 	25423
| 14> * xyz 0 1
| 15> 		C   -0.574958  -0.449851   0.006093
| 16> 		O   -0.577280  -1.599986   0.012933
| 17> 		C    0.639152   0.434539  -0.040138
| 18> 		C    1.812102  -0.141074   0.016592
| 19> 		H   -1.547203   0.044809  -0.100906
| 20> 		H    0.367979   1.265306   0.234220
| 21> 		H    2.007570  -1.167485  -0.188065
| 22> 		H    2.890153   0.362362   0.075869
| 23> *
| 24>
| 25>                          ****END OF INPUT****

CARTESIAN COORDINATES (ANGSTROEM)
---------------------------------
  C     -0.574958   -0.449851    0.006093
  O     -0.577280   -1.599986    0.012933
  C      0.639152    0.434539   -0.040138
  C      1.812102   -0.141074    0.016592
  H     -1.547203    0.044809   -0.100906
  H      0.367979    1.265306    0.234220
  H      2.007570   -1.167485   -0.188065
  H      2.890153    0.362362    0.075869

 Total Charge           Charge          ....    0
 Multiplicity           Mult            ....    1
 Number of Electrons    NEL             ....   30
 Basis Dimension        Dim             ....   24

ORBITAL ENERGIES
----------------

  NO   OCC          E(Eh)            E(eV)
   0   2.0000     -20.379962      -554.5670
   1   2.0000     -11.306339      -307.6611
   2   2.0000     -11.203992      -304.8761
   3   2.0000     -11.194319      -304.6129
   4   2.0000      -1.448582       -39.4179
   5   2.0000      -1.095058       -29.7980
   6   2.0000      -0.896377       -24.3917
   7   2.0000      -0.770856       -20.9761
   8   2.0000      -0.719315       -19.5736
   9   2.0000      -0.647907       -17.6304
  10   2.0000      -0.606533       -16.5046
  11   2.0000      -0.566548       -15.4166
  12   2.0000      -0.530935       -14.4475
  13   2.0000      -0.412400       -11.2220
  14   2.0000      -0.403537       -10.9808
  15   0.0000       0.144620         3.9353
  16   0.0000       0.307550         8.3689
  17   0.0000       0.481863        13.1122
  18   0.0000       0.640079        17.4174
  19   0.0000       0.702335        19.1115

MULLIKEN ATOMIC CHARGES
-----------------------
   0 C :    0.194322
   1 O :   -0.365290
   2 C :   -0.223720
   3 C :   -0.184511
   4 H :    0.130135
   5 H :    0.143202
   6 H :    0.155435
   7 H :    0.150427
Sum of atomic charges:   -0.0000000

LOEWDIN ATOMIC CHARGES
----------------------
   0 C :    0.155830
   1 O :   -0.249236
   2 C :   -0.166929
   3 C :   -0.086146
   4 H :    0.064055
   5 H :    0.078682
   6 H :    0.098379
   7 H :    0.105365

  Mayer bond orders larger than 0.100000
B(  0-C ,  1-O ) :   1.9250 B(  0-C ,  2-C ) :   0.9885 B(  0-C ,  4-H ) :   0.9211
B(  2-C ,  3-C ) :   1.9592 B(  2-C ,  5-H ) :   0.9638 B(  3-C ,  6-H ) :   0.9597
B(  3-C ,  7-H ) :   0.9583

-----------------------------------------------------------------------------
         ABSORPTION SPECTRUM VIA TRANSITION ELECTRIC DIPOLE MOMENTS
-----------------------------------------------------------------------------
State   Energy    Wavelength  fosc         T2        TX        TY        TZ
        (cm-1)      (nm)                 (au**2)    (au)      (au)      (au)
-----------------------------------------------------------------------------
   1   35821.0    279.2   0.000581747   0.00535   0.07216   0.00756   0.00910

Dispersion correction           -0.026111889
FINAL SINGLE POINT ENERGY      -189.271231921764

DIPOLE MOMENT
-------------
                                X             Y             Z
Electronic contribution:     -1.90397      -1.51488       0.00436
Nuclear contribution   :      2.33441       2.26232       0.01876
                        -----------------------------------------
Total Dipole Moment    :      0.43045       0.74745       0.02311
                        -----------------------------------------
Magnitude (a.u.)       :      0.86284
Magnitude (Debye)      :      2.19317

Rotational constants in cm-1:     0.802943     0.213895     0.169352
Rotational constants in MHz : 24071.637312  6412.416769  5077.047112

                             ****ORCA TERMINATED NORMALLY****
TOTAL RUN TIME: 0 days 0 hours 0 minutes 13 seconds 310 msec
