                         Program Version 5.0.3 -  RELEASE  -
|  1> ! HF-3c
|  2> !TightSCF
|  3> %scf
|  4>  ConvForced true
|  5>  convergence tight
|  6>  MaxIter 500
|  7> end
|  8>
|  9> %tddft
| 10>  nroots 1
| 11> end
| 12>
| 13> # 	17420
| 14> * xyz 0 1
| 15> 		C   -1.291866  -0.290705  -0.014010
| 16> 		O   -1.174994  -1.539903  -0.028895
| 17> 		C    0.030766   0.515140  -0.005870
| 18> 		C    1.247200  -0.058623   0.025448
| 19> 		H   -2.233361   0.218769   0.036838
| 20> 		H   -0.229553   1.491999   0.034691
| 21> 		H    1.453948  -1.034417   0.009333
| 22> 		H    2.221716   0.662429  -0.063634
| 23> *
| 24>
| 25>                          ****END OF INPUT****

CARTESIAN COORDINATES (ANGSTROEM)
---------------------------------
  C     -1.291866   -0.290705   -0.014010
  O     -1.174994   -1.539903   -0.028895
  C      0.030766    0.515140   -0.005870
  C      1.247200   -0.058623    0.025448
  H     -2.233361    0.218769    0.036838
  H     -0.229553    1.491999    0.034691
  H      1.453948   -1.034417    0.009333
  H      2.221716    0.662429   -0.063634

 Total Charge           Charge          ....    0
 Multiplicity           Mult            ....    1
 Number of Electrons    NEL             ....   30
 Basis Dimension        Dim             ....   24

ORBITAL ENERGIES
----------------

  NO   OCC          E(Eh)            E(eV)
   0   2.0000     -20.352737      -553.8261
   1   2.0000     -11.281568      -306.9871
   2   2.0000     -11.192475      -304.5627
   3   2.0000     -11.187852      -304.4369
   4   2.0000      -1.368522       -37.2394
   5   2.0000      -1.062059       -28.9001
   6   2.0000      -0.891554       -24.2604
   7   2.0000      -0.768432       -20.9101
   8   2.0000      -0.684601       -18.6290
   9   2.0000      -0.628088       -17.0911
  10   2.0000      -0.577168       -15.7055
  11   2.0000      -0.526692       -14.3320
  12   2.0000      -0.515568       -14.0293
  13   2.0000      -0.409693       -11.1483
  14   2.0000      -0.386697       -10.5226
  15   0.0000       0.130007         3.5377
  16   0.0000       0.287481         7.8228
  17   0.0000       0.470927        12.8146
  18   0.0000       0.615913        16.7598
  19   0.0000       0.690074        18.7779

MULLIKEN ATOMIC CHARGES
-----------------------
   0 C :    0.145456
   1 O :   -0.340972
   2 C :   -0.172989
   3 C :   -0.216017
   4 H :    0.144826
   5 H :    0.136239
   6 H :    0.153920
   7 H :    0.149536
Sum of atomic charges:   -0.0000000

LOEWDIN ATOMIC CHARGES
----------------------
   0 C :    0.138735
   1 O :   -0.258380
   2 C :   -0.122637
   3 C :   -0.119208
   4 H :    0.080210
   5 H :    0.079988
   6 H :    0.092697
   7 H :    0.108594

  Mayer bond orders larger than 0.100000
B(  0-C ,  1-O ) :   1.9146 B(  0-C ,  2-C ) :   1.0081 B(  0-C ,  4-H ) :   0.9344
B(  2-C ,  3-C ) :   1.9614 B(  2-C ,  5-H ) :   0.9657 B(  3-C ,  6-H ) :   0.9642
B(  3-C ,  7-H ) :   0.9584

-----------------------------------------------------------------------------
         ABSORPTION SPECTRUM VIA TRANSITION ELECTRIC DIPOLE MOMENTS
-----------------------------------------------------------------------------
State   Energy    Wavelength  fosc         T2        TX        TY        TZ
        (cm-1)      (nm)                 (au**2)    (au)      (au)      (au)
-----------------------------------------------------------------------------
   1   29481.6    339.2   0.000001060   0.00001  -0.00070   0.00024  -0.00336

Dispersion correction           -0.025277522
FINAL SINGLE POINT ENERGY      -189.327416075587

DIPOLE MOMENT
-------------
                                X             Y             Z
Electronic contribution:     -2.09034      -1.71287      -0.03137
Nuclear contribution   :      2.31274       2.66432       0.04114
                        -----------------------------------------
Total Dipole Moment    :      0.22240       0.95145       0.00977
                        -----------------------------------------
Magnitude (a.u.)       :      0.97714
Magnitude (Debye)      :      2.48370

Rotational constants in cm-1:     0.717191     0.205970     0.160064
Rotational constants in MHz : 21500.852843  6174.822051  4798.592758

                             ****ORCA TERMINATED NORMALLY****
TOTAL RUN TIME: 0 days 0 hours 0 minutes 12 seconds 693 msec
