                         Program Version 5.0.3 -  RELEASE  -
|  1> ! HF-3c
|  2> !TightSCF
|  3> %scf
|  4>  ConvForced true
|  5>  convergence tight
|  6>  MaxIter 500
|  7> end
|  8>
|  9> %tddft
| 10>  nroots 1
| 11> end
| 12>
| 13> # 	10394
| 14> * xyz 0 1
| 15> 		C   -1.185834  -0.332963   0.071572
| 16> 		O   -1.878830  -0.775385   0.925066
| 17> 		C    0.036724   0.423563   0.351167
| 18> 		C    1.194589   0.075386  -0.230181
| 19> 		H   -1.405051  -0.544764  -1.157308
| 20> 		H    0.023564   1.338721   0.980624
| 21> 		H    1.114637  -0.808651  -0.992558
| 22> 		H    2.112284   0.675377   0.037658
| 23> *
| 24>
| 25>                          ****END OF INPUT****

CARTESIAN COORDINATES (ANGSTROEM)
---------------------------------
  C     -1.185834   -0.332963    0.071572
  O     -1.878830   -0.775385    0.925066
  C      0.036724    0.423563    0.351167
  C      1.194589    0.075386   -0.230181
  H     -1.405051   -0.544764   -1.157308
  H      0.023564    1.338721    0.980624
  H      1.114637   -0.808651   -0.992558
  H      2.112284    0.675377    0.037658

 Total Charge           Charge          ....    0
 Multiplicity           Mult            ....    1
 Number of Electrons    NEL             ....   30
 Basis Dimension        Dim             ....   24

ORBITAL ENERGIES
----------------

  NO   OCC          E(Eh)            E(eV)
   0   2.0000     -20.374047      -554.4060
   1   2.0000     -11.300432      -307.5004
   2   2.0000     -11.180427      -304.2349
   3   2.0000     -11.178349      -304.1783
   4   2.0000      -1.420272       -38.6476
   5   2.0000      -1.075378       -29.2625
   6   2.0000      -0.858098       -23.3500
   7   2.0000      -0.742518       -20.2050
   8   2.0000      -0.661472       -17.9996
   9   2.0000      -0.634680       -17.2705
  10   2.0000      -0.584799       -15.9132
  11   2.0000      -0.542189       -14.7537
  12   2.0000      -0.512108       -13.9352
  13   2.0000      -0.403421       -10.9776
  14   2.0000      -0.386736       -10.5236
  15   0.0000       0.163942         4.4611
  16   0.0000       0.265689         7.2298
  17   0.0000       0.486957        13.2508
  18   0.0000       0.542195        14.7539
  19   0.0000       0.602410        16.3924

MULLIKEN ATOMIC CHARGES
-----------------------
   0 C :    0.191507
   1 O :   -0.358310
   2 C :   -0.177776
   3 C :   -0.223772
   4 H :    0.127466
   5 H :    0.152048
   6 H :    0.140915
   7 H :    0.147922
Sum of atomic charges:   -0.0000000

LOEWDIN ATOMIC CHARGES
----------------------
   0 C :    0.152456
   1 O :   -0.253174
   2 C :   -0.136353
   3 C :   -0.139459
   4 H :    0.076831
   5 H :    0.101036
   6 H :    0.098117
   7 H :    0.100546

  Mayer bond orders larger than 0.100000
B(  0-C ,  1-O ) :   1.9356 B(  0-C ,  2-C ) :   1.0054 B(  0-C ,  4-H ) :   0.8950
B(  2-C ,  3-C ) :   1.9707 B(  2-C ,  5-H ) :   0.9509 B(  3-C ,  6-H ) :   0.9613
B(  3-C ,  7-H ) :   0.9618

-----------------------------------------------------------------------------
         ABSORPTION SPECTRUM VIA TRANSITION ELECTRIC DIPOLE MOMENTS
-----------------------------------------------------------------------------
State   Energy    Wavelength  fosc         T2        TX        TY        TZ
        (cm-1)      (nm)                 (au**2)    (au)      (au)      (au)
-----------------------------------------------------------------------------
   1   35757.0    279.7   0.000025846   0.00024  -0.00694  -0.00871  -0.01067

Dispersion correction           -0.025311082
FINAL SINGLE POINT ENERGY      -189.298796220052

DIPOLE MOMENT
-------------
                                X             Y             Z
Electronic contribution:     -2.80680      -0.86918       1.39035
Nuclear contribution   :      3.56183       1.26328      -2.12128
                        -----------------------------------------
Total Dipole Moment    :      0.75503       0.39411      -0.73093
                        -----------------------------------------
Magnitude (a.u.)       :      1.12235
Magnitude (Debye)      :      2.85278

Rotational constants in cm-1:     1.187329     0.162303     0.153447
Rotational constants in MHz : 35595.226862  4865.724942  4600.233525

                             ****ORCA TERMINATED NORMALLY****
TOTAL RUN TIME: 0 days 0 hours 0 minutes 9 seconds 541 msec
