                         Program Version 5.0.3 -  RELEASE  -
|  1> ! B3LYP cc-pVDZ
|  2> !TightSCF
|  3> %scf
|  4>  ConvForced true
|  5>  convergence tight
|  6>  MaxIter 500
|  7> end
|  8>
|  9> %tddft
| 10>  nroots 1
| 11> end
| 12>
| 13> # 	22083
| 14> * xyz 0 1
| 15> 		C   -0.596505  -0.444079  -0.015092
| 16> 		O   -0.584868  -1.625312   0.006133
| 17> 		C    0.596381   0.435433  -0.001700
| 18> 		C    1.892756  -0.132841  -0.008912
| 19> 		H   -1.346715  -0.019850   0.056177
| 20> 		H    0.498796   1.454285   0.064939
| 21> 		H    1.862522  -1.174297   0.047242
| 22> 		H    2.660121   0.438384   0.044405
| 23> *
| 24>
| 25>                          ****END OF INPUT****

CARTESIAN COORDINATES (ANGSTROEM)
---------------------------------
  C     -0.596505   -0.444079   -0.015092
  O     -0.584868   -1.625312    0.006133
  C      0.596381    0.435433   -0.001700
  C      1.892756   -0.132841   -0.008912
  H     -1.346715   -0.019850    0.056177
  H      0.498796    1.454285    0.064939
  H      1.862522   -1.174297    0.047242
  H      2.660121    0.438384    0.044405

 Total Charge           Charge          ....    0
 Multiplicity           Mult            ....    1
 Number of Electrons    NEL             ....   30
 Basis Dimension        Dim             ....   76

ORBITAL ENERGIES
----------------

  NO   OCC          E(Eh)            E(eV)
   0   2.0000     -19.130999      -520.5810
   1   2.0000     -10.247489      -278.8484
   2   2.0000     -10.201624      -277.6003
   3   2.0000     -10.198053      -277.5031
   4   2.0000      -1.058942       -28.8153
   5   2.0000      -0.785966       -21.3872
   6   2.0000      -0.686515       -18.6810
   7   2.0000      -0.581243       -15.8164
   8   2.0000      -0.523534       -14.2461
   9   2.0000      -0.447739       -12.1836
  10   2.0000      -0.431875       -11.7519
  11   2.0000      -0.403055       -10.9677
  12   2.0000      -0.393904       -10.7187
  13   2.0000      -0.274640        -7.4733
  14   2.0000      -0.253729        -6.9043
  15   0.0000      -0.072628        -1.9763
  16   0.0000       0.059232         1.6118
  17   0.0000       0.088122         2.3979
  18   0.0000       0.110890         3.0175
  19   0.0000       0.142008         3.8642

MULLIKEN ATOMIC CHARGES
-----------------------
   0 C :    0.364795
   1 O :   -0.188401
   2 C :   -0.175074
   3 C :    0.184791
   4 H :   -0.135685
   5 H :   -0.040305
   6 H :    0.014772
   7 H :   -0.024892
Sum of atomic charges:    0.0000000

LOEWDIN ATOMIC CHARGES
----------------------
   0 C :   -0.016932
   1 O :    0.033423
   2 C :   -0.040388
   3 C :    0.078874
   4 H :   -0.068908
   5 H :    0.005752
   6 H :    0.021867
   7 H :   -0.013688

  Mayer bond orders larger than 0.100000
B(  0-C ,  1-O ) :   2.2006 B(  0-C ,  2-C ) :   1.0704 B(  0-C ,  4-H ) :   0.9296
B(  2-C ,  3-C ) :   1.9547 B(  2-C ,  5-H ) :   0.9554 B(  3-C ,  6-H ) :   0.9382
B(  3-C ,  7-H ) :   0.9471

-----------------------------------------------------------------------------
         ABSORPTION SPECTRUM VIA TRANSITION ELECTRIC DIPOLE MOMENTS
-----------------------------------------------------------------------------
State   Energy    Wavelength  fosc         T2        TX        TY        TZ
        (cm-1)      (nm)                 (au**2)    (au)      (au)      (au)
-----------------------------------------------------------------------------
   1   27201.4    367.6   0.000015285   0.00018   0.01200   0.00350  -0.00536

FINAL SINGLE POINT ENERGY      -191.595234912967

DIPOLE MOMENT
-------------
                                X             Y             Z
Electronic contribution:     -1.99117      -1.53529      -0.16227
Nuclear contribution   :      2.29117       2.44561       0.19944
                        -----------------------------------------
Total Dipole Moment    :      0.29999       0.91032       0.03717
                        -----------------------------------------
Magnitude (a.u.)       :      0.95920
Magnitude (Debye)      :      2.43809

Rotational constants in cm-1:     0.780997     0.208539     0.164642
Rotational constants in MHz : 23413.686598  6251.856376  4935.851684

                             ****ORCA TERMINATED NORMALLY****
TOTAL RUN TIME: 0 days 0 hours 3 minutes 23 seconds 527 msec
