                         Program Version 5.0.3 -  RELEASE  -
|  1> ! HF-3c
|  2> !TightSCF
|  3> %scf
|  4>  ConvForced true
|  5>  convergence tight
|  6>  MaxIter 500
|  7> end
|  8>
|  9> %tddft
| 10>  nroots 1
| 11> end
| 12>
| 13> # 	15450
| 14> * xyz 0 1
| 15> 		C   -1.194904  -0.321352  -0.019684
| 16> 		O   -1.613619  -1.022875  -0.862683
| 17> 		C    0.057514   0.570148  -0.231609
| 18> 		C    1.201649   0.031728   0.213830
| 19> 		H   -1.469432  -0.344958   0.995910
| 20> 		H   -0.039799   1.509396  -0.718976
| 21> 		H    1.317023  -1.091200   0.619626
| 22> 		H    1.884927   0.645681  -0.009836
| 23> *
| 24>
| 25>                          ****END OF INPUT****

CARTESIAN COORDINATES (ANGSTROEM)
---------------------------------
  C     -1.194904   -0.321352   -0.019684
  O     -1.613619   -1.022875   -0.862683
  C      0.057514    0.570148   -0.231609
  C      1.201649    0.031728    0.213830
  H     -1.469432   -0.344958    0.995910
  H     -0.039799    1.509396   -0.718976
  H      1.317023   -1.091200    0.619626
  H      1.884927    0.645681   -0.009836

 Total Charge           Charge          ....    0
 Multiplicity           Mult            ....    1
 Number of Electrons    NEL             ....   30
 Basis Dimension        Dim             ....   24

ORBITAL ENERGIES
----------------

  NO   OCC          E(Eh)            E(eV)
   0   2.0000     -20.392697      -554.9135
   1   2.0000     -11.309925      -307.7587
   2   2.0000     -11.184463      -304.3447
   3   2.0000     -11.175843      -304.1102
   4   2.0000      -1.437851       -39.1259
   5   2.0000      -1.082187       -29.4478
   6   2.0000      -0.884969       -24.0812
   7   2.0000      -0.777527       -21.1576
   8   2.0000      -0.691870       -18.8267
   9   2.0000      -0.646201       -17.5840
  10   2.0000      -0.600619       -16.3437
  11   2.0000      -0.564885       -15.3713
  12   2.0000      -0.528614       -14.3843
  13   2.0000      -0.406028       -11.0486
  14   2.0000      -0.401644       -10.9293
  15   0.0000       0.191075         5.1994
  16   0.0000       0.223794         6.0898
  17   0.0000       0.501404        13.6439
  18   0.0000       0.583863        15.8877
  19   0.0000       0.715189        19.4613

MULLIKEN ATOMIC CHARGES
-----------------------
   0 C :    0.180727
   1 O :   -0.347493
   2 C :   -0.148491
   3 C :   -0.276109
   4 H :    0.139773
   5 H :    0.150651
   6 H :    0.160077
   7 H :    0.140866
Sum of atomic charges:   -0.0000000

LOEWDIN ATOMIC CHARGES
----------------------
   0 C :    0.155601
   1 O :   -0.237370
   2 C :   -0.103313
   3 C :   -0.179521
   4 H :    0.069827
   5 H :    0.095751
   6 H :    0.117647
   7 H :    0.081379

  Mayer bond orders larger than 0.100000
B(  0-C ,  1-O ) :   1.9621 B(  0-C ,  2-C ) :   0.9581 B(  0-C ,  4-H ) :   0.9213
B(  2-C ,  3-C ) :   2.0014 B(  2-C ,  5-H ) :   0.9577 B(  3-C ,  6-H ) :   0.9592
B(  3-C ,  7-H ) :   0.9678

-----------------------------------------------------------------------------
         ABSORPTION SPECTRUM VIA TRANSITION ELECTRIC DIPOLE MOMENTS
-----------------------------------------------------------------------------
State   Energy    Wavelength  fosc         T2        TX        TY        TZ
        (cm-1)      (nm)                 (au**2)    (au)      (au)      (au)
-----------------------------------------------------------------------------
   1   36523.7    273.8   0.000193164   0.00174  -0.03946  -0.00445   0.01280

Dispersion correction           -0.025561579
FINAL SINGLE POINT ENERGY      -189.272792218383

DIPOLE MOMENT
-------------
                                X             Y             Z
Electronic contribution:     -2.72488      -1.02844      -1.08893
Nuclear contribution   :      3.13253       1.48395       1.71682
                        -----------------------------------------
Total Dipole Moment    :      0.40765       0.45551       0.62788
                        -----------------------------------------
Magnitude (a.u.)       :      0.87630
Magnitude (Debye)      :      2.22738

Rotational constants in cm-1:     0.937385     0.173054     0.164107
Rotational constants in MHz : 28102.109101  5188.020160  4919.790213

                             ****ORCA TERMINATED NORMALLY****
TOTAL RUN TIME: 0 days 0 hours 0 minutes 9 seconds 965 msec
