                         Program Version 5.0.3 -  RELEASE  -
|  1> ! HF-3c
|  2> !TightSCF
|  3> %scf
|  4>  ConvForced true
|  5>  convergence tight
|  6>  MaxIter 500
|  7> end
|  8>
|  9> %tddft
| 10>  nroots 1
| 11> end
| 12>
| 13> # 	12436
| 14> * xyz 0 1
| 15> 		C   -1.221575  -0.253553   0.027147
| 16> 		O   -2.185890  -0.286484   0.852876
| 17> 		C    0.045525   0.484519   0.279020
| 18> 		C    1.100191   0.136327  -0.292021
| 19> 		H   -1.241588  -0.949035  -0.875579
| 20> 		H    0.006207   1.067299   1.243196
| 21> 		H    1.176345  -0.666425  -1.084555
| 22> 		H    2.289541   0.459215  -0.107461
| 23> *
| 24>
| 25>                          ****END OF INPUT****

CARTESIAN COORDINATES (ANGSTROEM)
---------------------------------
  C     -1.221575   -0.253553    0.027147
  O     -2.185890   -0.286484    0.852876
  C      0.045525    0.484519    0.279020
  C      1.100191    0.136327   -0.292021
  H     -1.241588   -0.949035   -0.875579
  H      0.006207    1.067299    1.243196
  H      1.176345   -0.666425   -1.084555
  H      2.289541    0.459215   -0.107461

 Total Charge           Charge          ....    0
 Multiplicity           Mult            ....    1
 Number of Electrons    NEL             ....   30
 Basis Dimension        Dim             ....   24

ORBITAL ENERGIES
----------------

  NO   OCC          E(Eh)            E(eV)
   0   2.0000     -20.346220      -553.6488
   1   2.0000     -11.280530      -306.9588
   2   2.0000     -11.198700      -304.7321
   3   2.0000     -11.196068      -304.6605
   4   2.0000      -1.355460       -36.8839
   5   2.0000      -1.104215       -30.0472
   6   2.0000      -0.862334       -23.4653
   7   2.0000      -0.765442       -20.8287
   8   2.0000      -0.657182       -17.8828
   9   2.0000      -0.631522       -17.1846
  10   2.0000      -0.562434       -15.3046
  11   2.0000      -0.523314       -14.2401
  12   2.0000      -0.497353       -13.5337
  13   2.0000      -0.410240       -11.1632
  14   2.0000      -0.403970       -10.9926
  15   0.0000       0.140191         3.8148
  16   0.0000       0.306728         8.3465
  17   0.0000       0.438162        11.9230
  18   0.0000       0.575419        15.6580
  19   0.0000       0.591286        16.0897

MULLIKEN ATOMIC CHARGES
-----------------------
   0 C :    0.162109
   1 O :   -0.346142
   2 C :   -0.197116
   3 C :   -0.207298
   4 H :    0.136235
   5 H :    0.165650
   6 H :    0.135823
   7 H :    0.150737
Sum of atomic charges:    0.0000000

LOEWDIN ATOMIC CHARGES
----------------------
   0 C :    0.151760
   1 O :   -0.269036
   2 C :   -0.146744
   3 C :   -0.124617
   4 H :    0.077794
   5 H :    0.112506
   6 H :    0.088725
   7 H :    0.109612

  Mayer bond orders larger than 0.100000
B(  0-C ,  1-O ) :   1.9065 B(  0-C ,  2-C ) :   1.0180 B(  0-C ,  4-H ) :   0.9276
B(  2-C ,  3-C ) :   1.9736 B(  2-C ,  5-H ) :   0.9411 B(  3-C ,  6-H ) :   0.9569
B(  3-C ,  7-H ) :   0.9515

-----------------------------------------------------------------------------
         ABSORPTION SPECTRUM VIA TRANSITION ELECTRIC DIPOLE MOMENTS
-----------------------------------------------------------------------------
State   Energy    Wavelength  fosc         T2        TX        TY        TZ
        (cm-1)      (nm)                 (au**2)    (au)      (au)      (au)
-----------------------------------------------------------------------------
   1   30699.1    325.7   0.000036005   0.00039   0.01143  -0.01276  -0.00962

Dispersion correction           -0.025329344
FINAL SINGLE POINT ENERGY      -189.315641571429

DIPOLE MOMENT
-------------
                                X             Y             Z
Electronic contribution:     -3.18930       0.01722       1.02452
Nuclear contribution   :      4.32054      -0.07011      -1.63335
                        -----------------------------------------
Total Dipole Moment    :      1.13124      -0.05289      -0.60883
                        -----------------------------------------
Magnitude (a.u.)       :      1.28576
Magnitude (Debye)      :      3.26814

Rotational constants in cm-1:     1.469176     0.155560     0.142777
Rotational constants in MHz : 44044.776741  4663.562192  4280.357936

                             ****ORCA TERMINATED NORMALLY****
TOTAL RUN TIME: 0 days 0 hours 0 minutes 15 seconds 904 msec
