                         Program Version 5.0.3 -  RELEASE  -
|  1> ! HF-3c
|  2> !TightSCF
|  3> %scf
|  4>  ConvForced true
|  5>  convergence tight
|  6>  MaxIter 500
|  7> end
|  8>
|  9> %tddft
| 10>  nroots 1
| 11> end
| 12>
| 13> # 	11997
| 14> * xyz 0 1
| 15> 		C   -1.137504  -0.347694  -0.096158
| 16> 		O   -2.190920  -0.221221  -0.625969
| 17> 		C   -0.005869   0.405222  -0.336348
| 18> 		C    1.217395   0.043912   0.179626
| 19> 		H   -1.054269  -1.161741   0.826352
| 20> 		H   -0.027008   1.224209  -1.040981
| 21> 		H    1.294848  -0.733317   0.987255
| 22> 		H    1.929359   0.759449   0.102032
| 23> *
| 24>
| 25>                          ****END OF INPUT****

CARTESIAN COORDINATES (ANGSTROEM)
---------------------------------
  C     -1.137504   -0.347694   -0.096158
  O     -2.190920   -0.221221   -0.625969
  C     -0.005869    0.405222   -0.336348
  C      1.217395    0.043912    0.179626
  H     -1.054269   -1.161741    0.826352
  H     -0.027008    1.224209   -1.040981
  H      1.294848   -0.733317    0.987255
  H      1.929359    0.759449    0.102032

 Total Charge           Charge          ....    0
 Multiplicity           Mult            ....    1
 Number of Electrons    NEL             ....   30
 Basis Dimension        Dim             ....   24

ORBITAL ENERGIES
----------------

  NO   OCC          E(Eh)            E(eV)
   0   2.0000     -20.362772      -554.0992
   1   2.0000     -11.298386      -307.4447
   2   2.0000     -11.200755      -304.7880
   3   2.0000     -11.197256      -304.6928
   4   2.0000      -1.415985       -38.5309
   5   2.0000      -1.096915       -29.8486
   6   2.0000      -0.898949       -24.4617
   7   2.0000      -0.764667       -20.8076
   8   2.0000      -0.664789       -18.0898
   9   2.0000      -0.657355       -17.8875
  10   2.0000      -0.574864       -15.6429
  11   2.0000      -0.561015       -15.2660
  12   2.0000      -0.546254       -14.8643
  13   2.0000      -0.402091       -10.9414
  14   2.0000      -0.389242       -10.5918
  15   0.0000       0.110216         2.9991
  16   0.0000       0.321168         8.7394
  17   0.0000       0.512214        13.9381
  18   0.0000       0.593418        16.1477
  19   0.0000       0.682878        18.5820

MULLIKEN ATOMIC CHARGES
-----------------------
   0 C :    0.174589
   1 O :   -0.359498
   2 C :   -0.175411
   3 C :   -0.216666
   4 H :    0.121322
   5 H :    0.159450
   6 H :    0.149989
   7 H :    0.146225
Sum of atomic charges:   -0.0000000

LOEWDIN ATOMIC CHARGES
----------------------
   0 C :    0.139211
   1 O :   -0.258225
   2 C :   -0.128558
   3 C :   -0.114768
   4 H :    0.068539
   5 H :    0.102992
   6 H :    0.101552
   7 H :    0.089256

  Mayer bond orders larger than 0.100000
B(  0-C ,  1-O ) :   1.8777 B(  0-C ,  2-C ) :   1.0775 B(  0-C ,  4-H ) :   0.9051
B(  2-C ,  3-C ) :   1.9031 B(  2-C ,  5-H ) :   0.9521 B(  3-C ,  6-H ) :   0.9632
B(  3-C ,  7-H ) :   0.9685

-----------------------------------------------------------------------------
         ABSORPTION SPECTRUM VIA TRANSITION ELECTRIC DIPOLE MOMENTS
-----------------------------------------------------------------------------
State   Energy    Wavelength  fosc         T2        TX        TY        TZ
        (cm-1)      (nm)                 (au**2)    (au)      (au)      (au)
-----------------------------------------------------------------------------
   1   31972.2    312.8   0.000090725   0.00093   0.02746  -0.00586  -0.01207

Dispersion correction           -0.025952397
FINAL SINGLE POINT ENERGY      -189.310249687152

DIPOLE MOMENT
-------------
                                X             Y             Z
Electronic contribution:     -3.01205      -0.23388      -1.11844
Nuclear contribution   :      4.12867       0.22981       1.62919
                        -----------------------------------------
Total Dipole Moment    :      1.11661      -0.00406       0.51074
                        -----------------------------------------
Magnitude (a.u.)       :      1.22789
Magnitude (Debye)      :      3.12104

Rotational constants in cm-1:     1.589211     0.161445     0.147058
Rotational constants in MHz : 47643.354752  4839.999729  4408.696599

                             ****ORCA TERMINATED NORMALLY****
TOTAL RUN TIME: 0 days 0 hours 0 minutes 12 seconds 474 msec
