                         Program Version 5.0.3 -  RELEASE  -
|  1> ! HF-3c
|  2> !TightSCF
|  3> %scf
|  4>  ConvForced true
|  5>  convergence tight
|  6>  MaxIter 500
|  7> end
|  8>
|  9> %tddft
| 10>  nroots 1
| 11> end
| 12>
| 13> # 	3336
| 14> * xyz 0 1
| 15> 		C   -1.166908  -0.327107  -0.030138
| 16> 		O   -1.994302  -0.692026  -0.869031
| 17> 		C    0.117292   0.354888  -0.342472
| 18> 		C    1.160677   0.119676   0.213793
| 19> 		H   -1.351472  -0.568825   1.064128
| 20> 		H   -0.043951   0.987567  -0.984297
| 21> 		H    1.224092  -0.554247   0.963428
| 22> 		H    2.136990   0.659378  -0.061872
| 23> *
| 24>
| 25>                          ****END OF INPUT****

CARTESIAN COORDINATES (ANGSTROEM)
---------------------------------
  C     -1.166908   -0.327107   -0.030138
  O     -1.994302   -0.692026   -0.869031
  C      0.117292    0.354888   -0.342472
  C      1.160677    0.119676    0.213793
  H     -1.351472   -0.568825    1.064128
  H     -0.043951    0.987567   -0.984297
  H      1.224092   -0.554247    0.963428
  H      2.136990    0.659378   -0.061872

 Total Charge           Charge          ....    0
 Multiplicity           Mult            ....    1
 Number of Electrons    NEL             ....   30
 Basis Dimension        Dim             ....   24

ORBITAL ENERGIES
----------------

  NO   OCC          E(Eh)            E(eV)
   0   2.0000     -20.370088      -554.2983
   1   2.0000     -11.294544      -307.3402
   2   2.0000     -11.217178      -305.2349
   3   2.0000     -11.212508      -305.1079
   4   2.0000      -1.390367       -37.8338
   5   2.0000      -1.145263       -31.1642
   6   2.0000      -0.896765       -24.4022
   7   2.0000      -0.811379       -22.0787
   8   2.0000      -0.688355       -18.7311
   9   2.0000      -0.676927       -18.4201
  10   2.0000      -0.606338       -16.4993
  11   2.0000      -0.552328       -15.0296
  12   2.0000      -0.527131       -14.3440
  13   2.0000      -0.445101       -12.1118
  14   2.0000      -0.412956       -11.2371
  15   0.0000       0.152353         4.1457
  16   0.0000       0.292627         7.9628
  17   0.0000       0.510555        13.8929
  18   0.0000       0.621570        16.9138
  19   0.0000       0.687157        18.6985

MULLIKEN ATOMIC CHARGES
-----------------------
   0 C :    0.184148
   1 O :   -0.340873
   2 C :   -0.214513
   3 C :   -0.235964
   4 H :    0.136825
   5 H :    0.160117
   6 H :    0.147438
   7 H :    0.162821
Sum of atomic charges:   -0.0000000

LOEWDIN ATOMIC CHARGES
----------------------
   0 C :    0.162534
   1 O :   -0.252119
   2 C :   -0.142740
   3 C :   -0.136396
   4 H :    0.076116
   5 H :    0.089705
   6 H :    0.089638
   7 H :    0.113262

  Mayer bond orders larger than 0.100000
B(  0-C ,  1-O ) :   1.9384 B(  0-C ,  2-C ) :   0.9868 B(  0-C ,  4-H ) :   0.9234
B(  2-C ,  3-C ) :   1.9967 B(  2-C ,  5-H ) :   0.9492 B(  3-C ,  6-H ) :   0.9590
B(  3-C ,  7-H ) :   0.9494

-----------------------------------------------------------------------------
         ABSORPTION SPECTRUM VIA TRANSITION ELECTRIC DIPOLE MOMENTS
-----------------------------------------------------------------------------
State   Energy    Wavelength  fosc         T2        TX        TY        TZ
        (cm-1)      (nm)                 (au**2)    (au)      (au)      (au)
-----------------------------------------------------------------------------
   1   32546.4    307.3   0.000050255   0.00051   0.00739   0.01452  -0.01559

Dispersion correction           -0.026218317
FINAL SINGLE POINT ENERGY      -189.282108611498

DIPOLE MOMENT
-------------
                                X             Y             Z
Electronic contribution:     -2.88830      -0.77262      -1.20844
Nuclear contribution   :      3.73599       1.07077       1.90389
                        -----------------------------------------
Total Dipole Moment    :      0.84769       0.29814       0.69546
                        -----------------------------------------
Magnitude (a.u.)       :      1.13628
Magnitude (Debye)      :      2.88819

Rotational constants in cm-1:     1.545267     0.159622     0.150634
Rotational constants in MHz : 46325.946075  4785.352690  4515.881881

                             ****ORCA TERMINATED NORMALLY****
TOTAL RUN TIME: 0 days 0 hours 0 minutes 16 seconds 127 msec
