                         Program Version 5.0.3 -  RELEASE  -
|  1> ! HF-3c
|  2> !TightSCF
|  3> %scf
|  4>  ConvForced true
|  5>  convergence tight
|  6>  MaxIter 500
|  7> end
|  8>
|  9> %tddft
| 10>  nroots 1
| 11> end
| 12>
| 13> # 	24376
| 14> * xyz 0 1
| 15> 		C   -0.558846  -0.454827   0.077123
| 16> 		O   -0.629864  -1.641244  -0.055604
| 17> 		C    0.636353   0.380137  -0.055385
| 18> 		C    1.851690  -0.055620   0.030569
| 19> 		H   -1.483526   0.242504   0.219642
| 20> 		H    0.475994   1.336160  -0.141512
| 21> 		H    2.174928  -1.231567   0.395864
| 22> 		H    2.801902   0.527103  -0.244026
| 23> *
| 24>
| 25>                          ****END OF INPUT****

CARTESIAN COORDINATES (ANGSTROEM)
---------------------------------
  C     -0.558846   -0.454827    0.077123
  O     -0.629864   -1.641244   -0.055604
  C      0.636353    0.380137   -0.055385
  C      1.851690   -0.055620    0.030569
  H     -1.483526    0.242504    0.219642
  H      0.475994    1.336160   -0.141512
  H      2.174928   -1.231567    0.395864
  H      2.801902    0.527103   -0.244026

 Total Charge           Charge          ....    0
 Multiplicity           Mult            ....    1
 Number of Electrons    NEL             ....   30
 Basis Dimension        Dim             ....   24

ORBITAL ENERGIES
----------------

  NO   OCC          E(Eh)            E(eV)
   0   2.0000     -20.367786      -554.2356
   1   2.0000     -11.297248      -307.4137
   2   2.0000     -11.196232      -304.6650
   3   2.0000     -11.185005      -304.3595
   4   2.0000      -1.408148       -38.3177
   5   2.0000      -1.090778       -29.6816
   6   2.0000      -0.884665       -24.0729
   7   2.0000      -0.737846       -20.0778
   8   2.0000      -0.703382       -19.1400
   9   2.0000      -0.617398       -16.8002
  10   2.0000      -0.594071       -16.1655
  11   2.0000      -0.545142       -14.8341
  12   2.0000      -0.504722       -13.7342
  13   2.0000      -0.409327       -11.1383
  14   2.0000      -0.395294       -10.7565
  15   0.0000       0.141228         3.8430
  16   0.0000       0.317903         8.6506
  17   0.0000       0.468978        12.7615
  18   0.0000       0.549484        14.9522
  19   0.0000       0.626435        17.0462

MULLIKEN ATOMIC CHARGES
-----------------------
   0 C :    0.190499
   1 O :   -0.360184
   2 C :   -0.233958
   3 C :   -0.165653
   4 H :    0.127125
   5 H :    0.143179
   6 H :    0.155146
   7 H :    0.143845
Sum of atomic charges:    0.0000000

LOEWDIN ATOMIC CHARGES
----------------------
   0 C :    0.161669
   1 O :   -0.259928
   2 C :   -0.181968
   3 C :   -0.083388
   4 H :    0.068813
   5 H :    0.083380
   6 H :    0.114697
   7 H :    0.096724

  Mayer bond orders larger than 0.100000
B(  0-C ,  1-O ) :   1.9146 B(  0-C ,  2-C ) :   1.0194 B(  0-C ,  4-H ) :   0.9137
B(  2-C ,  3-C ) :   1.9450 B(  2-C ,  5-H ) :   0.9574 B(  3-C ,  6-H ) :   0.9527
B(  3-C ,  7-H ) :   0.9606

-----------------------------------------------------------------------------
         ABSORPTION SPECTRUM VIA TRANSITION ELECTRIC DIPOLE MOMENTS
-----------------------------------------------------------------------------
State   Energy    Wavelength  fosc         T2        TX        TY        TZ
        (cm-1)      (nm)                 (au**2)    (au)      (au)      (au)
-----------------------------------------------------------------------------
   1   33903.0    295.0   0.000146380   0.00142  -0.03698   0.00294  -0.00674

Dispersion correction           -0.025486458
FINAL SINGLE POINT ENERGY      -189.294792169490

DIPOLE MOMENT
-------------
                                X             Y             Z
Electronic contribution:     -2.04347      -1.75450      -0.08367
Nuclear contribution   :      2.56577       2.60640       0.21691
                        -----------------------------------------
Total Dipole Moment    :      0.52231       0.85189       0.13325
                        -----------------------------------------
Magnitude (a.u.)       :      1.00811
Magnitude (Debye)      :      2.56240

Rotational constants in cm-1:     0.813028     0.199944     0.161883
Rotational constants in MHz : 24373.976776  5994.184982  4853.122477

                             ****ORCA TERMINATED NORMALLY****
TOTAL RUN TIME: 0 days 0 hours 0 minutes 16 seconds 85 msec
