                         Program Version 5.0.3 -  RELEASE  -
|  1> ! HF-3c
|  2> !TightSCF
|  3> %scf
|  4>  ConvForced true
|  5>  convergence tight
|  6>  MaxIter 500
|  7> end
|  8>
|  9> %tddft
| 10>  nroots 1
| 11> end
| 12>
| 13> # 	31203
| 14> * xyz 0 1
| 15> 		C   -0.557012  -0.443697   0.003944
| 16> 		O   -0.550663  -1.642643   0.003129
| 17> 		C    0.612917   0.487627  -0.022944
| 18> 		C    1.800824  -0.152988   0.022053
| 19> 		H   -1.505954   0.176536   0.039057
| 20> 		H    0.443465   1.469270  -0.000033
| 21> 		H    1.659068  -1.438004  -0.195139
| 22> 		H    2.981023   0.395140   0.076413
| 23> *
| 24>
| 25>                          ****END OF INPUT****

CARTESIAN COORDINATES (ANGSTROEM)
---------------------------------
  C     -0.557012   -0.443697    0.003944
  O     -0.550663   -1.642643    0.003129
  C      0.612917    0.487627   -0.022944
  C      1.800824   -0.152988    0.022053
  H     -1.505954    0.176536    0.039057
  H      0.443465    1.469270   -0.000033
  H      1.659068   -1.438004   -0.195139
  H      2.981023    0.395140    0.076413

 Total Charge           Charge          ....    0
 Multiplicity           Mult            ....    1
 Number of Electrons    NEL             ....   30
 Basis Dimension        Dim             ....   24

ORBITAL ENERGIES
----------------

  NO   OCC          E(Eh)            E(eV)
   0   2.0000     -20.356056      -553.9164
   1   2.0000     -11.290637      -307.2338
   2   2.0000     -11.183458      -304.3174
   3   2.0000     -11.166426      -303.8539
   4   2.0000      -1.403039       -38.1786
   5   2.0000      -1.062948       -28.9243
   6   2.0000      -0.858200       -23.3528
   7   2.0000      -0.727063       -19.7844
   8   2.0000      -0.688174       -18.7262
   9   2.0000      -0.595722       -16.2104
  10   2.0000      -0.565894       -15.3988
  11   2.0000      -0.541814       -14.7435
  12   2.0000      -0.483506       -13.1569
  13   2.0000      -0.398312       -10.8386
  14   2.0000      -0.380804       -10.3622
  15   0.0000       0.145363         3.9555
  16   0.0000       0.309961         8.4345
  17   0.0000       0.423811        11.5325
  18   0.0000       0.471377        12.8268
  19   0.0000       0.643563        17.5122

MULLIKEN ATOMIC CHARGES
-----------------------
   0 C :    0.187887
   1 O :   -0.380542
   2 C :   -0.236312
   3 C :   -0.153758
   4 H :    0.125036
   5 H :    0.136656
   6 H :    0.171744
   7 H :    0.149290
Sum of atomic charges:   -0.0000000

LOEWDIN ATOMIC CHARGES
----------------------
   0 C :    0.165770
   1 O :   -0.282261
   2 C :   -0.192037
   3 C :   -0.081968
   4 H :    0.064441
   5 H :    0.080021
   6 H :    0.132720
   7 H :    0.113314

  Mayer bond orders larger than 0.100000
B(  0-C ,  1-O ) :   1.9026 B(  0-C ,  2-C ) :   1.0165 B(  0-C ,  4-H ) :   0.9186
B(  2-C ,  3-C ) :   1.9196 B(  2-C ,  5-H ) :   0.9645 B(  3-C ,  6-H ) :   0.9337
B(  3-C ,  7-H ) :   0.9513

-----------------------------------------------------------------------------
         ABSORPTION SPECTRUM VIA TRANSITION ELECTRIC DIPOLE MOMENTS
-----------------------------------------------------------------------------
State   Energy    Wavelength  fosc         T2        TX        TY        TZ
        (cm-1)      (nm)                 (au**2)    (au)      (au)      (au)
-----------------------------------------------------------------------------
   1   35449.1    282.1   0.000109030   0.00101  -0.01972   0.00056  -0.02496

Dispersion correction           -0.026146111
FINAL SINGLE POINT ENERGY      -189.263426365946

DIPOLE MOMENT
-------------
                                X             Y             Z
Electronic contribution:     -1.66992      -1.54684       0.05780
Nuclear contribution   :      2.19934       2.35461      -0.07516
                        -----------------------------------------
Total Dipole Moment    :      0.52942       0.80777      -0.01736
                        -----------------------------------------
Magnitude (a.u.)       :      0.96596
Magnitude (Debye)      :      2.45527

Rotational constants in cm-1:     0.719259     0.216521     0.166614
Rotational constants in MHz : 21562.855085  6491.133704  4994.950813

                             ****ORCA TERMINATED NORMALLY****
TOTAL RUN TIME: 0 days 0 hours 0 minutes 15 seconds 171 msec
