                         Program Version 5.0.3 -  RELEASE  -
|  1> ! B3LYP cc-pVDZ
|  2> !TightSCF
|  3> %scf
|  4>  ConvForced true
|  5>  convergence tight
|  6>  MaxIter 500
|  7> end
|  8>
|  9> %tddft
| 10>  nroots 1
| 11> end
| 12>
| 13> # 	8856
| 14> * xyz 0 1
| 15> 		C   -1.187315  -0.417379   0.127054
| 16> 		O   -2.163492  -0.567668   0.844920
| 17> 		C    0.012982   0.373496   0.336812
| 18> 		C    1.159291   0.135072  -0.220313
| 19> 		H   -1.186278  -0.950748  -0.939019
| 20> 		H    0.042198   1.301248   1.047824
| 21> 		H    1.266167  -0.710811  -1.011252
| 22> 		H    2.021713   0.793228  -0.126943
| 23> *
| 24>
| 25>                          ****END OF INPUT****

CARTESIAN COORDINATES (ANGSTROEM)
---------------------------------
  C     -1.187315   -0.417379    0.127054
  O     -2.163492   -0.567668    0.844920
  C      0.012982    0.373496    0.336812
  C      1.159291    0.135072   -0.220313
  H     -1.186278   -0.950748   -0.939019
  H      0.042198    1.301248    1.047824
  H      1.266167   -0.710811   -1.011252
  H      2.021713    0.793228   -0.126943

 Total Charge           Charge          ....    0
 Multiplicity           Mult            ....    1
 Number of Electrons    NEL             ....   30
 Basis Dimension        Dim             ....   76

ORBITAL ENERGIES
----------------

  NO   OCC          E(Eh)            E(eV)
   0   2.0000     -19.144640      -520.9521
   1   2.0000     -10.285917      -279.8940
   2   2.0000     -10.221487      -278.1408
   3   2.0000     -10.213901      -277.9344
   4   2.0000      -1.043620       -28.3983
   5   2.0000      -0.815267       -22.1845
   6   2.0000      -0.651784       -17.7359
   7   2.0000      -0.552129       -15.0242
   8   2.0000      -0.479042       -13.0354
   9   2.0000      -0.472471       -12.8566
  10   2.0000      -0.427564       -11.6346
  11   2.0000      -0.395627       -10.7655
  12   2.0000      -0.370129       -10.0717
  13   2.0000      -0.303326        -8.2539
  14   2.0000      -0.257631        -7.0105
  15   0.0000      -0.067707        -1.8424
  16   0.0000       0.038509         1.0479
  17   0.0000       0.069341         1.8869
  18   0.0000       0.071767         1.9529
  19   0.0000       0.111637         3.0378

MULLIKEN ATOMIC CHARGES
-----------------------
   0 C :    0.164333
   1 O :   -0.189384
   2 C :   -0.088995
   3 C :    0.032231
   4 H :   -0.018002
   5 H :    0.025330
   6 H :    0.036496
   7 H :    0.037990
Sum of atomic charges:   -0.0000000

LOEWDIN ATOMIC CHARGES
----------------------
   0 C :   -0.039415
   1 O :   -0.003568
   2 C :   -0.081013
   3 C :   -0.001496
   4 H :   -0.001935
   5 H :    0.052259
   6 H :    0.039855
   7 H :    0.035314

  Mayer bond orders larger than 0.100000
B(  0-C ,  1-O ) :   2.1791 B(  0-C ,  2-C ) :   1.0424 B(  0-C ,  4-H ) :   0.9004
B(  2-C ,  3-C ) :   1.9777 B(  2-C ,  5-H ) :   0.9298 B(  3-C ,  6-H ) :   0.9353
B(  3-C ,  7-H ) :   0.9307

-----------------------------------------------------------------------------
         ABSORPTION SPECTRUM VIA TRANSITION ELECTRIC DIPOLE MOMENTS
-----------------------------------------------------------------------------
State   Energy    Wavelength  fosc         T2        TX        TY        TZ
        (cm-1)      (nm)                 (au**2)    (au)      (au)      (au)
-----------------------------------------------------------------------------
   1   28649.8    349.0   0.000098288   0.00113   0.01942  -0.02331   0.01446

FINAL SINGLE POINT ENERGY      -191.665146178830

DIPOLE MOMENT
-------------
                                X             Y             Z
Electronic contribution:     -3.12643      -0.58511       1.50854
Nuclear contribution   :      4.17223       0.90515      -1.98851
                        -----------------------------------------
Total Dipole Moment    :      1.04579       0.32004      -0.47996
                        -----------------------------------------
Magnitude (a.u.)       :      1.19435
Magnitude (Debye)      :      3.03580

Rotational constants in cm-1:     1.554199     0.152644     0.141093
Rotational constants in MHz : 46593.706331  4576.146300  4229.855806

                             ****ORCA TERMINATED NORMALLY****
TOTAL RUN TIME: 0 days 0 hours 3 minutes 22 seconds 283 msec
