                         Program Version 5.0.3 -  RELEASE  -
|  1> ! B3LYP cc-pVDZ
|  2> !TightSCF
|  3> %scf
|  4>  ConvForced true
|  5>  convergence tight
|  6>  MaxIter 500
|  7> end
|  8>
|  9> %tddft
| 10>  nroots 1
| 11> end
| 12>
| 13> # 	15170
| 14> * xyz 0 1
| 15> 		C   -1.191269  -0.293053  -0.006532
| 16> 		O   -1.630526  -1.103854   0.792550
| 17> 		C    0.017910   0.427262   0.242134
| 18> 		C    1.253977   0.056811  -0.143201
| 19> 		H   -1.613375  -0.297658  -0.952325
| 20> 		H   -0.179807   1.504720   0.700787
| 21> 		H    1.304915  -1.030110  -0.566445
| 22> 		H    2.054625   0.728368  -0.029923
| 23> *
| 24>
| 25>                          ****END OF INPUT****

CARTESIAN COORDINATES (ANGSTROEM)
---------------------------------
  C     -1.191269   -0.293053   -0.006532
  O     -1.630526   -1.103854    0.792550
  C      0.017910    0.427262    0.242134
  C      1.253977    0.056811   -0.143201
  H     -1.613375   -0.297658   -0.952325
  H     -0.179807    1.504720    0.700787
  H      1.304915   -1.030110   -0.566445
  H      2.054625    0.728368   -0.029923

 Total Charge           Charge          ....    0
 Multiplicity           Mult            ....    1
 Number of Electrons    NEL             ....   30
 Basis Dimension        Dim             ....   76

ORBITAL ENERGIES
----------------

  NO   OCC          E(Eh)            E(eV)
   0   2.0000     -19.139146      -520.8026
   1   2.0000     -10.270491      -279.4743
   2   2.0000     -10.212414      -277.8939
   3   2.0000     -10.211259      -277.8625
   4   2.0000      -1.045216       -28.4418
   5   2.0000      -0.796629       -21.6774
   6   2.0000      -0.662258       -18.0210
   7   2.0000      -0.560597       -15.2546
   8   2.0000      -0.494429       -13.4541
   9   2.0000      -0.463837       -12.6216
  10   2.0000      -0.434333       -11.8188
  11   2.0000      -0.393665       -10.7122
  12   2.0000      -0.358957        -9.7677
  13   2.0000      -0.286023        -7.7831
  14   2.0000      -0.253373        -6.8946
  15   0.0000      -0.040229        -1.0947
  16   0.0000      -0.012950        -0.3524
  17   0.0000       0.072534         1.9738
  18   0.0000       0.080921         2.2020
  19   0.0000       0.112459         3.0602

MULLIKEN ATOMIC CHARGES
-----------------------
   0 C :    0.199121
   1 O :   -0.198787
   2 C :   -0.118291
   3 C :    0.038455
   4 H :   -0.022501
   5 H :    0.038933
   6 H :    0.041104
   7 H :    0.021965
Sum of atomic charges:    0.0000000

LOEWDIN ATOMIC CHARGES
----------------------
   0 C :   -0.022277
   1 O :    0.001773
   2 C :   -0.061688
   3 C :   -0.030294
   4 H :   -0.009775
   5 H :    0.053162
   6 H :    0.046834
   7 H :    0.022264

  Mayer bond orders larger than 0.100000
B(  0-C ,  1-O ) :   2.2059 B(  0-C ,  2-C ) :   1.0144 B(  0-C ,  4-H ) :   0.9415
B(  2-C ,  3-C ) :   2.0379 B(  2-C ,  5-H ) :   0.9162 B(  3-C ,  6-H ) :   0.9366
B(  3-C ,  7-H ) :   0.9359

-----------------------------------------------------------------------------
         ABSORPTION SPECTRUM VIA TRANSITION ELECTRIC DIPOLE MOMENTS
-----------------------------------------------------------------------------
State   Energy    Wavelength  fosc         T2        TX        TY        TZ
        (cm-1)      (nm)                 (au**2)    (au)      (au)      (au)
-----------------------------------------------------------------------------
   1   31354.6    318.9   0.000287825   0.00302   0.02975   0.02145  -0.04095

FINAL SINGLE POINT ENERGY      -191.633349551120

DIPOLE MOMENT
-------------
                                X             Y             Z
Electronic contribution:     -2.54963      -1.15440       1.08406
Nuclear contribution   :      3.02726       1.80431      -1.65300
                        -----------------------------------------
Total Dipole Moment    :      0.47763       0.64991      -0.56894
                        -----------------------------------------
Magnitude (a.u.)       :      0.98702
Magnitude (Debye)      :      2.50880

Rotational constants in cm-1:     1.008121     0.170345     0.161687
Rotational constants in MHz : 30222.719138  5106.801506  4847.255523

                             ****ORCA TERMINATED NORMALLY****
TOTAL RUN TIME: 0 days 0 hours 3 minutes 23 seconds 570 msec
