                         Program Version 5.0.3 -  RELEASE  -
|  1> ! B3LYP cc-pVDZ
|  2> !TightSCF
|  3> %scf
|  4>  ConvForced true
|  5>  convergence tight
|  6>  MaxIter 500
|  7> end
|  8>
|  9> %tddft
| 10>  nroots 1
| 11> end
| 12>
| 13> # 	10278
| 14> * xyz 0 1
| 15> 		C   -1.190151  -0.389519   0.034317
| 16> 		O   -2.117519  -0.512435   0.752081
| 17> 		C   -0.007661   0.394505   0.280712
| 18> 		C    1.127811   0.133280  -0.288056
| 19> 		H   -1.040031  -0.886215  -0.995421
| 20> 		H   -0.097136   1.247864   1.320016
| 21> 		H    1.201373  -0.625729  -1.202395
| 22> 		H    2.104843   0.657982   0.052237
| 23> *
| 24>
| 25>                          ****END OF INPUT****

CARTESIAN COORDINATES (ANGSTROEM)
---------------------------------
  C     -1.190151   -0.389519    0.034317
  O     -2.117519   -0.512435    0.752081
  C     -0.007661    0.394505    0.280712
  C      1.127811    0.133280   -0.288056
  H     -1.040031   -0.886215   -0.995421
  H     -0.097136    1.247864    1.320016
  H      1.201373   -0.625729   -1.202395
  H      2.104843    0.657982    0.052237

 Total Charge           Charge          ....    0
 Multiplicity           Mult            ....    1
 Number of Electrons    NEL             ....   30
 Basis Dimension        Dim             ....   76

ORBITAL ENERGIES
----------------

  NO   OCC          E(Eh)            E(eV)
   0   2.0000     -19.143787      -520.9289
   1   2.0000     -10.277531      -279.6658
   2   2.0000     -10.230892      -278.3967
   3   2.0000     -10.219140      -278.0769
   4   2.0000      -1.067581       -29.0504
   5   2.0000      -0.812777       -22.1168
   6   2.0000      -0.646892       -17.6028
   7   2.0000      -0.543164       -14.7802
   8   2.0000      -0.476069       -12.9545
   9   2.0000      -0.464520       -12.6402
  10   2.0000      -0.427188       -11.6244
  11   2.0000      -0.409649       -11.1471
  12   2.0000      -0.358150        -9.7458
  13   2.0000      -0.303180        -8.2500
  14   2.0000      -0.258805        -7.0425
  15   0.0000      -0.059347        -1.6149
  16   0.0000       0.026643         0.7250
  17   0.0000       0.054165         1.4739
  18   0.0000       0.064790         1.7630
  19   0.0000       0.119210         3.2439

MULLIKEN ATOMIC CHARGES
-----------------------
   0 C :    0.181408
   1 O :   -0.160109
   2 C :   -0.137693
   3 C :   -0.004091
   4 H :   -0.038769
   5 H :    0.041660
   6 H :    0.055676
   7 H :    0.061916
Sum of atomic charges:    0.0000000

LOEWDIN ATOMIC CHARGES
----------------------
   0 C :   -0.074945
   1 O :    0.038376
   2 C :   -0.089584
   3 C :   -0.021407
   4 H :   -0.010178
   5 H :    0.056275
   6 H :    0.049451
   7 H :    0.052012

  Mayer bond orders larger than 0.100000
B(  0-C ,  1-O ) :   2.2208 B(  0-C ,  2-C ) :   1.0707 B(  0-C ,  4-H ) :   0.8933
B(  2-C ,  3-C ) :   1.9374 B(  2-C ,  5-H ) :   0.9062 B(  3-C ,  6-H ) :   0.9222
B(  3-C ,  7-H ) :   0.9303

-----------------------------------------------------------------------------
         ABSORPTION SPECTRUM VIA TRANSITION ELECTRIC DIPOLE MOMENTS
-----------------------------------------------------------------------------
State   Energy    Wavelength  fosc         T2        TX        TY        TZ
        (cm-1)      (nm)                 (au**2)    (au)      (au)      (au)
-----------------------------------------------------------------------------
   1   31041.7    322.1   0.000366854   0.00389  -0.04674  -0.00446  -0.04107

FINAL SINGLE POINT ENERGY      -191.630291275978

DIPOLE MOMENT
-------------
                                X             Y             Z
Electronic contribution:     -3.20184      -0.58613       1.08859
Nuclear contribution   :      4.18982       0.77462      -1.53784
                        -----------------------------------------
Total Dipole Moment    :      0.98798       0.18849      -0.44925
                        -----------------------------------------
Magnitude (a.u.)       :      1.10157
Magnitude (Debye)      :      2.79996

Rotational constants in cm-1:     1.432938     0.160989     0.146814
Rotational constants in MHz : 42958.405313  4826.314941  4401.359135

                             ****ORCA TERMINATED NORMALLY****
TOTAL RUN TIME: 0 days 0 hours 3 minutes 15 seconds 320 msec
