                         Program Version 5.0.3 -  RELEASE  -
|  1> ! B3LYP cc-pVDZ
|  2> !TightSCF
|  3> %scf
|  4>  ConvForced true
|  5>  convergence tight
|  6>  MaxIter 500
|  7> end
|  8>
|  9> %tddft
| 10>  nroots 1
| 11> end
| 12>
| 13> # 	1130
| 14> * xyz 0 1
| 15> 		C   -1.186421  -0.297298   0.045892
| 16> 		O   -1.633668  -1.036648   0.905875
| 17> 		C    0.023885   0.482476   0.223254
| 18> 		C    1.147817   0.041602  -0.171425
| 19> 		H   -1.553230  -0.207096  -1.014672
| 20> 		H   -0.184822   1.355903   0.859201
| 21> 		H    1.224072  -0.822184  -0.783719
| 22> 		H    2.187054   0.482919  -0.096827
| 23> *
| 24>
| 25>                          ****END OF INPUT****

CARTESIAN COORDINATES (ANGSTROEM)
---------------------------------
  C     -1.186421   -0.297298    0.045892
  O     -1.633668   -1.036648    0.905875
  C      0.023885    0.482476    0.223254
  C      1.147817    0.041602   -0.171425
  H     -1.553230   -0.207096   -1.014672
  H     -0.184822    1.355903    0.859201
  H      1.224072   -0.822184   -0.783719
  H      2.187054    0.482919   -0.096827

 Total Charge           Charge          ....    0
 Multiplicity           Mult            ....    1
 Number of Electrons    NEL             ....   30
 Basis Dimension        Dim             ....   76

ORBITAL ENERGIES
----------------

  NO   OCC          E(Eh)            E(eV)
   0   2.0000     -19.148254      -521.0505
   1   2.0000     -10.281556      -279.7754
   2   2.0000     -10.199628      -277.5460
   3   2.0000     -10.198010      -277.5020
   4   2.0000      -1.049005       -28.5449
   5   2.0000      -0.813908       -22.1476
   6   2.0000      -0.657315       -17.8865
   7   2.0000      -0.563362       -15.3299
   8   2.0000      -0.484139       -13.1741
   9   2.0000      -0.478987       -13.0339
  10   2.0000      -0.447839       -12.1863
  11   2.0000      -0.381584       -10.3834
  12   2.0000      -0.369090       -10.0435
  13   2.0000      -0.296178        -8.0594
  14   2.0000      -0.257290        -7.0012
  15   0.0000      -0.040114        -1.0916
  16   0.0000       0.006494         0.1767
  17   0.0000       0.082532         2.2458
  18   0.0000       0.088838         2.4174
  19   0.0000       0.103630         2.8199

MULLIKEN ATOMIC CHARGES
-----------------------
   0 C :    0.156367
   1 O :   -0.186888
   2 C :   -0.060128
   3 C :    0.044513
   4 H :   -0.007680
   5 H :    0.015428
   6 H :    0.004465
   7 H :    0.033922
Sum of atomic charges:   -0.0000000

LOEWDIN ATOMIC CHARGES
----------------------
   0 C :   -0.012569
   1 O :    0.005466
   2 C :   -0.066004
   3 C :   -0.029604
   4 H :   -0.003480
   5 H :    0.042972
   6 H :    0.022548
   7 H :    0.040671

  Mayer bond orders larger than 0.100000
B(  0-C ,  1-O ) :   2.2246 B(  0-C ,  2-C ) :   1.0004 B(  0-C ,  4-H ) :   0.9072
B(  2-C ,  3-C ) :   2.0478 B(  2-C ,  5-H ) :   0.9318 B(  3-C ,  6-H ) :   0.9329
B(  3-C ,  7-H ) :   0.9491

-----------------------------------------------------------------------------
         ABSORPTION SPECTRUM VIA TRANSITION ELECTRIC DIPOLE MOMENTS
-----------------------------------------------------------------------------
State   Energy    Wavelength  fosc         T2        TX        TY        TZ
        (cm-1)      (nm)                 (au**2)    (au)      (au)      (au)
-----------------------------------------------------------------------------
   1   32617.5    306.6   0.000129287   0.00130   0.01809   0.00442  -0.03096

FINAL SINGLE POINT ENERGY      -191.634383154544

DIPOLE MOMENT
-------------
                                X             Y             Z
Electronic contribution:     -2.69122      -1.04394       1.38385
Nuclear contribution   :      3.20044       1.62082      -1.94120
                        -----------------------------------------
Total Dipole Moment    :      0.50921       0.57688      -0.55735
                        -----------------------------------------
Magnitude (a.u.)       :      0.95012
Magnitude (Debye)      :      2.41501

Rotational constants in cm-1:     1.022408     0.173623     0.167979
Rotational constants in MHz : 30651.027712  5205.098871  5035.898065

                             ****ORCA TERMINATED NORMALLY****
TOTAL RUN TIME: 0 days 0 hours 3 minutes 21 seconds 154 msec
