                         Program Version 5.0.3 -  RELEASE  -
|  1> ! HF-3c
|  2> !TightSCF
|  3> %scf
|  4>  ConvForced true
|  5>  convergence tight
|  6>  MaxIter 500
|  7> end
|  8>
|  9> %tddft
| 10>  nroots 1
| 11> end
| 12>
| 13> # 	23174
| 14> * xyz 0 1
| 15> 		C   -0.558759  -0.426460   0.004739
| 16> 		O   -0.601632  -1.636531  -0.011381
| 17> 		C    0.631775   0.395991  -0.037288
| 18> 		C    1.851479  -0.095894  -0.002486
| 19> 		H   -1.637881  -0.018406   0.264887
| 20> 		H    0.401934   1.469702   0.041889
| 21> 		H    1.908835  -1.164843   0.208528
| 22> 		H    2.887677   0.425095   0.081903
| 23> *
| 24>
| 25>                          ****END OF INPUT****

CARTESIAN COORDINATES (ANGSTROEM)
---------------------------------
  C     -0.558759   -0.426460    0.004739
  O     -0.601632   -1.636531   -0.011381
  C      0.631775    0.395991   -0.037288
  C      1.851479   -0.095894   -0.002486
  H     -1.637881   -0.018406    0.264887
  H      0.401934    1.469702    0.041889
  H      1.908835   -1.164843    0.208528
  H      2.887677    0.425095    0.081903

 Total Charge           Charge          ....    0
 Multiplicity           Mult            ....    1
 Number of Electrons    NEL             ....   30
 Basis Dimension        Dim             ....   24

ORBITAL ENERGIES
----------------

  NO   OCC          E(Eh)            E(eV)
   0   2.0000     -20.348793      -553.7188
   1   2.0000     -11.285518      -307.0946
   2   2.0000     -11.196304      -304.6669
   3   2.0000     -11.194132      -304.6078
   4   2.0000      -1.394918       -37.9577
   5   2.0000      -1.085034       -29.5253
   6   2.0000      -0.883296       -24.0357
   7   2.0000      -0.732141       -19.9226
   8   2.0000      -0.698057       -18.9951
   9   2.0000      -0.620736       -16.8911
  10   2.0000      -0.582306       -15.8454
  11   2.0000      -0.538160       -14.6441
  12   2.0000      -0.512285       -13.9400
  13   2.0000      -0.404014       -10.9938
  14   2.0000      -0.394340       -10.7305
  15   0.0000       0.132245         3.5986
  16   0.0000       0.318268         8.6605
  17   0.0000       0.474408        12.9093
  18   0.0000       0.623539        16.9674
  19   0.0000       0.649057        17.6617

MULLIKEN ATOMIC CHARGES
-----------------------
   0 C :    0.159515
   1 O :   -0.359959
   2 C :   -0.189214
   3 C :   -0.204971
   4 H :    0.138373
   5 H :    0.145114
   6 H :    0.155041
   7 H :    0.156100
Sum of atomic charges:    0.0000000

LOEWDIN ATOMIC CHARGES
----------------------
   0 C :    0.134822
   1 O :   -0.267431
   2 C :   -0.143261
   3 C :   -0.109739
   4 H :    0.081354
   5 H :    0.093765
   6 H :    0.101272
   7 H :    0.109217

  Mayer bond orders larger than 0.100000
B(  0-C ,  1-O ) :   1.8913 B(  0-C ,  2-C ) :   1.0390 B(  0-C ,  4-H ) :   0.9252
B(  2-C ,  3-C ) :   1.9407 B(  2-C ,  5-H ) :   0.9547 B(  3-C ,  6-H ) :   0.9568
B(  3-C ,  7-H ) :   0.9594

-----------------------------------------------------------------------------
         ABSORPTION SPECTRUM VIA TRANSITION ELECTRIC DIPOLE MOMENTS
-----------------------------------------------------------------------------
State   Energy    Wavelength  fosc         T2        TX        TY        TZ
        (cm-1)      (nm)                 (au**2)    (au)      (au)      (au)
-----------------------------------------------------------------------------
   1   31035.3    322.2   0.000053730   0.00057   0.00390   0.00048  -0.02355

Dispersion correction           -0.025579202
FINAL SINGLE POINT ENERGY      -189.329982759345

DIPOLE MOMENT
-------------
                                X             Y             Z
Electronic contribution:     -1.77459      -1.53715      -0.41312
Nuclear contribution   :      2.18386       2.45663       0.56018
                        -----------------------------------------
Total Dipole Moment    :      0.40927       0.91949       0.14706
                        -----------------------------------------
Magnitude (a.u.)       :      1.01714
Magnitude (Debye)      :      2.58537

Rotational constants in cm-1:     0.800360     0.204980     0.163636
Rotational constants in MHz : 23994.191187  6145.131981  4905.694682

                             ****ORCA TERMINATED NORMALLY****
TOTAL RUN TIME: 0 days 0 hours 0 minutes 12 seconds 316 msec
