                         Program Version 5.0.3 -  RELEASE  -
|  1> ! HF-3c
|  2> !TightSCF
|  3> %scf
|  4>  ConvForced true
|  5>  convergence tight
|  6>  MaxIter 500
|  7> end
|  8>
|  9> %tddft
| 10>  nroots 1
| 11> end
| 12>
| 13> # 	2267
| 14> * xyz 0 1
| 15> 		C   -1.193586  -0.361783   0.012612
| 16> 		O   -1.452356  -1.327501   0.623467
| 17> 		C   -0.028560   0.567325   0.198513
| 18> 		C    1.221494   0.036577  -0.091747
| 19> 		H   -1.836245  -0.051083  -0.727036
| 20> 		H   -0.054176   1.609826   0.458782
| 21> 		H    1.282713  -1.128731  -0.457995
| 22> 		H    2.087970   0.626215  -0.096991
| 23> *
| 24>
| 25>                          ****END OF INPUT****

CARTESIAN COORDINATES (ANGSTROEM)
---------------------------------
  C     -1.193586   -0.361783    0.012612
  O     -1.452356   -1.327501    0.623467
  C     -0.028560    0.567325    0.198513
  C      1.221494    0.036577   -0.091747
  H     -1.836245   -0.051083   -0.727036
  H     -0.054176    1.609826    0.458782
  H      1.282713   -1.128731   -0.457995
  H      2.087970    0.626215   -0.096991

 Total Charge           Charge          ....    0
 Multiplicity           Mult            ....    1
 Number of Electrons    NEL             ....   30
 Basis Dimension        Dim             ....   24

ORBITAL ENERGIES
----------------

  NO   OCC          E(Eh)            E(eV)
   0   2.0000     -20.391321      -554.8760
   1   2.0000     -11.315239      -307.9033
   2   2.0000     -11.179643      -304.2135
   3   2.0000     -11.176264      -304.1216
   4   2.0000      -1.439744       -39.1774
   5   2.0000      -1.060197       -28.8494
   6   2.0000      -0.884671       -24.0731
   7   2.0000      -0.767307       -20.8795
   8   2.0000      -0.702183       -19.1074
   9   2.0000      -0.628600       -17.1051
  10   2.0000      -0.608546       -16.5594
  11   2.0000      -0.538104       -14.6426
  12   2.0000      -0.520841       -14.1728
  13   2.0000      -0.417446       -11.3593
  14   2.0000      -0.383371       -10.4321
  15   0.0000       0.170148         4.6300
  16   0.0000       0.233897         6.3647
  17   0.0000       0.513902        13.9840
  18   0.0000       0.584616        15.9082
  19   0.0000       0.682207        18.5638

MULLIKEN ATOMIC CHARGES
-----------------------
   0 C :    0.172051
   1 O :   -0.345257
   2 C :   -0.177978
   3 C :   -0.214939
   4 H :    0.135313
   5 H :    0.151424
   6 H :    0.144010
   7 H :    0.135376
Sum of atomic charges:   -0.0000000

LOEWDIN ATOMIC CHARGES
----------------------
   0 C :    0.153152
   1 O :   -0.236822
   2 C :   -0.137462
   3 C :   -0.128095
   4 H :    0.063332
   5 H :    0.098773
   6 H :    0.103764
   7 H :    0.083357

  Mayer bond orders larger than 0.100000
B(  0-C ,  1-O ) :   1.9441 B(  0-C ,  2-C ) :   0.9886 B(  0-C ,  4-H ) :   0.9228
B(  2-C ,  3-C ) :   1.9729 B(  2-C ,  5-H ) :   0.9556 B(  3-C ,  6-H ) :   0.9628
B(  3-C ,  7-H ) :   0.9685

-----------------------------------------------------------------------------
         ABSORPTION SPECTRUM VIA TRANSITION ELECTRIC DIPOLE MOMENTS
-----------------------------------------------------------------------------
State   Energy    Wavelength  fosc         T2        TX        TY        TZ
        (cm-1)      (nm)                 (au**2)    (au)      (au)      (au)
-----------------------------------------------------------------------------
   1   36517.8    273.8   0.000162328   0.00146   0.03704   0.00543   0.00787

Dispersion correction           -0.025216957
FINAL SINGLE POINT ENERGY      -189.291656254170

DIPOLE MOMENT
-------------
                                X             Y             Z
Electronic contribution:     -2.40109      -1.42726       0.94521
Nuclear contribution   :      2.82900       2.13156      -1.47402
                        -----------------------------------------
Total Dipole Moment    :      0.42791       0.70431      -0.52882
                        -----------------------------------------
Magnitude (a.u.)       :      0.97918
Magnitude (Debye)      :      2.48889

Rotational constants in cm-1:     0.850417     0.183622     0.160914
Rotational constants in MHz : 25494.845422  5504.855377  4824.086762

                             ****ORCA TERMINATED NORMALLY****
TOTAL RUN TIME: 0 days 0 hours 0 minutes 12 seconds 912 msec
