                         Program Version 5.0.3 -  RELEASE  -
|  1> ! HF-3c
|  2> !TightSCF
|  3> %scf
|  4>  ConvForced true
|  5>  convergence tight
|  6>  MaxIter 500
|  7> end
|  8>
|  9> %tddft
| 10>  nroots 1
| 11> end
| 12>
| 13> # 	22173
| 14> * xyz 0 1
| 15> 		C   -0.618485  -0.371397  -0.010719
| 16> 		O   -0.547587  -1.668731   0.009738
| 17> 		C    0.603268   0.418114  -0.013114
| 18> 		C    1.856148  -0.132674   0.032038
| 19> 		H   -1.436348   0.197024  -0.036093
| 20> 		H    0.528112   1.371728   0.092984
| 21> 		H    1.890589  -1.242161  -0.203223
| 22> 		H    2.712018   0.443837  -0.103979
| 23> *
| 24>
| 25>                          ****END OF INPUT****

CARTESIAN COORDINATES (ANGSTROEM)
---------------------------------
  C     -0.618485   -0.371397   -0.010719
  O     -0.547587   -1.668731    0.009738
  C      0.603268    0.418114   -0.013114
  C      1.856148   -0.132674    0.032038
  H     -1.436348    0.197024   -0.036093
  H      0.528112    1.371728    0.092984
  H      1.890589   -1.242161   -0.203223
  H      2.712018    0.443837   -0.103979

 Total Charge           Charge          ....    0
 Multiplicity           Mult            ....    1
 Number of Electrons    NEL             ....   30
 Basis Dimension        Dim             ....   24

ORBITAL ENERGIES
----------------

  NO   OCC          E(Eh)            E(eV)
   0   2.0000     -20.349484      -553.7376
   1   2.0000     -11.286823      -307.1301
   2   2.0000     -11.196881      -304.6826
   3   2.0000     -11.189118      -304.4714
   4   2.0000      -1.344876       -36.5959
   5   2.0000      -1.083016       -29.4704
   6   2.0000      -0.922509       -25.1028
   7   2.0000      -0.776294       -21.1240
   8   2.0000      -0.714683       -19.4475
   9   2.0000      -0.604902       -16.4602
  10   2.0000      -0.592137       -16.1129
  11   2.0000      -0.534151       -14.5350
  12   2.0000      -0.515188       -14.0190
  13   2.0000      -0.429921       -11.6987
  14   2.0000      -0.377945       -10.2844
  15   0.0000       0.100055         2.7226
  16   0.0000       0.282563         7.6889
  17   0.0000       0.589655        16.0453
  18   0.0000       0.643618        17.5137
  19   0.0000       0.658459        17.9176

MULLIKEN ATOMIC CHARGES
-----------------------
   0 C :    0.124107
   1 O :   -0.328598
   2 C :   -0.195751
   3 C :   -0.196636
   4 H :    0.145664
   5 H :    0.137240
   6 H :    0.166826
   7 H :    0.147149
Sum of atomic charges:    0.0000000

LOEWDIN ATOMIC CHARGES
----------------------
   0 C :    0.138931
   1 O :   -0.261115
   2 C :   -0.141976
   3 C :   -0.094532
   4 H :    0.074683
   5 H :    0.076722
   6 H :    0.114922
   7 H :    0.092366

  Mayer bond orders larger than 0.100000
B(  0-C ,  1-O ) :   1.8784 B(  0-C ,  2-C ) :   1.0700 B(  0-C ,  4-H ) :   0.9422
B(  2-C ,  3-C ) :   1.9041 B(  2-C ,  5-H ) :   0.9660 B(  3-C ,  6-H ) :   0.9566
B(  3-C ,  7-H ) :   0.9675

-----------------------------------------------------------------------------
         ABSORPTION SPECTRUM VIA TRANSITION ELECTRIC DIPOLE MOMENTS
-----------------------------------------------------------------------------
State   Energy    Wavelength  fosc         T2        TX        TY        TZ
        (cm-1)      (nm)                 (au**2)    (au)      (au)      (au)
-----------------------------------------------------------------------------
   1   27251.4    367.0   0.000067571   0.00082  -0.02738  -0.00295  -0.00760

Dispersion correction           -0.026215135
FINAL SINGLE POINT ENERGY      -189.321947416938

DIPOLE MOMENT
-------------
                                X             Y             Z
Electronic contribution:     -1.97062      -1.63481       0.16612
Nuclear contribution   :      2.31047       2.50941      -0.23483
                        -----------------------------------------
Total Dipole Moment    :      0.33985       0.87461      -0.06871
                        -----------------------------------------
Magnitude (a.u.)       :      0.94083
Magnitude (Debye)      :      2.39139

Rotational constants in cm-1:     0.712351     0.213206     0.164348
Rotational constants in MHz : 21355.742680  6391.750504  4927.039528

                             ****ORCA TERMINATED NORMALLY****
TOTAL RUN TIME: 0 days 0 hours 0 minutes 10 seconds 625 msec
