                         Program Version 5.0.3 -  RELEASE  -
|  1> ! B3LYP cc-pVDZ
|  2> !TightSCF
|  3> %scf
|  4>  ConvForced true
|  5>  convergence tight
|  6>  MaxIter 500
|  7> end
|  8>
|  9> %tddft
| 10>  nroots 1
| 11> end
| 12>
| 13> # 	4179
| 14> * xyz 0 1
| 15> 		C   -1.147497  -0.322957   0.038151
| 16> 		O   -2.229206  -0.213116   0.650346
| 17> 		C    0.036468   0.454635   0.417086
| 18> 		C    1.139958   0.112852  -0.256387
| 19> 		H   -1.111357  -1.201885  -0.894489
| 20> 		H   -0.031314   1.227068   1.277735
| 21> 		H    0.971825  -0.723100  -1.233654
| 22> 		H    2.292627   0.687863  -0.060939
| 23> *
| 24>
| 25>                          ****END OF INPUT****

CARTESIAN COORDINATES (ANGSTROEM)
---------------------------------
  C     -1.147497   -0.322957    0.038151
  O     -2.229206   -0.213116    0.650346
  C      0.036468    0.454635    0.417086
  C      1.139958    0.112852   -0.256387
  H     -1.111357   -1.201885   -0.894489
  H     -0.031314    1.227068    1.277735
  H      0.971825   -0.723100   -1.233654
  H      2.292627    0.687863   -0.060939

 Total Charge           Charge          ....    0
 Multiplicity           Mult            ....    1
 Number of Electrons    NEL             ....   30
 Basis Dimension        Dim             ....   76

ORBITAL ENERGIES
----------------

  NO   OCC          E(Eh)            E(eV)
   0   2.0000     -19.137766      -520.7651
   1   2.0000     -10.289707      -279.9972
   2   2.0000     -10.254431      -279.0373
   3   2.0000     -10.224040      -278.2103
   4   2.0000      -1.026040       -27.9200
   5   2.0000      -0.805751       -21.9256
   6   2.0000      -0.619038       -16.8449
   7   2.0000      -0.548590       -14.9279
   8   2.0000      -0.459804       -12.5119
   9   2.0000      -0.450189       -12.2503
  10   2.0000      -0.404772       -11.0144
  11   2.0000      -0.391996       -10.6668
  12   2.0000      -0.369151       -10.0451
  13   2.0000      -0.295958        -8.0534
  14   2.0000      -0.254271        -6.9191
  15   0.0000      -0.067303        -1.8314
  16   0.0000       0.022245         0.6053
  17   0.0000       0.037741         1.0270
  18   0.0000       0.041786         1.1370
  19   0.0000       0.086707         2.3594

MULLIKEN ATOMIC CHARGES
-----------------------
   0 C :    0.124077
   1 O :   -0.222646
   2 C :   -0.011701
   3 C :   -0.094690
   4 H :    0.006519
   5 H :    0.045068
   6 H :    0.075601
   7 H :    0.077772
Sum of atomic charges:    0.0000000

LOEWDIN ATOMIC CHARGES
----------------------
   0 C :   -0.036236
   1 O :   -0.042273
   2 C :   -0.081080
   3 C :   -0.036098
   4 H :    0.011747
   5 H :    0.056873
   6 H :    0.063677
   7 H :    0.063391

  Mayer bond orders larger than 0.100000
B(  0-C ,  1-O ) :   2.1046 B(  0-C ,  2-C ) :   1.0658 B(  0-C ,  4-H ) :   0.8890
B(  1-O ,  3-C ) :   0.1065 B(  2-C ,  3-C ) :   1.8651 B(  2-C ,  5-H ) :   0.9444
B(  3-C ,  6-H ) :   0.9140 B(  3-C ,  7-H ) :   0.9257

-----------------------------------------------------------------------------
         ABSORPTION SPECTRUM VIA TRANSITION ELECTRIC DIPOLE MOMENTS
-----------------------------------------------------------------------------
State   Energy    Wavelength  fosc         T2        TX        TY        TZ
        (cm-1)      (nm)                 (au**2)    (au)      (au)      (au)
-----------------------------------------------------------------------------
   1   28154.7    355.2   0.000217823   0.00255  -0.02963   0.03579  -0.01970

FINAL SINGLE POINT ENERGY      -191.626712583497

DIPOLE MOMENT
-------------
                                X             Y             Z
Electronic contribution:     -3.08305       0.11706       1.30266
Nuclear contribution   :      4.18725       0.01985      -1.64336
                        -----------------------------------------
Total Dipole Moment    :      1.10420       0.13691      -0.34070
                        -----------------------------------------
Magnitude (a.u.)       :      1.16365
Magnitude (Debye)      :      2.95777

Rotational constants in cm-1:     1.297895     0.159630     0.142293
Rotational constants in MHz : 38909.898744  4785.601656  4265.824071

                             ****ORCA TERMINATED NORMALLY****
TOTAL RUN TIME: 0 days 0 hours 3 minutes 27 seconds 161 msec
