                         Program Version 5.0.3 -  RELEASE  -
|  1> ! HF-3c
|  2> !TightSCF
|  3> %scf
|  4>  ConvForced true
|  5>  convergence tight
|  6>  MaxIter 500
|  7> end
|  8>
|  9> %tddft
| 10>  nroots 1
| 11> end
| 12>
| 13> # 	6557
| 14> * xyz 0 1
| 15> 		C   -1.163989  -0.322446   0.089354
| 16> 		O   -2.129785  -0.408705   0.822579
| 17> 		C    0.023528   0.426858   0.340445
| 18> 		C    1.165965   0.109865  -0.263911
| 19> 		H   -1.199070  -1.026709  -1.014086
| 20> 		H    0.068619   1.043477   1.352355
| 21> 		H    1.090001  -0.407319  -1.246687
| 22> 		H    2.166469   0.598531  -0.065959
| 23> *
| 24>
| 25>                          ****END OF INPUT****

CARTESIAN COORDINATES (ANGSTROEM)
---------------------------------
  C     -1.163989   -0.322446    0.089354
  O     -2.129785   -0.408705    0.822579
  C      0.023528    0.426858    0.340445
  C      1.165965    0.109865   -0.263911
  H     -1.199070   -1.026709   -1.014086
  H      0.068619    1.043477    1.352355
  H      1.090001   -0.407319   -1.246687
  H      2.166469    0.598531   -0.065959

 Total Charge           Charge          ....    0
 Multiplicity           Mult            ....    1
 Number of Electrons    NEL             ....   30
 Basis Dimension        Dim             ....   24

ORBITAL ENERGIES
----------------

  NO   OCC          E(Eh)            E(eV)
   0   2.0000     -20.352586      -553.8220
   1   2.0000     -11.288991      -307.1891
   2   2.0000     -11.195832      -304.6541
   3   2.0000     -11.194111      -304.6073
   4   2.0000      -1.389415       -37.8079
   5   2.0000      -1.089848       -29.6563
   6   2.0000      -0.871164       -23.7056
   7   2.0000      -0.738053       -20.0835
   8   2.0000      -0.648495       -17.6464
   9   2.0000      -0.639076       -17.3901
  10   2.0000      -0.557674       -15.1751
  11   2.0000      -0.538918       -14.6647
  12   2.0000      -0.518853       -14.1187
  13   2.0000      -0.393637       -10.7114
  14   2.0000      -0.391816       -10.6619
  15   0.0000       0.128444         3.4951
  16   0.0000       0.311082         8.4650
  17   0.0000       0.441075        12.0023
  18   0.0000       0.526585        14.3291
  19   0.0000       0.621877        16.9221

MULLIKEN ATOMIC CHARGES
-----------------------
   0 C :    0.181254
   1 O :   -0.362435
   2 C :   -0.175308
   3 C :   -0.212103
   4 H :    0.119789
   5 H :    0.159540
   6 H :    0.139416
   7 H :    0.149847
Sum of atomic charges:   -0.0000000

LOEWDIN ATOMIC CHARGES
----------------------
   0 C :    0.145563
   1 O :   -0.269657
   2 C :   -0.135239
   3 C :   -0.119019
   4 H :    0.073731
   5 H :    0.111921
   6 H :    0.091469
   7 H :    0.101230

  Mayer bond orders larger than 0.100000
B(  0-C ,  1-O ) :   1.8935 B(  0-C ,  2-C ) :   1.0531 B(  0-C ,  4-H ) :   0.8988
B(  2-C ,  3-C ) :   1.9285 B(  2-C ,  5-H ) :   0.9434 B(  3-C ,  6-H ) :   0.9609
B(  3-C ,  7-H ) :   0.9617

-----------------------------------------------------------------------------
         ABSORPTION SPECTRUM VIA TRANSITION ELECTRIC DIPOLE MOMENTS
-----------------------------------------------------------------------------
State   Energy    Wavelength  fosc         T2        TX        TY        TZ
        (cm-1)      (nm)                 (au**2)    (au)      (au)      (au)
-----------------------------------------------------------------------------
   1   32291.7    309.7   0.000157813   0.00161   0.03832  -0.01086   0.00472

Dispersion correction           -0.025395165
FINAL SINGLE POINT ENERGY      -189.305104462182

DIPOLE MOMENT
-------------
                                X             Y             Z
Electronic contribution:     -2.97611      -0.30911       1.25850
Nuclear contribution   :      4.08828       0.44145      -1.85425
                        -----------------------------------------
Total Dipole Moment    :      1.11218       0.13234      -0.59574
                        -----------------------------------------
Magnitude (a.u.)       :      1.26861
Magnitude (Debye)      :      3.22454

Rotational constants in cm-1:     1.449598     0.158285     0.144406
Rotational constants in MHz : 43457.854133  4745.275457  4329.184542

                             ****ORCA TERMINATED NORMALLY****
TOTAL RUN TIME: 0 days 0 hours 0 minutes 16 seconds 56 msec
