                         Program Version 5.0.3 -  RELEASE  -
|  1> ! HF-3c
|  2> !TightSCF
|  3> %scf
|  4>  ConvForced true
|  5>  convergence tight
|  6>  MaxIter 500
|  7> end
|  8>
|  9> %tddft
| 10>  nroots 1
| 11> end
| 12>
| 13> # 	19394
| 14> * xyz 0 1
| 15> 		C   -1.173227  -0.353543  -0.004633
| 16> 		O   -1.858688  -1.070773  -0.805649
| 17> 		C    0.031596   0.432679  -0.379058
| 18> 		C    1.186049   0.155611   0.221148
| 19> 		H   -1.405217  -0.377220   1.081460
| 20> 		H   -0.095923   1.023975  -1.007699
| 21> 		H    1.188317  -0.506432   0.921725
| 22> 		H    2.137795   0.661027  -0.018727
| 23> *
| 24>
| 25>                          ****END OF INPUT****

CARTESIAN COORDINATES (ANGSTROEM)
---------------------------------
  C     -1.173227   -0.353543   -0.004633
  O     -1.858688   -1.070773   -0.805649
  C      0.031596    0.432679   -0.379058
  C      1.186049    0.155611    0.221148
  H     -1.405217   -0.377220    1.081460
  H     -0.095923    1.023975   -1.007699
  H      1.188317   -0.506432    0.921725
  H      2.137795    0.661027   -0.018727

 Total Charge           Charge          ....    0
 Multiplicity           Mult            ....    1
 Number of Electrons    NEL             ....   30
 Basis Dimension        Dim             ....   24

ORBITAL ENERGIES
----------------

  NO   OCC          E(Eh)            E(eV)
   0   2.0000     -20.362473      -554.0911
   1   2.0000     -11.289866      -307.2129
   2   2.0000     -11.216358      -305.2126
   3   2.0000     -11.209406      -305.0234
   4   2.0000      -1.362087       -37.0643
   5   2.0000      -1.114662       -30.3315
   6   2.0000      -0.906213       -24.6593
   7   2.0000      -0.821997       -22.3677
   8   2.0000      -0.684584       -18.6285
   9   2.0000      -0.662453       -18.0263
  10   2.0000      -0.608552       -16.5595
  11   2.0000      -0.570738       -15.5306
  12   2.0000      -0.495811       -13.4917
  13   2.0000      -0.423733       -11.5304
  14   2.0000      -0.412481       -11.2242
  15   0.0000       0.137968         3.7543
  16   0.0000       0.228701         6.2233
  17   0.0000       0.548245        14.9185
  18   0.0000       0.647605        17.6222
  19   0.0000       0.714856        19.4522

MULLIKEN ATOMIC CHARGES
-----------------------
   0 C :    0.163619
   1 O :   -0.329717
   2 C :   -0.198246
   3 C :   -0.230988
   4 H :    0.142609
   5 H :    0.150854
   6 H :    0.141426
   7 H :    0.160442
Sum of atomic charges:   -0.0000000

LOEWDIN ATOMIC CHARGES
----------------------
   0 C :    0.157649
   1 O :   -0.253580
   2 C :   -0.128926
   3 C :   -0.125406
   4 H :    0.080453
   5 H :    0.079813
   6 H :    0.081728
   7 H :    0.108267

  Mayer bond orders larger than 0.100000
B(  0-C ,  1-O ) :   1.9355 B(  0-C ,  2-C ) :   1.0047 B(  0-C ,  4-H ) :   0.9283
B(  2-C ,  3-C ) :   1.9726 B(  2-C ,  5-H ) :   0.9619 B(  3-C ,  6-H ) :   0.9697
B(  3-C ,  7-H ) :   0.9607

-----------------------------------------------------------------------------
         ABSORPTION SPECTRUM VIA TRANSITION ELECTRIC DIPOLE MOMENTS
-----------------------------------------------------------------------------
State   Energy    Wavelength  fosc         T2        TX        TY        TZ
        (cm-1)      (nm)                 (au**2)    (au)      (au)      (au)
-----------------------------------------------------------------------------
   1   30612.3    326.7   0.000043920   0.00047  -0.00715  -0.01142   0.01705

Dispersion correction           -0.025862818
FINAL SINGLE POINT ENERGY      -189.274561033024

DIPOLE MOMENT
-------------
                                X             Y             Z
Electronic contribution:     -2.77056      -1.12053      -1.15385
Nuclear contribution   :      3.52352       1.64344       1.83567
                        -----------------------------------------
Total Dipole Moment    :      0.75296       0.52290       0.68182
                        -----------------------------------------
Magnitude (a.u.)       :      1.14248
Magnitude (Debye)      :      2.90395

Rotational constants in cm-1:     1.236276     0.155719     0.151045
Rotational constants in MHz : 37062.628938  4668.346662  4528.204469

                             ****ORCA TERMINATED NORMALLY****
TOTAL RUN TIME: 0 days 0 hours 0 minutes 9 seconds 758 msec
