                         Program Version 5.0.3 -  RELEASE  -
|  1> ! HF-3c
|  2> !TightSCF
|  3> %scf
|  4>  ConvForced true
|  5>  convergence tight
|  6>  MaxIter 500
|  7> end
|  8>
|  9> %tddft
| 10>  nroots 1
| 11> end
| 12>
| 13> # 	139
| 14> * xyz 0 1
| 15> 		C   -1.215333  -0.253086   0.007705
| 16> 		O   -2.256762  -0.189075   0.683718
| 17> 		C    0.048181   0.321983   0.336393
| 18> 		C    1.149905   0.181970  -0.309690
| 19> 		H   -1.097705  -1.185000  -0.758575
| 20> 		H   -0.072807   0.932267   1.240438
| 21> 		H    1.120588  -0.520308  -1.046772
| 22> 		H    2.312428   0.730580  -0.169300
| 23> *
| 24>
| 25>                          ****END OF INPUT****

CARTESIAN COORDINATES (ANGSTROEM)
---------------------------------
  C     -1.215333   -0.253086    0.007705
  O     -2.256762   -0.189075    0.683718
  C      0.048181    0.321983    0.336393
  C      1.149905    0.181970   -0.309690
  H     -1.097705   -1.185000   -0.758575
  H     -0.072807    0.932267    1.240438
  H      1.120588   -0.520308   -1.046772
  H      2.312428    0.730580   -0.169300

 Total Charge           Charge          ....    0
 Multiplicity           Mult            ....    1
 Number of Electrons    NEL             ....   30
 Basis Dimension        Dim             ....   24

ORBITAL ENERGIES
----------------

  NO   OCC          E(Eh)            E(eV)
   0   2.0000     -20.356944      -553.9406
   1   2.0000     -11.285939      -307.1060
   2   2.0000     -11.202247      -304.8286
   3   2.0000     -11.196464      -304.6713
   4   2.0000      -1.376154       -37.4471
   5   2.0000      -1.106921       -30.1209
   6   2.0000      -0.884359       -24.0646
   7   2.0000      -0.765474       -20.8296
   8   2.0000      -0.660236       -17.9659
   9   2.0000      -0.631658       -17.1883
  10   2.0000      -0.564611       -15.3639
  11   2.0000      -0.537648       -14.6301
  12   2.0000      -0.516117       -14.0443
  13   2.0000      -0.410103       -11.1595
  14   2.0000      -0.394803       -10.7431
  15   0.0000       0.122340         3.3290
  16   0.0000       0.317281         8.6337
  17   0.0000       0.421314        11.4645
  18   0.0000       0.553310        15.0563
  19   0.0000       0.647919        17.6308

MULLIKEN ATOMIC CHARGES
-----------------------
   0 C :    0.169626
   1 O :   -0.345340
   2 C :   -0.193553
   3 C :   -0.213441
   4 H :    0.123841
   5 H :    0.156079
   6 H :    0.134106
   7 H :    0.168680
Sum of atomic charges:   -0.0000000

LOEWDIN ATOMIC CHARGES
----------------------
   0 C :    0.147177
   1 O :   -0.260505
   2 C :   -0.144149
   3 C :   -0.124438
   4 H :    0.071072
   5 H :    0.101207
   6 H :    0.079854
   7 H :    0.129782

  Mayer bond orders larger than 0.100000
B(  0-C ,  1-O ) :   1.8931 B(  0-C ,  2-C ) :   1.0477 B(  0-C ,  4-H ) :   0.9156
B(  2-C ,  3-C ) :   1.9453 B(  2-C ,  5-H ) :   0.9455 B(  3-C ,  6-H ) :   0.9627
B(  3-C ,  7-H ) :   0.9508

-----------------------------------------------------------------------------
         ABSORPTION SPECTRUM VIA TRANSITION ELECTRIC DIPOLE MOMENTS
-----------------------------------------------------------------------------
State   Energy    Wavelength  fosc         T2        TX        TY        TZ
        (cm-1)      (nm)                 (au**2)    (au)      (au)      (au)
-----------------------------------------------------------------------------
   1   29495.9    339.0   0.000271624   0.00303  -0.00242   0.04992   0.02311

Dispersion correction           -0.025706158
FINAL SINGLE POINT ENERGY      -189.302218752058

DIPOLE MOMENT
-------------
                                X             Y             Z
Electronic contribution:     -3.15570       0.03263       0.89522
Nuclear contribution   :      4.37623      -0.03896      -1.39183
                        -----------------------------------------
Total Dipole Moment    :      1.22053      -0.00633      -0.49661
                        -----------------------------------------
Magnitude (a.u.)       :      1.31771
Magnitude (Debye)      :      3.34935

Rotational constants in cm-1:     1.755336     0.152966     0.141000
Rotational constants in MHz : 52623.636319  4585.804064  4227.074311

                             ****ORCA TERMINATED NORMALLY****
TOTAL RUN TIME: 0 days 0 hours 0 minutes 10 seconds 899 msec
