                         Program Version 5.0.3 -  RELEASE  -
|  1> ! B3LYP cc-pVDZ
|  2> !TightSCF
|  3> %scf
|  4>  ConvForced true
|  5>  convergence tight
|  6>  MaxIter 500
|  7> end
|  8>
|  9> %tddft
| 10>  nroots 1
| 11> end
| 12>
| 13> # 	3982
| 14> * xyz 0 1
| 15> 		C   -1.214198  -0.309799   0.019540
| 16> 		O   -1.237140  -1.526175   0.267481
| 17> 		C    0.015177   0.480772   0.082087
| 18> 		C    1.262507   0.012109  -0.073637
| 19> 		H   -2.195289   0.050845  -0.405526
| 20> 		H   -0.188893   1.536895   0.174465
| 21> 		H    1.407448  -0.959441  -0.111522
| 22> 		H    2.153096   0.660784   0.080211
| 23> *
| 24>
| 25>                          ****END OF INPUT****

CARTESIAN COORDINATES (ANGSTROEM)
---------------------------------
  C     -1.214198   -0.309799    0.019540
  O     -1.237140   -1.526175    0.267481
  C      0.015177    0.480772    0.082087
  C      1.262507    0.012109   -0.073637
  H     -2.195289    0.050845   -0.405526
  H     -0.188893    1.536895    0.174465
  H      1.407448   -0.959441   -0.111522
  H      2.153096    0.660784    0.080211

 Total Charge           Charge          ....    0
 Multiplicity           Mult            ....    1
 Number of Electrons    NEL             ....   30
 Basis Dimension        Dim             ....   76

ORBITAL ENERGIES
----------------

  NO   OCC          E(Eh)            E(eV)
   0   2.0000     -19.133815      -520.6576
   1   2.0000     -10.275751      -279.6174
   2   2.0000     -10.209086      -277.8033
   3   2.0000     -10.208300      -277.7820
   4   2.0000      -1.028096       -27.9759
   5   2.0000      -0.799008       -21.7421
   6   2.0000      -0.665206       -18.1012
   7   2.0000      -0.550476       -14.9792
   8   2.0000      -0.508248       -13.8301
   9   2.0000      -0.452222       -12.3056
  10   2.0000      -0.430306       -11.7092
  11   2.0000      -0.390479       -10.6255
  12   2.0000      -0.375433       -10.2161
  13   2.0000      -0.288944        -7.8626
  14   2.0000      -0.251076        -6.8321
  15   0.0000      -0.072821        -1.9816
  16   0.0000       0.040816         1.1107
  17   0.0000       0.069652         1.8953
  18   0.0000       0.099380         2.7043
  19   0.0000       0.118599         3.2272

MULLIKEN ATOMIC CHARGES
-----------------------
   0 C :    0.155385
   1 O :   -0.217889
   2 C :   -0.091488
   3 C :    0.135318
   4 H :   -0.000891
   5 H :   -0.010776
   6 H :   -0.011852
   7 H :    0.042193
Sum of atomic charges:   -0.0000000

LOEWDIN ATOMIC CHARGES
----------------------
   0 C :   -0.021181
   1 O :   -0.035657
   2 C :   -0.063928
   3 C :    0.043386
   4 H :    0.007179
   5 H :    0.026356
   6 H :   -0.000097
   7 H :    0.043941

  Mayer bond orders larger than 0.100000
B(  0-C ,  1-O ) :   2.1446 B(  0-C ,  2-C ) :   1.0482 B(  0-C ,  4-H ) :   0.9308
B(  2-C ,  3-C ) :   1.9850 B(  2-C ,  5-H ) :   0.9393 B(  3-C ,  6-H ) :   0.9306
B(  3-C ,  7-H ) :   0.9454

-----------------------------------------------------------------------------
         ABSORPTION SPECTRUM VIA TRANSITION ELECTRIC DIPOLE MOMENTS
-----------------------------------------------------------------------------
State   Energy    Wavelength  fosc         T2        TX        TY        TZ
        (cm-1)      (nm)                 (au**2)    (au)      (au)      (au)
-----------------------------------------------------------------------------
   1   25882.0    386.4   0.000090589   0.00115  -0.01150  -0.00322  -0.03177

FINAL SINGLE POINT ENERGY      -191.672109428395

DIPOLE MOMENT
-------------
                                X             Y             Z
Electronic contribution:     -1.88022      -1.68427       0.36311
Nuclear contribution   :      2.28450       2.59256      -0.53459
                        -----------------------------------------
Total Dipole Moment    :      0.40428       0.90829      -0.17148
                        -----------------------------------------
Magnitude (a.u.)       :      1.00888
Magnitude (Debye)      :      2.56438

Rotational constants in cm-1:     0.797104     0.198169     0.160756
Rotational constants in MHz : 23896.564925  5940.950222  4819.331039

                             ****ORCA TERMINATED NORMALLY****
TOTAL RUN TIME: 0 days 0 hours 3 minutes 23 seconds 229 msec
