                         Program Version 5.0.3 -  RELEASE  -
|  1> ! B3LYP cc-pVDZ
|  2> !TightSCF
|  3> %scf
|  4>  ConvForced true
|  5>  convergence tight
|  6>  MaxIter 500
|  7> end
|  8>
|  9> %tddft
| 10>  nroots 1
| 11> end
| 12>
| 13> # 	9334
| 14> * xyz 0 1
| 15> 		C   -1.254339  -0.374791   0.047468
| 16> 		O   -1.905904  -0.763989   0.929634
| 17> 		C    0.068893   0.441302   0.267346
| 18> 		C    1.144411   0.053786  -0.232537
| 19> 		H   -1.544290  -0.451709  -1.006941
| 20> 		H    0.048159   1.329945   0.877767
| 21> 		H    1.249694  -0.766730  -0.806571
| 22> 		H    2.181190   0.590254  -0.120586
| 23> *
| 24>
| 25>                          ****END OF INPUT****

CARTESIAN COORDINATES (ANGSTROEM)
---------------------------------
  C     -1.254339   -0.374791    0.047468
  O     -1.905904   -0.763989    0.929634
  C      0.068893    0.441302    0.267346
  C      1.144411    0.053786   -0.232537
  H     -1.544290   -0.451709   -1.006941
  H      0.048159    1.329945    0.877767
  H      1.249694   -0.766730   -0.806571
  H      2.181190    0.590254   -0.120586

 Total Charge           Charge          ....    0
 Multiplicity           Mult            ....    1
 Number of Electrons    NEL             ....   30
 Basis Dimension        Dim             ....   76

ORBITAL ENERGIES
----------------

  NO   OCC          E(Eh)            E(eV)
   0   2.0000     -19.148926      -521.0688
   1   2.0000     -10.281722      -279.7799
   2   2.0000     -10.191452      -277.3235
   3   2.0000     -10.189035      -277.2577
   4   2.0000      -1.080839       -29.4111
   5   2.0000      -0.805733       -21.9251
   6   2.0000      -0.632131       -17.2012
   7   2.0000      -0.572574       -15.5805
   8   2.0000      -0.492210       -13.3937
   9   2.0000      -0.469082       -12.7644
  10   2.0000      -0.449086       -12.2202
  11   2.0000      -0.401035       -10.9127
  12   2.0000      -0.375061       -10.2059
  13   2.0000      -0.300299        -8.1716
  14   2.0000      -0.254785        -6.9331
  15   0.0000      -0.035646        -0.9700
  16   0.0000       0.029145         0.7931
  17   0.0000       0.078065         2.1243
  18   0.0000       0.095707         2.6043
  19   0.0000       0.118662         3.2290

MULLIKEN ATOMIC CHARGES
-----------------------
   0 C :    0.171497
   1 O :   -0.138630
   2 C :   -0.089339
   3 C :    0.063726
   4 H :   -0.012811
   5 H :   -0.000773
   6 H :   -0.023480
   7 H :    0.029810
Sum of atomic charges:    0.0000000

LOEWDIN ATOMIC CHARGES
----------------------
   0 C :   -0.032644
   1 O :    0.057654
   2 C :   -0.063270
   3 C :   -0.031101
   4 H :   -0.010517
   5 H :    0.033032
   6 H :    0.002683
   7 H :    0.044163

  Mayer bond orders larger than 0.100000
B(  0-C ,  1-O ) :   2.2712 B(  0-C ,  2-C ) :   0.9480 B(  0-C ,  4-H ) :   0.9091
B(  2-C ,  3-C ) :   2.0638 B(  2-C ,  5-H ) :   0.9366 B(  3-C ,  6-H ) :   0.9392
B(  3-C ,  7-H ) :   0.9353

-----------------------------------------------------------------------------
         ABSORPTION SPECTRUM VIA TRANSITION ELECTRIC DIPOLE MOMENTS
-----------------------------------------------------------------------------
State   Energy    Wavelength  fosc         T2        TX        TY        TZ
        (cm-1)      (nm)                 (au**2)    (au)      (au)      (au)
-----------------------------------------------------------------------------
   1   33904.4    294.9   0.000322318   0.00313   0.05494   0.00482   0.00941

FINAL SINGLE POINT ENERGY      -191.621157565845

DIPOLE MOMENT
-------------
                                X             Y             Z
Electronic contribution:     -3.19091      -1.01190       1.41526
Nuclear contribution   :      3.73811       1.32383      -1.97161
                        -----------------------------------------
Total Dipole Moment    :      0.54721       0.31193      -0.55635
                        -----------------------------------------
Magnitude (a.u.)       :      0.84040
Magnitude (Debye)      :      2.13612

Rotational constants in cm-1:     1.275937     0.158685     0.152515
Rotational constants in MHz : 38251.631917  4757.243851  4572.290286

                             ****ORCA TERMINATED NORMALLY****
TOTAL RUN TIME: 0 days 0 hours 3 minutes 22 seconds 8 msec
