                         Program Version 5.0.3 -  RELEASE  -
|  1> ! B3LYP cc-pVDZ
|  2> !TightSCF
|  3> %scf
|  4>  ConvForced true
|  5>  convergence tight
|  6>  MaxIter 500
|  7> end
|  8>
|  9> %tddft
| 10>  nroots 1
| 11> end
| 12>
| 13> # 	2522
| 14> * xyz 0 1
| 15> 		C   -1.205009  -0.382077  -0.034998
| 16> 		O   -1.378289  -1.466788   0.290642
| 17> 		C   -0.026824   0.517298   0.177446
| 18> 		C    1.193251  -0.003025   0.002619
| 19> 		H   -2.021076   0.298190  -0.593580
| 20> 		H   -0.292002   1.372890   0.504448
| 21> 		H    1.528342  -0.920250  -0.420345
| 22> 		H    2.123624   0.629500   0.132169
| 23> *
| 24>
| 25>                          ****END OF INPUT****

CARTESIAN COORDINATES (ANGSTROEM)
---------------------------------
  C     -1.205009   -0.382077   -0.034998
  O     -1.378289   -1.466788    0.290642
  C     -0.026824    0.517298    0.177446
  C      1.193251   -0.003025    0.002619
  H     -2.021076    0.298190   -0.593580
  H     -0.292002    1.372890    0.504448
  H      1.528342   -0.920250   -0.420345
  H      2.123624    0.629500    0.132169

 Total Charge           Charge          ....    0
 Multiplicity           Mult            ....    1
 Number of Electrons    NEL             ....   30
 Basis Dimension        Dim             ....   76

ORBITAL ENERGIES
----------------

  NO   OCC          E(Eh)            E(eV)
   0   2.0000     -19.147906      -521.0410
   1   2.0000     -10.278151      -279.6827
   2   2.0000     -10.213487      -277.9231
   3   2.0000     -10.196721      -277.4669
   4   2.0000      -1.089091       -29.6357
   5   2.0000      -0.799911       -21.7667
   6   2.0000      -0.657908       -17.9026
   7   2.0000      -0.553110       -15.0509
   8   2.0000      -0.505313       -13.7503
   9   2.0000      -0.465346       -12.6627
  10   2.0000      -0.451144       -12.2762
  11   2.0000      -0.409872       -11.1532
  12   2.0000      -0.383572       -10.4375
  13   2.0000      -0.290672        -7.9096
  14   2.0000      -0.250138        -6.8066
  15   0.0000      -0.048399        -1.3170
  16   0.0000       0.034327         0.9341
  17   0.0000       0.074343         2.0230
  18   0.0000       0.090411         2.4602
  19   0.0000       0.120422         3.2768

MULLIKEN ATOMIC CHARGES
-----------------------
   0 C :    0.127011
   1 O :   -0.116213
   2 C :    0.010839
   3 C :    0.033671
   4 H :   -0.052399
   5 H :   -0.060124
   6 H :    0.027360
   7 H :    0.029855
Sum of atomic charges:    0.0000000

LOEWDIN ATOMIC CHARGES
----------------------
   0 C :   -0.069377
   1 O :    0.073464
   2 C :   -0.041666
   3 C :    0.009675
   4 H :   -0.025248
   5 H :   -0.009071
   6 H :    0.026340
   7 H :    0.035882

  Mayer bond orders larger than 0.100000
B(  0-C ,  1-O ) :   2.3102 B(  0-C ,  2-C ) :   1.0135 B(  0-C ,  4-H ) :   0.8703
B(  2-C ,  3-C ) :   1.9733 B(  2-C ,  5-H ) :   0.9468 B(  3-C ,  6-H ) :   0.9568
B(  3-C ,  7-H ) :   0.9525

-----------------------------------------------------------------------------
         ABSORPTION SPECTRUM VIA TRANSITION ELECTRIC DIPOLE MOMENTS
-----------------------------------------------------------------------------
State   Energy    Wavelength  fosc         T2        TX        TY        TZ
        (cm-1)      (nm)                 (au**2)    (au)      (au)      (au)
-----------------------------------------------------------------------------
   1   31989.3    312.6   0.001429708   0.01471  -0.12069   0.00667   0.01016

FINAL SINGLE POINT ENERGY      -191.622746436143

DIPOLE MOMENT
-------------
                                X             Y             Z
Electronic contribution:     -2.16353      -1.94834       0.60289
Nuclear contribution   :      2.65802       2.65009      -0.75369
                        -----------------------------------------
Total Dipole Moment    :      0.49449       0.70175      -0.15080
                        -----------------------------------------
Magnitude (a.u.)       :      0.87162
Magnitude (Debye)      :      2.21547

Rotational constants in cm-1:     0.837548     0.194434     0.163049
Rotational constants in MHz : 25109.069203  5828.979403  4888.097556

                             ****ORCA TERMINATED NORMALLY****
TOTAL RUN TIME: 0 days 0 hours 3 minutes 21 seconds 182 msec
