                         Program Version 5.0.3 -  RELEASE  -
|  1> ! HF-3c
|  2> !TightSCF
|  3> %scf
|  4>  ConvForced true
|  5>  convergence tight
|  6>  MaxIter 500
|  7> end
|  8>
|  9> %tddft
| 10>  nroots 1
| 11> end
| 12>
| 13> # 	32442
| 14> * xyz 0 1
| 15> 		C   -0.590167  -0.458049  -0.035270
| 16> 		O   -0.634704  -1.681666   0.023815
| 17> 		C    0.639280   0.413542   0.042630
| 18> 		C    1.923359  -0.050526  -0.016682
| 19> 		H   -1.597331   0.088222  -0.180158
| 20> 		H    0.449192   1.516860   0.054376
| 21> 		H    1.895031  -1.127702  -0.130527
| 22> 		H    2.787007   0.568858  -0.003389
| 23> *
| 24>
| 25>                          ****END OF INPUT****

CARTESIAN COORDINATES (ANGSTROEM)
---------------------------------
  C     -0.590167   -0.458049   -0.035270
  O     -0.634704   -1.681666    0.023815
  C      0.639280    0.413542    0.042630
  C      1.923359   -0.050526   -0.016682
  H     -1.597331    0.088222   -0.180158
  H      0.449192    1.516860    0.054376
  H      1.895031   -1.127702   -0.130527
  H      2.787007    0.568858   -0.003389

 Total Charge           Charge          ....    0
 Multiplicity           Mult            ....    1
 Number of Electrons    NEL             ....   30
 Basis Dimension        Dim             ....   24

ORBITAL ENERGIES
----------------

  NO   OCC          E(Eh)            E(eV)
   0   2.0000     -20.360435      -554.0356
   1   2.0000     -11.291408      -307.2548
   2   2.0000     -11.190109      -304.4983
   3   2.0000     -11.185634      -304.3766
   4   2.0000      -1.388694       -37.7883
   5   2.0000      -1.066013       -29.0077
   6   2.0000      -0.883440       -24.0396
   7   2.0000      -0.736165       -20.0321
   8   2.0000      -0.695750       -18.9323
   9   2.0000      -0.608465       -16.5572
  10   2.0000      -0.598729       -16.2923
  11   2.0000      -0.529695       -14.4137
  12   2.0000      -0.520966       -14.1762
  13   2.0000      -0.410589       -11.1727
  14   2.0000      -0.386798       -10.5253
  15   0.0000       0.125744         3.4217
  16   0.0000       0.298881         8.1330
  17   0.0000       0.522574        14.2200
  18   0.0000       0.591722        16.1016
  19   0.0000       0.641257        17.4495

MULLIKEN ATOMIC CHARGES
-----------------------
   0 C :    0.162176
   1 O :   -0.355022
   2 C :   -0.162242
   3 C :   -0.231998
   4 H :    0.135400
   5 H :    0.136550
   6 H :    0.162184
   7 H :    0.152953
Sum of atomic charges:   -0.0000000

LOEWDIN ATOMIC CHARGES
----------------------
   0 C :    0.143526
   1 O :   -0.264171
   2 C :   -0.123549
   3 C :   -0.127983
   4 H :    0.076692
   5 H :    0.087946
   6 H :    0.107883
   7 H :    0.099655

  Mayer bond orders larger than 0.100000
B(  0-C ,  1-O ) :   1.9084 B(  0-C ,  2-C ) :   1.0210 B(  0-C ,  4-H ) :   0.9232
B(  2-C ,  3-C ) :   1.9435 B(  2-C ,  5-H ) :   0.9609 B(  3-C ,  6-H ) :   0.9585
B(  3-C ,  7-H ) :   0.9650

-----------------------------------------------------------------------------
         ABSORPTION SPECTRUM VIA TRANSITION ELECTRIC DIPOLE MOMENTS
-----------------------------------------------------------------------------
State   Energy    Wavelength  fosc         T2        TX        TY        TZ
        (cm-1)      (nm)                 (au**2)    (au)      (au)      (au)
-----------------------------------------------------------------------------
   1   31835.2    314.1   0.000031345   0.00032  -0.01499  -0.00187   0.00979

Dispersion correction           -0.025160342
FINAL SINGLE POINT ENERGY      -189.341340109604

DIPOLE MOMENT
-------------
                                X             Y             Z
Electronic contribution:     -1.84828      -1.79932       0.15443
Nuclear contribution   :      2.15699       2.77053      -0.24378
                        -----------------------------------------
Total Dipole Moment    :      0.30871       0.97122      -0.08935
                        -----------------------------------------
Magnitude (a.u.)       :      1.02301
Magnitude (Debye)      :      2.60028

Rotational constants in cm-1:     0.789965     0.190194     0.153573
Rotational constants in MHz : 23682.565288  5701.884058  4604.011827

                             ****ORCA TERMINATED NORMALLY****
TOTAL RUN TIME: 0 days 0 hours 0 minutes 9 seconds 852 msec
