                         Program Version 5.0.3 -  RELEASE  -
|  1> ! B3LYP cc-pVDZ
|  2> !TightSCF
|  3> %scf
|  4>  ConvForced true
|  5>  convergence tight
|  6>  MaxIter 500
|  7> end
|  8>
|  9> %tddft
| 10>  nroots 1
| 11> end
| 12>
| 13> # 	3357
| 14> * xyz 0 1
| 15> 		C   -1.251225  -0.414479  -0.070359
| 16> 		O   -2.031438  -0.543712  -0.962361
| 17> 		C    0.072791   0.339499  -0.307453
| 18> 		C    1.210005   0.132380   0.274063
| 19> 		H   -1.328261  -0.689882   1.137006
| 20> 		H    0.059139   1.159879  -1.188660
| 21> 		H    1.268991  -0.528921   1.051587
| 22> 		H    2.006668   0.618947   0.018488
| 23> *
| 24>
| 25>                          ****END OF INPUT****

CARTESIAN COORDINATES (ANGSTROEM)
---------------------------------
  C     -1.251225   -0.414479   -0.070359
  O     -2.031438   -0.543712   -0.962361
  C      0.072791    0.339499   -0.307453
  C      1.210005    0.132380    0.274063
  H     -1.328261   -0.689882    1.137006
  H      0.059139    1.159879   -1.188660
  H      1.268991   -0.528921    1.051587
  H      2.006668    0.618947    0.018488

 Total Charge           Charge          ....    0
 Multiplicity           Mult            ....    1
 Number of Electrons    NEL             ....   30
 Basis Dimension        Dim             ....   76

ORBITAL ENERGIES
----------------

  NO   OCC          E(Eh)            E(eV)
   0   2.0000     -19.155818      -521.2563
   1   2.0000     -10.296920      -280.1934
   2   2.0000     -10.208963      -277.8000
   3   2.0000     -10.187288      -277.2102
   4   2.0000      -1.068507       -29.0756
   5   2.0000      -0.803787       -21.8722
   6   2.0000      -0.646210       -17.5843
   7   2.0000      -0.552096       -15.0233
   8   2.0000      -0.488608       -13.2957
   9   2.0000      -0.473074       -12.8730
  10   2.0000      -0.441277       -12.0078
  11   2.0000      -0.409311       -11.1379
  12   2.0000      -0.370106       -10.0711
  13   2.0000      -0.297129        -8.0853
  14   2.0000      -0.261941        -7.1278
  15   0.0000      -0.055953        -1.5226
  16   0.0000       0.035300         0.9606
  17   0.0000       0.067211         1.8289
  18   0.0000       0.081384         2.2146
  19   0.0000       0.115599         3.1456

MULLIKEN ATOMIC CHARGES
-----------------------
   0 C :    0.147355
   1 O :   -0.154344
   2 C :   -0.187998
   3 C :    0.206992
   4 H :    0.000329
   5 H :    0.025637
   6 H :   -0.015601
   7 H :   -0.022370
Sum of atomic charges:    0.0000000

LOEWDIN ATOMIC CHARGES
----------------------
   0 C :   -0.042697
   1 O :    0.033793
   2 C :   -0.064576
   3 C :    0.009627
   4 H :    0.000315
   5 H :    0.047393
   6 H :    0.014389
   7 H :    0.001757

  Mayer bond orders larger than 0.100000
B(  0-C ,  1-O ) :   2.2149 B(  0-C ,  2-C ) :   0.9937 B(  0-C ,  4-H ) :   0.8722
B(  2-C ,  3-C ) :   2.0179 B(  2-C ,  5-H ) :   0.9305 B(  3-C ,  6-H ) :   0.9339
B(  3-C ,  7-H ) :   0.9183

-----------------------------------------------------------------------------
         ABSORPTION SPECTRUM VIA TRANSITION ELECTRIC DIPOLE MOMENTS
-----------------------------------------------------------------------------
State   Energy    Wavelength  fosc         T2        TX        TY        TZ
        (cm-1)      (nm)                 (au**2)    (au)      (au)      (au)
-----------------------------------------------------------------------------
   1   31870.8    313.8   0.000712476   0.00736  -0.07698  -0.01220   0.03584

FINAL SINGLE POINT ENERGY      -191.626421771572

DIPOLE MOMENT
-------------
                                X             Y             Z
Electronic contribution:     -3.08959      -0.82027      -1.44882
Nuclear contribution   :      3.87510       1.01766       1.99064
                        -----------------------------------------
Total Dipole Moment    :      0.78552       0.19738       0.54183
                        -----------------------------------------
Magnitude (a.u.)       :      0.97446
Magnitude (Debye)      :      2.47689

Rotational constants in cm-1:     1.414099     0.153705     0.142155
Rotational constants in MHz : 42393.624578  4607.963077  4261.688811

                             ****ORCA TERMINATED NORMALLY****
TOTAL RUN TIME: 0 days 0 hours 3 minutes 26 seconds 601 msec
