                         Program Version 5.0.3 -  RELEASE  -
|  1> ! B3LYP cc-pVDZ
|  2> !TightSCF
|  3> %scf
|  4>  ConvForced true
|  5>  convergence tight
|  6>  MaxIter 500
|  7> end
|  8>
|  9> %tddft
| 10>  nroots 1
| 11> end
| 12>
| 13> # 	30049
| 14> * xyz 0 1
| 15> 		C   -0.582954  -0.416085   0.045842
| 16> 		O   -0.588810  -1.659899  -0.027382
| 17> 		C    0.606797   0.396066  -0.031205
| 18> 		C    1.863168  -0.089168   0.020857
| 19> 		H   -1.514598   0.188839   0.225843
| 20> 		H    0.407528   1.515087  -0.331329
| 21> 		H    1.989529  -1.207562  -0.097921
| 22> 		H    2.920346   0.418407   0.209615
| 23> *
| 24>
| 25>                          ****END OF INPUT****

CARTESIAN COORDINATES (ANGSTROEM)
---------------------------------
  C     -0.582954   -0.416085    0.045842
  O     -0.588810   -1.659899   -0.027382
  C      0.606797    0.396066   -0.031205
  C      1.863168   -0.089168    0.020857
  H     -1.514598    0.188839    0.225843
  H      0.407528    1.515087   -0.331329
  H      1.989529   -1.207562   -0.097921
  H      2.920346    0.418407    0.209615

 Total Charge           Charge          ....    0
 Multiplicity           Mult            ....    1
 Number of Electrons    NEL             ....   30
 Basis Dimension        Dim             ....   76

ORBITAL ENERGIES
----------------

  NO   OCC          E(Eh)            E(eV)
   0   2.0000     -19.138084      -520.7737
   1   2.0000     -10.277588      -279.6674
   2   2.0000     -10.231507      -278.4135
   3   2.0000     -10.215794      -277.9859
   4   2.0000      -1.026633       -27.9361
   5   2.0000      -0.793872       -21.6024
   6   2.0000      -0.662377       -18.0242
   7   2.0000      -0.535866       -14.5817
   8   2.0000      -0.493236       -13.4216
   9   2.0000      -0.447376       -12.1737
  10   2.0000      -0.419451       -11.4138
  11   2.0000      -0.395145       -10.7524
  12   2.0000      -0.362881        -9.8745
  13   2.0000      -0.280787        -7.6406
  14   2.0000      -0.256880        -6.9901
  15   0.0000      -0.080732        -2.1968
  16   0.0000       0.034635         0.9425
  17   0.0000       0.069148         1.8816
  18   0.0000       0.078886         2.1466
  19   0.0000       0.116021         3.1571

MULLIKEN ATOMIC CHARGES
-----------------------
   0 C :    0.190361
   1 O :   -0.219042
   2 C :   -0.119934
   3 C :    0.007067
   4 H :   -0.005978
   5 H :    0.023015
   6 H :    0.057140
   7 H :    0.067373
Sum of atomic charges:    0.0000000

LOEWDIN ATOMIC CHARGES
----------------------
   0 C :   -0.025854
   1 O :   -0.036786
   2 C :   -0.097626
   3 C :    0.017133
   4 H :    0.003801
   5 H :    0.044845
   6 H :    0.041610
   7 H :    0.052878

  Mayer bond orders larger than 0.100000
B(  0-C ,  1-O ) :   2.1489 B(  0-C ,  2-C ) :   1.0891 B(  0-C ,  4-H ) :   0.9127
B(  1-O ,  3-C ) :   0.1022 B(  2-C ,  3-C ) :   1.9120 B(  2-C ,  5-H ) :   0.9381
B(  3-C ,  6-H ) :   0.9314 B(  3-C ,  7-H ) :   0.9500

-----------------------------------------------------------------------------
         ABSORPTION SPECTRUM VIA TRANSITION ELECTRIC DIPOLE MOMENTS
-----------------------------------------------------------------------------
State   Energy    Wavelength  fosc         T2        TX        TY        TZ
        (cm-1)      (nm)                 (au**2)    (au)      (au)      (au)
-----------------------------------------------------------------------------
   1   25986.7    384.8   0.000119849   0.00152  -0.02111  -0.01707   0.02795

FINAL SINGLE POINT ENERGY      -191.668945371265

DIPOLE MOMENT
-------------
                                X             Y             Z
Electronic contribution:     -1.93264      -1.73707       0.00260
Nuclear contribution   :      2.41137       2.64444       0.00579
                        -----------------------------------------
Total Dipole Moment    :      0.47873       0.90737       0.00839
                        -----------------------------------------
Magnitude (a.u.)       :      1.02595
Magnitude (Debye)      :      2.60776

Rotational constants in cm-1:     0.739572     0.204231     0.160862
Rotational constants in MHz : 22171.811913  6122.685409  4822.507240

                             ****ORCA TERMINATED NORMALLY****
TOTAL RUN TIME: 0 days 0 hours 3 minutes 26 seconds 652 msec
