                         Program Version 5.0.3 -  RELEASE  -
|  1> ! B3LYP cc-pVDZ
|  2> !TightSCF
|  3> %scf
|  4>  ConvForced true
|  5>  convergence tight
|  6>  MaxIter 500
|  7> end
|  8>
|  9> %tddft
| 10>  nroots 1
| 11> end
| 12>
| 13> # 	9950
| 14> * xyz 0 1
| 15> 		C   -1.174845  -0.238687   0.052748
| 16> 		O   -1.472437  -1.334570   0.731198
| 17> 		C    0.062029   0.513166   0.161128
| 18> 		C    1.237881   0.027364  -0.075353
| 19> 		H   -2.092333   0.099744  -0.644914
| 20> 		H   -0.103545   1.355139   0.321232
| 21> 		H    1.384635  -1.010687  -0.449097
| 22> 		H    2.110102   0.537854  -0.039385
| 23> *
| 24>
| 25>                          ****END OF INPUT****

CARTESIAN COORDINATES (ANGSTROEM)
---------------------------------
  C     -1.174845   -0.238687    0.052748
  O     -1.472437   -1.334570    0.731198
  C      0.062029    0.513166    0.161128
  C      1.237881    0.027364   -0.075353
  H     -2.092333    0.099744   -0.644914
  H     -0.103545    1.355139    0.321232
  H      1.384635   -1.010687   -0.449097
  H      2.110102    0.537854   -0.039385

 Total Charge           Charge          ....    0
 Multiplicity           Mult            ....    1
 Number of Electrons    NEL             ....   30
 Basis Dimension        Dim             ....   76

ORBITAL ENERGIES
----------------

  NO   OCC          E(Eh)            E(eV)
   0   2.0000     -19.138892      -520.7957
   1   2.0000     -10.288689      -279.9694
   2   2.0000     -10.206959      -277.7455
   3   2.0000     -10.193477      -277.3786
   4   2.0000      -0.988243       -26.8914
   5   2.0000      -0.824374       -22.4324
   6   2.0000      -0.675909       -18.3924
   7   2.0000      -0.570720       -15.5301
   8   2.0000      -0.516483       -14.0542
   9   2.0000      -0.462814       -12.5938
  10   2.0000      -0.423004       -11.5105
  11   2.0000      -0.388180       -10.5629
  12   2.0000      -0.352134        -9.5820
  13   2.0000      -0.296884        -8.0786
  14   2.0000      -0.249635        -6.7929
  15   0.0000      -0.064666        -1.7597
  16   0.0000       0.005393         0.1468
  17   0.0000       0.075826         2.0633
  18   0.0000       0.089153         2.4260
  19   0.0000       0.114695         3.1210

MULLIKEN ATOMIC CHARGES
-----------------------
   0 C :    0.099318
   1 O :   -0.262814
   2 C :    0.132348
   3 C :    0.094708
   4 H :    0.026074
   5 H :   -0.124731
   6 H :    0.031440
   7 H :    0.003655
Sum of atomic charges:    0.0000000

LOEWDIN ATOMIC CHARGES
----------------------
   0 C :    0.044623
   1 O :   -0.099683
   2 C :   -0.022849
   3 C :    0.038654
   4 H :    0.020338
   5 H :   -0.037173
   6 H :    0.042798
   7 H :    0.013293

  Mayer bond orders larger than 0.100000
B(  0-C ,  1-O ) :   2.1034 B(  0-C ,  2-C ) :   1.0216 B(  0-C ,  4-H ) :   0.9171
B(  2-C ,  3-C ) :   2.0066 B(  2-C ,  5-H ) :   0.9296 B(  3-C ,  6-H ) :   0.9394
B(  3-C ,  7-H ) :   0.9439

-----------------------------------------------------------------------------
         ABSORPTION SPECTRUM VIA TRANSITION ELECTRIC DIPOLE MOMENTS
-----------------------------------------------------------------------------
State   Energy    Wavelength  fosc         T2        TX        TY        TZ
        (cm-1)      (nm)                 (au**2)    (au)      (au)      (au)
-----------------------------------------------------------------------------
   1   26010.0    384.5   0.000165542   0.00210   0.02787  -0.03331  -0.01447

FINAL SINGLE POINT ENERGY      -191.603907576021

DIPOLE MOMENT
-------------
                                X             Y             Z
Electronic contribution:     -1.98514      -1.11235       1.06788
Nuclear contribution   :      2.59092       2.02629      -1.59407
                        -----------------------------------------
Total Dipole Moment    :      0.60578       0.91394      -0.52618
                        -----------------------------------------
Magnitude (a.u.)       :      1.21619
Magnitude (Debye)      :      3.09131

Rotational constants in cm-1:     0.865539     0.179911     0.156895
Rotational constants in MHz : 25948.196260  5393.590391  4703.605528

                             ****ORCA TERMINATED NORMALLY****
TOTAL RUN TIME: 0 days 0 hours 3 minutes 22 seconds 822 msec
