                         Program Version 5.0.3 -  RELEASE  -
|  1> ! B3LYP cc-pVDZ
|  2> !TightSCF
|  3> %scf
|  4>  ConvForced true
|  5>  convergence tight
|  6>  MaxIter 500
|  7> end
|  8>
|  9> %tddft
| 10>  nroots 1
| 11> end
| 12>
| 13> # 	13446
| 14> * xyz 0 1
| 15> 		C   -1.217293  -0.307294  -0.047042
| 16> 		O   -1.548912  -1.249923  -0.750256
| 17> 		C    0.035235   0.445695  -0.240789
| 18> 		C    1.195728   0.027802   0.110208
| 19> 		H   -1.875126  -0.048498   1.006678
| 20> 		H   -0.022807   1.427373  -0.710169
| 21> 		H    1.368693  -0.784064   0.618998
| 22> 		H    2.073574   0.530933   0.007634
| 23> *
| 24>
| 25>                          ****END OF INPUT****

CARTESIAN COORDINATES (ANGSTROEM)
---------------------------------
  C     -1.217293   -0.307294   -0.047042
  O     -1.548912   -1.249923   -0.750256
  C      0.035235    0.445695   -0.240789
  C      1.195728    0.027802    0.110208
  H     -1.875126   -0.048498    1.006678
  H     -0.022807    1.427373   -0.710169
  H      1.368693   -0.784064    0.618998
  H      2.073574    0.530933    0.007634

 Total Charge           Charge          ....    0
 Multiplicity           Mult            ....    1
 Number of Electrons    NEL             ....   30
 Basis Dimension        Dim             ....   76

ORBITAL ENERGIES
----------------

  NO   OCC          E(Eh)            E(eV)
   0   2.0000     -19.151754      -521.1457
   1   2.0000     -10.295510      -280.1551
   2   2.0000     -10.204276      -277.6725
   3   2.0000     -10.182037      -277.0673
   4   2.0000      -1.049709       -28.5640
   5   2.0000      -0.811965       -22.0947
   6   2.0000      -0.661396       -17.9975
   7   2.0000      -0.558678       -15.2024
   8   2.0000      -0.495764       -13.4904
   9   2.0000      -0.469823       -12.7845
  10   2.0000      -0.446321       -12.1450
  11   2.0000      -0.393678       -10.7125
  12   2.0000      -0.373301       -10.1580
  13   2.0000      -0.295827        -8.0499
  14   2.0000      -0.258436        -7.0324
  15   0.0000      -0.038887        -1.0582
  16   0.0000      -0.004599        -0.1252
  17   0.0000       0.074459         2.0261
  18   0.0000       0.084576         2.3014
  19   0.0000       0.111237         3.0269

MULLIKEN ATOMIC CHARGES
-----------------------
   0 C :    0.121233
   1 O :   -0.175525
   2 C :   -0.076742
   3 C :    0.158815
   4 H :    0.001502
   5 H :    0.011061
   6 H :   -0.035577
   7 H :   -0.004765
Sum of atomic charges:    0.0000000

LOEWDIN ATOMIC CHARGES
----------------------
   0 C :   -0.017791
   1 O :    0.003349
   2 C :   -0.054552
   3 C :    0.006167
   4 H :    0.001553
   5 H :    0.041264
   6 H :   -0.000182
   7 H :    0.020191

  Mayer bond orders larger than 0.100000
B(  0-C ,  1-O ) :   2.2222 B(  0-C ,  2-C ) :   0.9657 B(  0-C ,  4-H ) :   0.8801
B(  2-C ,  3-C ) :   2.0770 B(  2-C ,  5-H ) :   0.9241 B(  3-C ,  6-H ) :   0.9415
B(  3-C ,  7-H ) :   0.9399

-----------------------------------------------------------------------------
         ABSORPTION SPECTRUM VIA TRANSITION ELECTRIC DIPOLE MOMENTS
-----------------------------------------------------------------------------
State   Energy    Wavelength  fosc         T2        TX        TY        TZ
        (cm-1)      (nm)                 (au**2)    (au)      (au)      (au)
-----------------------------------------------------------------------------
   1   32736.5    305.5   0.000255195   0.00257  -0.00294   0.00530  -0.05030

FINAL SINGLE POINT ENERGY      -191.617213954160

DIPOLE MOMENT
-------------
                                X             Y             Z
Electronic contribution:     -2.43704      -1.47281      -1.31915
Nuclear contribution   :      2.97559       2.17109       1.74243
                        -----------------------------------------
Total Dipole Moment    :      0.53855       0.69827       0.42329
                        -----------------------------------------
Magnitude (a.u.)       :      0.97816
Magnitude (Debye)      :      2.48627

Rotational constants in cm-1:     0.945739     0.175576     0.162647
Rotational constants in MHz : 28352.527671  5263.643208  4876.045435

                             ****ORCA TERMINATED NORMALLY****
TOTAL RUN TIME: 0 days 0 hours 3 minutes 22 seconds 137 msec
