                         Program Version 5.0.3 -  RELEASE  -
|  1> ! B3LYP cc-pVDZ
|  2> !TightSCF
|  3> %scf
|  4>  ConvForced true
|  5>  convergence tight
|  6>  MaxIter 500
|  7> end
|  8>
|  9> %tddft
| 10>  nroots 1
| 11> end
| 12>
| 13> # 	6255
| 14> * xyz 0 1
| 15> 		C   -1.166286  -0.370307  -0.020673
| 16> 		O   -2.058955  -0.612733  -0.869400
| 17> 		C    0.058588   0.409029  -0.297679
| 18> 		C    1.205740   0.111918   0.229554
| 19> 		H   -1.228287  -0.634958   1.040863
| 20> 		H   -0.086976   1.043732  -1.094317
| 21> 		H    1.263079  -0.470010   0.962022
| 22> 		H    2.022757   0.611878   0.049866
| 23> *
| 24>
| 25>                          ****END OF INPUT****

CARTESIAN COORDINATES (ANGSTROEM)
---------------------------------
  C     -1.166286   -0.370307   -0.020673
  O     -2.058955   -0.612733   -0.869400
  C      0.058588    0.409029   -0.297679
  C      1.205740    0.111918    0.229554
  H     -1.228287   -0.634958    1.040863
  H     -0.086976    1.043732   -1.094317
  H      1.263079   -0.470010    0.962022
  H      2.022757    0.611878    0.049866

 Total Charge           Charge          ....    0
 Multiplicity           Mult            ....    1
 Number of Electrons    NEL             ....   30
 Basis Dimension        Dim             ....   76

ORBITAL ENERGIES
----------------

  NO   OCC          E(Eh)            E(eV)
   0   2.0000     -19.143012      -520.9078
   1   2.0000     -10.278122      -279.6819
   2   2.0000     -10.198597      -277.5179
   3   2.0000     -10.188055      -277.2311
   4   2.0000      -1.023525       -27.8515
   5   2.0000      -0.821513       -22.3545
   6   2.0000      -0.671948       -18.2846
   7   2.0000      -0.586365       -15.9558
   8   2.0000      -0.493985       -13.4420
   9   2.0000      -0.484705       -13.1895
  10   2.0000      -0.429278       -11.6813
  11   2.0000      -0.400763       -10.9053
  12   2.0000      -0.376225       -10.2376
  13   2.0000      -0.299183        -8.1412
  14   2.0000      -0.256764        -6.9869
  15   0.0000      -0.066490        -1.8093
  16   0.0000       0.032392         0.8814
  17   0.0000       0.086390         2.3508
  18   0.0000       0.098707         2.6860
  19   0.0000       0.132206         3.5975

MULLIKEN ATOMIC CHARGES
-----------------------
   0 C :    0.177259
   1 O :   -0.225936
   2 C :   -0.087993
   3 C :    0.246173
   4 H :   -0.012847
   5 H :   -0.026554
   6 H :   -0.055076
   7 H :   -0.015025
Sum of atomic charges:    0.0000000

LOEWDIN ATOMIC CHARGES
----------------------
   0 C :    0.005194
   1 O :   -0.037846
   2 C :   -0.028443
   3 C :    0.047839
   4 H :   -0.005297
   5 H :    0.018977
   6 H :   -0.010646
   7 H :    0.010222

  Mayer bond orders larger than 0.100000
B(  0-C ,  1-O ) :   2.1345 B(  0-C ,  2-C ) :   1.0699 B(  0-C ,  4-H ) :   0.9187
B(  2-C ,  3-C ) :   1.9854 B(  2-C ,  5-H ) :   0.9489 B(  3-C ,  6-H ) :   0.9237
B(  3-C ,  7-H ) :   0.9338

-----------------------------------------------------------------------------
         ABSORPTION SPECTRUM VIA TRANSITION ELECTRIC DIPOLE MOMENTS
-----------------------------------------------------------------------------
State   Energy    Wavelength  fosc         T2        TX        TY        TZ
        (cm-1)      (nm)                 (au**2)    (au)      (au)      (au)
-----------------------------------------------------------------------------
   1   28247.7    354.0   0.000542306   0.00632  -0.07902  -0.00801   0.00357

FINAL SINGLE POINT ENERGY      -191.634044176029

DIPOLE MOMENT
-------------
                                X             Y             Z
Electronic contribution:     -2.84373      -0.69553      -1.21788
Nuclear contribution   :      3.81933       1.00742       1.82779
                        -----------------------------------------
Total Dipole Moment    :      0.97559       0.31189       0.60991
                        -----------------------------------------
Magnitude (a.u.)       :      1.19208
Magnitude (Debye)      :      3.03002

Rotational constants in cm-1:     1.527593     0.155377     0.145815
Rotational constants in MHz : 45796.100300  4658.081256  4371.413468

                             ****ORCA TERMINATED NORMALLY****
TOTAL RUN TIME: 0 days 0 hours 3 minutes 11 seconds 525 msec
