                         Program Version 5.0.3 -  RELEASE  -
|  1> ! HF-3c
|  2> !TightSCF
|  3> %scf
|  4>  ConvForced true
|  5>  convergence tight
|  6>  MaxIter 500
|  7> end
|  8>
|  9> %tddft
| 10>  nroots 1
| 11> end
| 12>
| 13> # 	31495
| 14> * xyz 0 1
| 15> 		C   -0.637129  -0.453873   0.020299
| 16> 		O   -0.564178  -1.611323  -0.018216
| 17> 		C    0.630676   0.427729   0.010135
| 18> 		C    1.850206  -0.113723  -0.026252
| 19> 		H   -1.544612   0.142079   0.051174
| 20> 		H    0.404513   1.208839  -0.113015
| 21> 		H    2.057952  -1.215993   0.276268
| 22> 		H    2.961716   0.363150   0.015815
| 23> *
| 24>
| 25>                          ****END OF INPUT****

CARTESIAN COORDINATES (ANGSTROEM)
---------------------------------
  C     -0.637129   -0.453873    0.020299
  O     -0.564178   -1.611323   -0.018216
  C      0.630676    0.427729    0.010135
  C      1.850206   -0.113723   -0.026252
  H     -1.544612    0.142079    0.051174
  H      0.404513    1.208839   -0.113015
  H      2.057952   -1.215993    0.276268
  H      2.961716    0.363150    0.015815

 Total Charge           Charge          ....    0
 Multiplicity           Mult            ....    1
 Number of Electrons    NEL             ....   30
 Basis Dimension        Dim             ....   24

ORBITAL ENERGIES
----------------

  NO   OCC          E(Eh)            E(eV)
   0   2.0000     -20.385450      -554.7163
   1   2.0000     -11.311197      -307.7933
   2   2.0000     -11.196982      -304.6854
   3   2.0000     -11.188234      -304.4473
   4   2.0000      -1.442842       -39.2617
   5   2.0000      -1.078667       -29.3520
   6   2.0000      -0.889834       -24.2136
   7   2.0000      -0.780925       -21.2501
   8   2.0000      -0.712392       -19.3852
   9   2.0000      -0.630861       -17.1666
  10   2.0000      -0.609459       -16.5842
  11   2.0000      -0.562824       -15.3152
  12   2.0000      -0.514327       -13.9955
  13   2.0000      -0.404870       -11.0171
  14   2.0000      -0.400114       -10.8877
  15   0.0000       0.144441         3.9304
  16   0.0000       0.297604         8.0982
  17   0.0000       0.453300        12.3349
  18   0.0000       0.589766        16.0483
  19   0.0000       0.672048        18.2874

MULLIKEN ATOMIC CHARGES
-----------------------
   0 C :    0.201905
   1 O :   -0.360781
   2 C :   -0.245120
   3 C :   -0.164632
   4 H :    0.139324
   5 H :    0.127926
   6 H :    0.151182
   7 H :    0.150196
Sum of atomic charges:    0.0000000

LOEWDIN ATOMIC CHARGES
----------------------
   0 C :    0.167659
   1 O :   -0.246655
   2 C :   -0.189612
   3 C :   -0.075503
   4 H :    0.071935
   5 H :    0.062123
   6 H :    0.103125
   7 H :    0.106929

  Mayer bond orders larger than 0.100000
B(  0-C ,  1-O ) :   1.9368 B(  0-C ,  2-C ) :   0.9777 B(  0-C ,  4-H ) :   0.9185
B(  2-C ,  3-C ) :   1.9561 B(  2-C ,  5-H ) :   0.9714 B(  3-C ,  6-H ) :   0.9582
B(  3-C ,  7-H ) :   0.9583

-----------------------------------------------------------------------------
         ABSORPTION SPECTRUM VIA TRANSITION ELECTRIC DIPOLE MOMENTS
-----------------------------------------------------------------------------
State   Energy    Wavelength  fosc         T2        TX        TY        TZ
        (cm-1)      (nm)                 (au**2)    (au)      (au)      (au)
-----------------------------------------------------------------------------
   1   35998.2    277.8   0.000074100   0.00068   0.02489   0.00134   0.00752

Dispersion correction           -0.025661496
FINAL SINGLE POINT ENERGY      -189.209352062128

DIPOLE MOMENT
-------------
                                X             Y             Z
Electronic contribution:     -2.09821      -1.57199      -0.14943
Nuclear contribution   :      2.48699       2.25499       0.21635
                        -----------------------------------------
Total Dipole Moment    :      0.38878       0.68300       0.06693
                        -----------------------------------------
Magnitude (a.u.)       :      0.78874
Magnitude (Debye)      :      2.00483

Rotational constants in cm-1:     0.773510     0.207294     0.163839
Rotational constants in MHz : 23189.255917  6214.510494  4911.781551

                             ****ORCA TERMINATED NORMALLY****
TOTAL RUN TIME: 0 days 0 hours 0 minutes 11 seconds 270 msec
