                         Program Version 5.0.3 -  RELEASE  -
|  1> ! B3LYP cc-pVDZ
|  2> !TightSCF
|  3> %scf
|  4>  ConvForced true
|  5>  convergence tight
|  6>  MaxIter 500
|  7> end
|  8>
|  9> %tddft
| 10>  nroots 1
| 11> end
| 12>
| 13> # 	27319
| 14> * xyz 0 1
| 15> 		C   -0.544691  -0.413466   0.073394
| 16> 		O   -0.567916  -1.663073  -0.053082
| 17> 		C    0.617332   0.484687  -0.135674
| 18> 		C    1.782164  -0.166804   0.063278
| 19> 		H   -1.442173   0.056134   0.493826
| 20> 		H    0.537376   1.560435   0.110786
| 21> 		H    1.936407  -1.197650   0.368198
| 22> 		H    2.869570   0.369324  -0.159819
| 23> *
| 24>
| 25>                          ****END OF INPUT****

CARTESIAN COORDINATES (ANGSTROEM)
---------------------------------
  C     -0.544691   -0.413466    0.073394
  O     -0.567916   -1.663073   -0.053082
  C      0.617332    0.484687   -0.135674
  C      1.782164   -0.166804    0.063278
  H     -1.442173    0.056134    0.493826
  H      0.537376    1.560435    0.110786
  H      1.936407   -1.197650    0.368198
  H      2.869570    0.369324   -0.159819

 Total Charge           Charge          ....    0
 Multiplicity           Mult            ....    1
 Number of Electrons    NEL             ....   30
 Basis Dimension        Dim             ....   76

ORBITAL ENERGIES
----------------

  NO   OCC          E(Eh)            E(eV)
   0   2.0000     -19.135080      -520.6920
   1   2.0000     -10.274767      -279.5906
   2   2.0000     -10.233865      -278.4776
   3   2.0000     -10.214671      -277.9553
   4   2.0000      -1.018773       -27.7222
   5   2.0000      -0.799368       -21.7519
   6   2.0000      -0.649378       -17.6705
   7   2.0000      -0.548663       -14.9299
   8   2.0000      -0.499045       -13.5797
   9   2.0000      -0.447496       -12.1770
  10   2.0000      -0.413410       -11.2494
  11   2.0000      -0.393476       -10.7070
  12   2.0000      -0.360758        -9.8167
  13   2.0000      -0.285341        -7.7645
  14   2.0000      -0.252340        -6.8665
  15   0.0000      -0.077593        -2.1114
  16   0.0000       0.030653         0.8341
  17   0.0000       0.057602         1.5674
  18   0.0000       0.084041         2.2869
  19   0.0000       0.122051         3.3212

MULLIKEN ATOMIC CHARGES
-----------------------
   0 C :    0.192587
   1 O :   -0.234689
   2 C :   -0.081921
   3 C :    0.005262
   4 H :   -0.016949
   5 H :    0.030986
   6 H :    0.055274
   7 H :    0.049450
Sum of atomic charges:   -0.0000000

LOEWDIN ATOMIC CHARGES
----------------------
   0 C :   -0.005104
   1 O :   -0.053632
   2 C :   -0.094324
   3 C :    0.037687
   4 H :   -0.006120
   5 H :    0.044514
   6 H :    0.030493
   7 H :    0.046487

  Mayer bond orders larger than 0.100000
B(  0-C ,  1-O ) :   2.1255 B(  0-C ,  2-C ) :   1.0628 B(  0-C ,  4-H ) :   0.9284
B(  2-C ,  3-C ) :   1.9007 B(  2-C ,  5-H ) :   0.9346 B(  3-C ,  6-H ) :   0.9520
B(  3-C ,  7-H ) :   0.9492

-----------------------------------------------------------------------------
         ABSORPTION SPECTRUM VIA TRANSITION ELECTRIC DIPOLE MOMENTS
-----------------------------------------------------------------------------
State   Energy    Wavelength  fosc         T2        TX        TY        TZ
        (cm-1)      (nm)                 (au**2)    (au)      (au)      (au)
-----------------------------------------------------------------------------
   1   25893.1    386.2   0.000695968   0.00885  -0.08184  -0.03720  -0.02770

FINAL SINGLE POINT ENERGY      -191.660972089408

DIPOLE MOMENT
-------------
                                X             Y             Z
Electronic contribution:     -2.02187      -1.58754      -0.53026
Nuclear contribution   :      2.50084       2.52669       0.76314
                        -----------------------------------------
Total Dipole Moment    :      0.47897       0.93916       0.23288
                        -----------------------------------------
Magnitude (a.u.)       :      1.07966
Magnitude (Debye)      :      2.74427

Rotational constants in cm-1:     0.704521     0.213681     0.166541
Rotational constants in MHz : 21121.015963  6406.002161  4992.777911

                             ****ORCA TERMINATED NORMALLY****
TOTAL RUN TIME: 0 days 0 hours 3 minutes 27 seconds 908 msec
