                         Program Version 5.0.3 -  RELEASE  -
|  1> ! HF-3c
|  2> !TightSCF
|  3> %scf
|  4>  ConvForced true
|  5>  convergence tight
|  6>  MaxIter 500
|  7> end
|  8>
|  9> %tddft
| 10>  nroots 1
| 11> end
| 12>
| 13> # 	27878
| 14> * xyz 0 1
| 15> 		C   -0.573955  -0.442936  -0.002031
| 16> 		O   -0.583139  -1.648980  -0.013124
| 17> 		C    0.652618   0.426410   0.026214
| 18> 		C    1.822916  -0.114869   0.006766
| 19> 		H   -1.627772   0.148087   0.012622
| 20> 		H    0.565898   1.519518  -0.083156
| 21> 		H    1.841691  -1.189956   0.190562
| 22> 		H    2.798182   0.502313  -0.303446
| 23> *
| 24>
| 25>                          ****END OF INPUT****

CARTESIAN COORDINATES (ANGSTROEM)
---------------------------------
  C     -0.573955   -0.442936   -0.002031
  O     -0.583139   -1.648980   -0.013124
  C      0.652618    0.426410    0.026214
  C      1.822916   -0.114869    0.006766
  H     -1.627772    0.148087    0.012622
  H      0.565898    1.519518   -0.083156
  H      1.841691   -1.189956    0.190562
  H      2.798182    0.502313   -0.303446

 Total Charge           Charge          ....    0
 Multiplicity           Mult            ....    1
 Number of Electrons    NEL             ....   30
 Basis Dimension        Dim             ....   24

ORBITAL ENERGIES
----------------

  NO   OCC          E(Eh)            E(eV)
   0   2.0000     -20.362717      -554.0977
   1   2.0000     -11.293823      -307.3205
   2   2.0000     -11.187531      -304.4282
   3   2.0000     -11.183118      -304.3081
   4   2.0000      -1.402003       -38.1504
   5   2.0000      -1.086641       -29.5690
   6   2.0000      -0.865369       -23.5479
   7   2.0000      -0.727509       -19.7965
   8   2.0000      -0.694777       -18.9058
   9   2.0000      -0.606337       -16.4993
  10   2.0000      -0.582893       -15.8613
  11   2.0000      -0.540809       -14.7162
  12   2.0000      -0.519649       -14.1404
  13   2.0000      -0.407016       -11.0755
  14   2.0000      -0.396188       -10.7808
  15   0.0000       0.144232         3.9247
  16   0.0000       0.316358         8.6085
  17   0.0000       0.490310        13.3420
  18   0.0000       0.568331        15.4651
  19   0.0000       0.605146        16.4669

MULLIKEN ATOMIC CHARGES
-----------------------
   0 C :    0.186467
   1 O :   -0.365393
   2 C :   -0.193260
   3 C :   -0.211844
   4 H :    0.129591
   5 H :    0.142402
   6 H :    0.158293
   7 H :    0.153745
Sum of atomic charges:   -0.0000000

LOEWDIN ATOMIC CHARGES
----------------------
   0 C :    0.156756
   1 O :   -0.268307
   2 C :   -0.150248
   3 C :   -0.119068
   4 H :    0.074707
   5 H :    0.091902
   6 H :    0.104006
   7 H :    0.110252

  Mayer bond orders larger than 0.100000
B(  0-C ,  1-O ) :   1.9187 B(  0-C ,  2-C ) :   1.0051 B(  0-C ,  4-H ) :   0.9133
B(  2-C ,  3-C ) :   1.9603 B(  2-C ,  5-H ) :   0.9568 B(  3-C ,  6-H ) :   0.9543
B(  3-C ,  7-H ) :   0.9571

-----------------------------------------------------------------------------
         ABSORPTION SPECTRUM VIA TRANSITION ELECTRIC DIPOLE MOMENTS
-----------------------------------------------------------------------------
State   Energy    Wavelength  fosc         T2        TX        TY        TZ
        (cm-1)      (nm)                 (au**2)    (au)      (au)      (au)
-----------------------------------------------------------------------------
   1   33926.8    294.8   0.000127808   0.00124  -0.02934   0.00049   0.01946

Dispersion correction           -0.025696161
FINAL SINGLE POINT ENERGY      -189.321013957807

DIPOLE MOMENT
-------------
                                X             Y             Z
Electronic contribution:     -1.84902      -1.74253       0.11909
Nuclear contribution   :      2.19792       2.70753      -0.17072
                        -----------------------------------------
Total Dipole Moment    :      0.34890       0.96500      -0.05163
                        -----------------------------------------
Magnitude (a.u.)       :      1.02744
Magnitude (Debye)      :      2.61154

Rotational constants in cm-1:     0.779403     0.207022     0.164046
Rotational constants in MHz : 23365.908435  6206.375875  4917.966692

                             ****ORCA TERMINATED NORMALLY****
TOTAL RUN TIME: 0 days 0 hours 0 minutes 13 seconds 180 msec
