                         Program Version 5.0.3 -  RELEASE  -
|  1> ! B3LYP cc-pVDZ
|  2> !TightSCF
|  3> %scf
|  4>  ConvForced true
|  5>  convergence tight
|  6>  MaxIter 500
|  7> end
|  8>
|  9> %tddft
| 10>  nroots 1
| 11> end
| 12>
| 13> # 	24485
| 14> * xyz 0 1
| 15> 		C   -0.592586  -0.423886   0.039350
| 16> 		O   -0.548277  -1.638769  -0.020578
| 17> 		C    0.597159   0.466427  -0.055833
| 18> 		C    1.857474  -0.169308  -0.002129
| 19> 		H   -1.698635   0.071481   0.189879
| 20> 		H    0.456139   1.551569   0.013273
| 21> 		H    1.954352  -1.266156   0.171900
| 22> 		H    2.757489   0.424433   0.177677
| 23> *
| 24>
| 25>                          ****END OF INPUT****

CARTESIAN COORDINATES (ANGSTROEM)
---------------------------------
  C     -0.592586   -0.423886    0.039350
  O     -0.548277   -1.638769   -0.020578
  C      0.597159    0.466427   -0.055833
  C      1.857474   -0.169308   -0.002129
  H     -1.698635    0.071481    0.189879
  H      0.456139    1.551569    0.013273
  H      1.954352   -1.266156    0.171900
  H      2.757489    0.424433    0.177677

 Total Charge           Charge          ....    0
 Multiplicity           Mult            ....    1
 Number of Electrons    NEL             ....   30
 Basis Dimension        Dim             ....   76

ORBITAL ENERGIES
----------------

  NO   OCC          E(Eh)            E(eV)
   0   2.0000     -19.137088      -520.7466
   1   2.0000     -10.282966      -279.8137
   2   2.0000     -10.228102      -278.3208
   3   2.0000     -10.220500      -278.1139
   4   2.0000      -1.041824       -28.3495
   5   2.0000      -0.781647       -21.2697
   6   2.0000      -0.648968       -17.6593
   7   2.0000      -0.534793       -14.5525
   8   2.0000      -0.499631       -13.5956
   9   2.0000      -0.443660       -12.0726
  10   2.0000      -0.412680       -11.2296
  11   2.0000      -0.395387       -10.7590
  12   2.0000      -0.389078       -10.5874
  13   2.0000      -0.280148        -7.6232
  14   2.0000      -0.253622        -6.9014
  15   0.0000      -0.078972        -2.1489
  16   0.0000       0.046938         1.2772
  17   0.0000       0.064429         1.7532
  18   0.0000       0.085995         2.3400
  19   0.0000       0.108530         2.9532

MULLIKEN ATOMIC CHARGES
-----------------------
   0 C :    0.149049
   1 O :   -0.194668
   2 C :   -0.097793
   3 C :    0.041053
   4 H :   -0.010019
   5 H :    0.009059
   6 H :    0.061688
   7 H :    0.041631
Sum of atomic charges:   -0.0000000

LOEWDIN ATOMIC CHARGES
----------------------
   0 C :   -0.043831
   1 O :   -0.017172
   2 C :   -0.074711
   3 C :    0.036326
   4 H :   -0.000544
   5 H :    0.029697
   6 H :    0.040590
   7 H :    0.029644

  Mayer bond orders larger than 0.100000
B(  0-C ,  1-O ) :   2.1679 B(  0-C ,  2-C ) :   1.0412 B(  0-C ,  4-H ) :   0.9007
B(  2-C ,  3-C ) :   1.9114 B(  2-C ,  5-H ) :   0.9505 B(  3-C ,  6-H ) :   0.9431
B(  3-C ,  7-H ) :   0.9514

-----------------------------------------------------------------------------
         ABSORPTION SPECTRUM VIA TRANSITION ELECTRIC DIPOLE MOMENTS
-----------------------------------------------------------------------------
State   Energy    Wavelength  fosc         T2        TX        TY        TZ
        (cm-1)      (nm)                 (au**2)    (au)      (au)      (au)
-----------------------------------------------------------------------------
   1   26220.8    381.4   0.000182031   0.00229   0.03685   0.01301   0.02754

FINAL SINGLE POINT ENERGY      -191.676616816348

DIPOLE MOMENT
-------------
                                X             Y             Z
Electronic contribution:     -1.62861      -1.65002      -0.38315
Nuclear contribution   :      2.09829       2.52007       0.51796
                        -----------------------------------------
Total Dipole Moment    :      0.46967       0.87006       0.13481
                        -----------------------------------------
Magnitude (a.u.)       :      0.99788
Magnitude (Debye)      :      2.53641

Rotational constants in cm-1:     0.688011     0.212456     0.162834
Rotational constants in MHz : 20626.041301  6369.280972  4881.633612

                             ****ORCA TERMINATED NORMALLY****
TOTAL RUN TIME: 0 days 0 hours 3 minutes 23 seconds 466 msec
