                         Program Version 5.0.3 -  RELEASE  -
|  1> ! HF-3c
|  2> !TightSCF
|  3> %scf
|  4>  ConvForced true
|  5>  convergence tight
|  6>  MaxIter 500
|  7> end
|  8>
|  9> %tddft
| 10>  nroots 1
| 11> end
| 12>
| 13> # 	24561
| 14> * xyz 0 1
| 15> 		C   -0.622054  -0.436625  -0.070896
| 16> 		O   -0.568220  -1.619910   0.036459
| 17> 		C    0.618308   0.393618   0.017345
| 18> 		C    1.864755  -0.104629  -0.017089
| 19> 		H   -1.591147   0.160056   0.053443
| 20> 		H    0.517772   1.358241   0.217448
| 21> 		H    2.023688  -1.200149  -0.082025
| 22> 		H    2.817856   0.411014   0.089562
| 23> *
| 24>
| 25>                          ****END OF INPUT****

CARTESIAN COORDINATES (ANGSTROEM)
---------------------------------
  C     -0.622054   -0.436625   -0.070896
  O     -0.568220   -1.619910    0.036459
  C      0.618308    0.393618    0.017345
  C      1.864755   -0.104629   -0.017089
  H     -1.591147    0.160056    0.053443
  H      0.517772    1.358241    0.217448
  H      2.023688   -1.200149   -0.082025
  H      2.817856    0.411014    0.089562

 Total Charge           Charge          ....    0
 Multiplicity           Mult            ....    1
 Number of Electrons    NEL             ....   30
 Basis Dimension        Dim             ....   24

ORBITAL ENERGIES
----------------

  NO   OCC          E(Eh)            E(eV)
   0   2.0000     -20.374319      -554.4134
   1   2.0000     -11.303808      -307.5923
   2   2.0000     -11.190550      -304.5103
   3   2.0000     -11.184341      -304.3414
   4   2.0000      -1.420197       -38.6455
   5   2.0000      -1.073307       -29.2062
   6   2.0000      -0.887677       -24.1549
   7   2.0000      -0.756789       -20.5933
   8   2.0000      -0.709271       -19.3002
   9   2.0000      -0.620737       -16.8911
  10   2.0000      -0.600422       -16.3383
  11   2.0000      -0.550800       -14.9880
  12   2.0000      -0.529820       -14.4171
  13   2.0000      -0.414016       -11.2659
  14   2.0000      -0.391514       -10.6536
  15   0.0000       0.134162         3.6507
  16   0.0000       0.301274         8.1981
  17   0.0000       0.523939        14.2571
  18   0.0000       0.645075        17.5534
  19   0.0000       0.668614        18.1939

MULLIKEN ATOMIC CHARGES
-----------------------
   0 C :    0.179888
   1 O :   -0.354371
   2 C :   -0.197667
   3 C :   -0.203711
   4 H :    0.139694
   5 H :    0.137809
   6 H :    0.151678
   7 H :    0.146679
Sum of atomic charges:   -0.0000000

LOEWDIN ATOMIC CHARGES
----------------------
   0 C :    0.152353
   1 O :   -0.251713
   2 C :   -0.149525
   3 C :   -0.104713
   4 H :    0.078468
   5 H :    0.079828
   6 H :    0.099798
   7 H :    0.095504

  Mayer bond orders larger than 0.100000
B(  0-C ,  1-O ) :   1.9176 B(  0-C ,  2-C ) :   1.0119 B(  0-C ,  4-H ) :   0.9169
B(  2-C ,  3-C ) :   1.9496 B(  2-C ,  5-H ) :   0.9645 B(  3-C ,  6-H ) :   0.9611
B(  3-C ,  7-H ) :   0.9656

-----------------------------------------------------------------------------
         ABSORPTION SPECTRUM VIA TRANSITION ELECTRIC DIPOLE MOMENTS
-----------------------------------------------------------------------------
State   Energy    Wavelength  fosc         T2        TX        TY        TZ
        (cm-1)      (nm)                 (au**2)    (au)      (au)      (au)
-----------------------------------------------------------------------------
   1   33443.2    299.0   0.000044061   0.00043   0.01894  -0.00820  -0.00281

Dispersion correction           -0.025621824
FINAL SINGLE POINT ENERGY      -189.327702961250

DIPOLE MOMENT
-------------
                                X             Y             Z
Electronic contribution:     -2.09474      -1.63668      -0.25384
Nuclear contribution   :      2.38038       2.47151       0.26071
                        -----------------------------------------
Total Dipole Moment    :      0.28564       0.83484       0.00687
                        -----------------------------------------
Magnitude (a.u.)       :      0.88237
Magnitude (Debye)      :      2.24282

Rotational constants in cm-1:     0.774049     0.207410     0.164069
Rotational constants in MHz : 23205.398390  6218.006414  4918.669415

                             ****ORCA TERMINATED NORMALLY****
TOTAL RUN TIME: 0 days 0 hours 0 minutes 6 seconds 585 msec
