                         Program Version 5.0.3 -  RELEASE  -
|  1> ! B3LYP cc-pVDZ
|  2> !TightSCF
|  3> %scf
|  4>  ConvForced true
|  5>  convergence tight
|  6>  MaxIter 500
|  7> end
|  8>
|  9> %tddft
| 10>  nroots 1
| 11> end
| 12>
| 13> # 	19071
| 14> * xyz 0 1
| 15> 		C   -1.209478  -0.300090   0.066790
| 16> 		O   -1.696141  -1.203512   0.741267
| 17> 		C    0.005062   0.406284   0.403352
| 18> 		C    1.162255   0.042913  -0.164205
| 19> 		H   -1.595418  -0.141174  -1.069994
| 20> 		H   -0.131915   1.394564   0.913458
| 21> 		H    1.350182  -0.756904  -0.792169
| 22> 		H    2.098235   0.593407  -0.099838
| 23> *
| 24>
| 25>                          ****END OF INPUT****

CARTESIAN COORDINATES (ANGSTROEM)
---------------------------------
  C     -1.209478   -0.300090    0.066790
  O     -1.696141   -1.203512    0.741267
  C      0.005062    0.406284    0.403352
  C      1.162255    0.042913   -0.164205
  H     -1.595418   -0.141174   -1.069994
  H     -0.131915    1.394564    0.913458
  H      1.350182   -0.756904   -0.792169
  H      2.098235    0.593407   -0.099838

 Total Charge           Charge          ....    0
 Multiplicity           Mult            ....    1
 Number of Electrons    NEL             ....   30
 Basis Dimension        Dim             ....   76

ORBITAL ENERGIES
----------------

  NO   OCC          E(Eh)            E(eV)
   0   2.0000     -19.147307      -521.0247
   1   2.0000     -10.288231      -279.9570
   2   2.0000     -10.214502      -277.9507
   3   2.0000     -10.204741      -277.6851
   4   2.0000      -1.043461       -28.3940
   5   2.0000      -0.803382       -21.8611
   6   2.0000      -0.658704       -17.9242
   7   2.0000      -0.554999       -15.1023
   8   2.0000      -0.483691       -13.1619
   9   2.0000      -0.474751       -12.9186
  10   2.0000      -0.442719       -12.0470
  11   2.0000      -0.386876       -10.5274
  12   2.0000      -0.370283       -10.0759
  13   2.0000      -0.286789        -7.8039
  14   2.0000      -0.256811        -6.9882
  15   0.0000      -0.044794        -1.2189
  16   0.0000      -0.016232        -0.4417
  17   0.0000       0.079119         2.1529
  18   0.0000       0.088941         2.4202
  19   0.0000       0.098452         2.6790

MULLIKEN ATOMIC CHARGES
-----------------------
   0 C :    0.135733
   1 O :   -0.187988
   2 C :   -0.058489
   3 C :    0.045253
   4 H :    0.002923
   5 H :    0.032320
   6 H :    0.004509
   7 H :    0.025739
Sum of atomic charges:   -0.0000000

LOEWDIN ATOMIC CHARGES
----------------------
   0 C :   -0.025299
   1 O :   -0.004169
   2 C :   -0.058811
   3 C :   -0.010598
   4 H :    0.004543
   5 H :    0.048183
   6 H :    0.014216
   7 H :    0.031935

  Mayer bond orders larger than 0.100000
B(  0-C ,  1-O ) :   2.2062 B(  0-C ,  2-C ) :   0.9967 B(  0-C ,  4-H ) :   0.8972
B(  2-C ,  3-C ) :   2.0243 B(  2-C ,  5-H ) :   0.9279 B(  3-C ,  6-H ) :   0.9580
B(  3-C ,  7-H ) :   0.9534

-----------------------------------------------------------------------------
         ABSORPTION SPECTRUM VIA TRANSITION ELECTRIC DIPOLE MOMENTS
-----------------------------------------------------------------------------
State   Energy    Wavelength  fosc         T2        TX        TY        TZ
        (cm-1)      (nm)                 (au**2)    (au)      (au)      (au)
-----------------------------------------------------------------------------
   1   31774.4    314.7   0.000720973   0.00747   0.02331   0.00322   0.08316

FINAL SINGLE POINT ENERGY      -191.637060695224

DIPOLE MOMENT
-------------
                                X             Y             Z
Electronic contribution:     -2.72851      -1.38852       1.47501
Nuclear contribution   :      3.33062       2.10447      -1.94562
                        -----------------------------------------
Total Dipole Moment    :      0.60211       0.71595      -0.47061
                        -----------------------------------------
Magnitude (a.u.)       :      1.04719
Magnitude (Debye)      :      2.66174

Rotational constants in cm-1:     0.999993     0.167858     0.160599
Rotational constants in MHz : 29979.041846  5032.257645  4814.639438

                             ****ORCA TERMINATED NORMALLY****
TOTAL RUN TIME: 0 days 0 hours 3 minutes 12 seconds 585 msec
