                         Program Version 5.0.3 -  RELEASE  -
|  1> ! HF-3c
|  2> !TightSCF
|  3> %scf
|  4>  ConvForced true
|  5>  convergence tight
|  6>  MaxIter 500
|  7> end
|  8>
|  9> %tddft
| 10>  nroots 1
| 11> end
| 12>
| 13> # 	2477
| 14> * xyz 0 1
| 15> 		C   -1.155099  -0.500037  -0.022508
| 16> 		O   -2.111042  -0.710207  -0.710245
| 17> 		C    0.042739   0.331775  -0.426405
| 18> 		C    1.156654   0.137155   0.220352
| 19> 		H   -1.195477  -0.709426   0.986245
| 20> 		H   -0.214554   1.193850  -1.042691
| 21> 		H    1.442965  -0.616873   0.820576
| 22> 		H    1.991373   0.821938   0.078723
| 23> *
| 24>
| 25>                          ****END OF INPUT****

CARTESIAN COORDINATES (ANGSTROEM)
---------------------------------
  C     -1.155099   -0.500037   -0.022508
  O     -2.111042   -0.710207   -0.710245
  C      0.042739    0.331775   -0.426405
  C      1.156654    0.137155    0.220352
  H     -1.195477   -0.709426    0.986245
  H     -0.214554    1.193850   -1.042691
  H      1.442965   -0.616873    0.820576
  H      1.991373    0.821938    0.078723

 Total Charge           Charge          ....    0
 Multiplicity           Mult            ....    1
 Number of Electrons    NEL             ....   30
 Basis Dimension        Dim             ....   24

ORBITAL ENERGIES
----------------

  NO   OCC          E(Eh)            E(eV)
   0   2.0000     -20.380313      -554.5765
   1   2.0000     -11.302424      -307.5546
   2   2.0000     -11.201009      -304.7950
   3   2.0000     -11.192970      -304.5762
   4   2.0000      -1.418494       -38.5992
   5   2.0000      -1.097681       -29.8694
   6   2.0000      -0.890512       -24.2321
   7   2.0000      -0.799807       -21.7638
   8   2.0000      -0.689188       -18.7538
   9   2.0000      -0.657024       -17.8785
  10   2.0000      -0.607043       -16.5185
  11   2.0000      -0.553815       -15.0701
  12   2.0000      -0.533501       -14.5173
  13   2.0000      -0.416947       -11.3457
  14   2.0000      -0.411643       -11.2014
  15   0.0000       0.146230         3.9791
  16   0.0000       0.274751         7.4764
  17   0.0000       0.538807        14.6617
  18   0.0000       0.631615        17.1871
  19   0.0000       0.727801        19.8045

MULLIKEN ATOMIC CHARGES
-----------------------
   0 C :    0.163485
   1 O :   -0.342563
   2 C :   -0.157481
   3 C :   -0.253940
   4 H :    0.139500
   5 H :    0.161963
   6 H :    0.144492
   7 H :    0.144544
Sum of atomic charges:    0.0000000

LOEWDIN ATOMIC CHARGES
----------------------
   0 C :    0.145635
   1 O :   -0.241466
   2 C :   -0.109552
   3 C :   -0.151139
   4 H :    0.068576
   5 H :    0.106636
   6 H :    0.087322
   7 H :    0.093988

  Mayer bond orders larger than 0.100000
B(  0-C ,  1-O ) :   1.9316 B(  0-C ,  2-C ) :   0.9913 B(  0-C ,  4-H ) :   0.9301
B(  2-C ,  3-C ) :   1.9825 B(  2-C ,  5-H ) :   0.9513 B(  3-C ,  6-H ) :   0.9662
B(  3-C ,  7-H ) :   0.9616

-----------------------------------------------------------------------------
         ABSORPTION SPECTRUM VIA TRANSITION ELECTRIC DIPOLE MOMENTS
-----------------------------------------------------------------------------
State   Energy    Wavelength  fosc         T2        TX        TY        TZ
        (cm-1)      (nm)                 (au**2)    (au)      (au)      (au)
-----------------------------------------------------------------------------
   1   33340.6    299.9   0.000031217   0.00031  -0.00580  -0.01427   0.00843

Dispersion correction           -0.025634571
FINAL SINGLE POINT ENERGY      -189.323650542378

DIPOLE MOMENT
-------------
                                X             Y             Z
Electronic contribution:     -3.09838      -1.06101      -1.12756
Nuclear contribution   :      3.96471       1.37833       1.67123
                        -----------------------------------------
Total Dipole Moment    :      0.86633       0.31732       0.54368
                        -----------------------------------------
Magnitude (a.u.)       :      1.07089
Magnitude (Debye)      :      2.72199

Rotational constants in cm-1:     1.543150     0.156427     0.144792
Rotational constants in MHz : 46262.476011  4689.578032  4340.766163

                             ****ORCA TERMINATED NORMALLY****
TOTAL RUN TIME: 0 days 0 hours 0 minutes 11 seconds 426 msec
