                         Program Version 5.0.3 -  RELEASE  -
|  1> ! HF-3c
|  2> !TightSCF
|  3> %scf
|  4>  ConvForced true
|  5>  convergence tight
|  6>  MaxIter 500
|  7> end
|  8>
|  9> %tddft
| 10>  nroots 1
| 11> end
| 12>
| 13> # 	18603
| 14> * xyz 0 1
| 15> 		C   -1.126156  -0.313246   0.039793
| 16> 		O   -1.235010  -1.429110   0.364518
| 17> 		C    0.042646   0.516728   0.084300
| 18> 		C    1.220013  -0.011514  -0.061287
| 19> 		H   -2.063060   0.129377  -0.459565
| 20> 		H   -0.047829   1.580709   0.326183
| 21> 		H    1.269485  -1.081336  -0.320793
| 22> 		H    2.026151   0.501390  -0.017063
| 23> *
| 24>
| 25>                          ****END OF INPUT****

CARTESIAN COORDINATES (ANGSTROEM)
---------------------------------
  C     -1.126156   -0.313246    0.039793
  O     -1.235010   -1.429110    0.364518
  C      0.042646    0.516728    0.084300
  C      1.220013   -0.011514   -0.061287
  H     -2.063060    0.129377   -0.459565
  H     -0.047829    1.580709    0.326183
  H      1.269485   -1.081336   -0.320793
  H      2.026151    0.501390   -0.017063

 Total Charge           Charge          ....    0
 Multiplicity           Mult            ....    1
 Number of Electrons    NEL             ....   30
 Basis Dimension        Dim             ....   24

ORBITAL ENERGIES
----------------

  NO   OCC          E(Eh)            E(eV)
   0   2.0000     -20.380062      -554.5697
   1   2.0000     -11.308088      -307.7087
   2   2.0000     -11.200578      -304.7832
   3   2.0000     -11.198551      -304.7281
   4   2.0000      -1.438904       -39.1546
   5   2.0000      -1.109174       -30.1822
   6   2.0000      -0.906030       -24.6543
   7   2.0000      -0.754230       -20.5236
   8   2.0000      -0.725673       -19.7466
   9   2.0000      -0.643283       -17.5046
  10   2.0000      -0.620770       -16.8920
  11   2.0000      -0.559651       -15.2289
  12   2.0000      -0.536246       -14.5920
  13   2.0000      -0.419603       -11.4180
  14   2.0000      -0.408191       -11.1075
  15   0.0000       0.146568         3.9883
  16   0.0000       0.297390         8.0924
  17   0.0000       0.568898        15.4805
  18   0.0000       0.637755        17.3542
  19   0.0000       0.655827        17.8460

MULLIKEN ATOMIC CHARGES
-----------------------
   0 C :    0.182798
   1 O :   -0.356646
   2 C :   -0.173518
   3 C :   -0.240887
   4 H :    0.128262
   5 H :    0.154284
   6 H :    0.161538
   7 H :    0.144167
Sum of atomic charges:    0.0000000

LOEWDIN ATOMIC CHARGES
----------------------
   0 C :    0.149200
   1 O :   -0.248607
   2 C :   -0.126676
   3 C :   -0.133893
   4 H :    0.067079
   5 H :    0.101001
   6 H :    0.108565
   7 H :    0.083331

  Mayer bond orders larger than 0.100000
B(  0-C ,  1-O ) :   1.9185 B(  0-C ,  2-C ) :   1.0210 B(  0-C ,  4-H ) :   0.9140
B(  2-C ,  3-C ) :   1.9594 B(  2-C ,  5-H ) :   0.9517 B(  3-C ,  6-H ) :   0.9573
B(  3-C ,  7-H ) :   0.9679

-----------------------------------------------------------------------------
         ABSORPTION SPECTRUM VIA TRANSITION ELECTRIC DIPOLE MOMENTS
-----------------------------------------------------------------------------
State   Energy    Wavelength  fosc         T2        TX        TY        TZ
        (cm-1)      (nm)                 (au**2)    (au)      (au)      (au)
-----------------------------------------------------------------------------
   1   34921.5    286.4   0.000057186   0.00054   0.01908  -0.00486  -0.01231

Dispersion correction           -0.026338483
FINAL SINGLE POINT ENERGY      -189.305520000403

DIPOLE MOMENT
-------------
                                X             Y             Z
Electronic contribution:     -1.92915      -1.50805       0.56609
Nuclear contribution   :      2.23061       2.34412      -0.84739
                        -----------------------------------------
Total Dipole Moment    :      0.30146       0.83606      -0.28130
                        -----------------------------------------
Magnitude (a.u.)       :      0.93221
Magnitude (Debye)      :      2.36948

Rotational constants in cm-1:     0.841741     0.210907     0.172583
Rotational constants in MHz : 25234.768443  6322.843221  5173.904323

                             ****ORCA TERMINATED NORMALLY****
TOTAL RUN TIME: 0 days 0 hours 0 minutes 16 seconds 82 msec
