                         Program Version 5.0.3 -  RELEASE  -
|  1> ! HF-3c
|  2> !TightSCF
|  3> %scf
|  4>  ConvForced true
|  5>  convergence tight
|  6>  MaxIter 500
|  7> end
|  8>
|  9> %tddft
| 10>  nroots 1
| 11> end
| 12>
| 13> # 	21849
| 14> * xyz 0 1
| 15> 		C   -0.541476  -0.447389  -0.004892
| 16> 		O   -0.589646  -1.636942  -0.006181
| 17> 		C    0.579291   0.417601   0.014613
| 18> 		C    1.871206  -0.118179  -0.013322
| 19> 		H   -1.559118   0.333849   0.046583
| 20> 		H    0.493857   1.491330  -0.025639
| 21> 		H    1.968847  -1.229992   0.192382
| 22> 		H    2.660240   0.423196  -0.081279
| 23> *
| 24>
| 25>                          ****END OF INPUT****

CARTESIAN COORDINATES (ANGSTROEM)
---------------------------------
  C     -0.541476   -0.447389   -0.004892
  O     -0.589646   -1.636942   -0.006181
  C      0.579291    0.417601    0.014613
  C      1.871206   -0.118179   -0.013322
  H     -1.559118    0.333849    0.046583
  H      0.493857    1.491330   -0.025639
  H      1.968847   -1.229992    0.192382
  H      2.660240    0.423196   -0.081279

 Total Charge           Charge          ....    0
 Multiplicity           Mult            ....    1
 Number of Electrons    NEL             ....   30
 Basis Dimension        Dim             ....   24

ORBITAL ENERGIES
----------------

  NO   OCC          E(Eh)            E(eV)
   0   2.0000     -20.365909      -554.1846
   1   2.0000     -11.298382      -307.4446
   2   2.0000     -11.201708      -304.8140
   3   2.0000     -11.187819      -304.4360
   4   2.0000      -1.410971       -38.3945
   5   2.0000      -1.079223       -29.3671
   6   2.0000      -0.906389       -24.6641
   7   2.0000      -0.731103       -19.8943
   8   2.0000      -0.705299       -19.1922
   9   2.0000      -0.613923       -16.7057
  10   2.0000      -0.598457       -16.2848
  11   2.0000      -0.551862       -15.0169
  12   2.0000      -0.537346       -14.6219
  13   2.0000      -0.391719       -10.6592
  14   2.0000      -0.382133       -10.3984
  15   0.0000       0.110977         3.0198
  16   0.0000       0.318065         8.6550
  17   0.0000       0.477150        12.9839
  18   0.0000       0.606317        16.4987
  19   0.0000       0.630321        17.1519

MULLIKEN ATOMIC CHARGES
-----------------------
   0 C :    0.192654
   1 O :   -0.369537
   2 C :   -0.181416
   3 C :   -0.205912
   4 H :    0.112506
   5 H :    0.145039
   6 H :    0.166764
   7 H :    0.139903
Sum of atomic charges:   -0.0000000

LOEWDIN ATOMIC CHARGES
----------------------
   0 C :    0.154520
   1 O :   -0.268245
   2 C :   -0.141698
   3 C :   -0.095480
   4 H :    0.063878
   5 H :    0.092067
   6 H :    0.115240
   7 H :    0.079718

  Mayer bond orders larger than 0.100000
B(  0-C ,  1-O ) :   1.8914 B(  0-C ,  2-C ) :   1.0638 B(  0-C ,  4-H ) :   0.8950
B(  2-C ,  3-C ) :   1.8979 B(  2-C ,  5-H ) :   0.9620 B(  3-C ,  6-H ) :   0.9596
B(  3-C ,  7-H ) :   0.9728

-----------------------------------------------------------------------------
         ABSORPTION SPECTRUM VIA TRANSITION ELECTRIC DIPOLE MOMENTS
-----------------------------------------------------------------------------
State   Energy    Wavelength  fosc         T2        TX        TY        TZ
        (cm-1)      (nm)                 (au**2)    (au)      (au)      (au)
-----------------------------------------------------------------------------
   1   32195.2    310.6   0.000059991   0.00061   0.02272  -0.00254  -0.00954

Dispersion correction           -0.025868114
FINAL SINGLE POINT ENERGY      -189.294065067775

DIPOLE MOMENT
-------------
                                X             Y             Z
Electronic contribution:     -1.75230      -1.80332      -0.09328
Nuclear contribution   :      2.18648       2.74159       0.12440
                        -----------------------------------------
Total Dipole Moment    :      0.43418       0.93827       0.03112
                        -----------------------------------------
Magnitude (a.u.)       :      1.03432
Magnitude (Debye)      :      2.62904

Rotational constants in cm-1:     0.745366     0.211147     0.164705
Rotational constants in MHz : 22345.500311  6330.018870  4937.740015

                             ****ORCA TERMINATED NORMALLY****
TOTAL RUN TIME: 0 days 0 hours 0 minutes 10 seconds 516 msec
