                         Program Version 5.0.3 -  RELEASE  -
|  1> ! B3LYP cc-pVDZ
|  2> !TightSCF
|  3> %scf
|  4>  ConvForced true
|  5>  convergence tight
|  6>  MaxIter 500
|  7> end
|  8>
|  9> %tddft
| 10>  nroots 1
| 11> end
| 12>
| 13> # 	16869
| 14> * xyz 0 1
| 15> 		C   -1.239041  -0.324220  -0.029665
| 16> 		O   -1.569553  -1.218351  -0.803713
| 17> 		C   -0.053539   0.534973  -0.244504
| 18> 		C    1.168211   0.103954   0.298426
| 19> 		H   -1.697001  -0.098381   0.835230
| 20> 		H   -0.065729   1.491804  -0.839924
| 21> 		H    1.231864  -1.014617   0.582850
| 22> 		H    2.231752   0.529657   0.125771
| 23> *
| 24>
| 25>                          ****END OF INPUT****

CARTESIAN COORDINATES (ANGSTROEM)
---------------------------------
  C     -1.239041   -0.324220   -0.029665
  O     -1.569553   -1.218351   -0.803713
  C     -0.053539    0.534973   -0.244504
  C      1.168211    0.103954    0.298426
  H     -1.697001   -0.098381    0.835230
  H     -0.065729    1.491804   -0.839924
  H      1.231864   -1.014617    0.582850
  H      2.231752    0.529657    0.125771

 Total Charge           Charge          ....    0
 Multiplicity           Mult            ....    1
 Number of Electrons    NEL             ....   30
 Basis Dimension        Dim             ....   76

ORBITAL ENERGIES
----------------

  NO   OCC          E(Eh)            E(eV)
   0   2.0000     -19.149300      -521.0789
   1   2.0000     -10.279620      -279.7227
   2   2.0000     -10.221341      -278.1368
   3   2.0000     -10.218450      -278.0582
   4   2.0000      -1.044986       -28.4355
   5   2.0000      -0.783856       -21.3298
   6   2.0000      -0.655768       -17.8444
   7   2.0000      -0.565552       -15.3895
   8   2.0000      -0.489867       -13.3300
   9   2.0000      -0.455917       -12.4061
  10   2.0000      -0.436891       -11.8884
  11   2.0000      -0.376166       -10.2360
  12   2.0000      -0.370002       -10.0683
  13   2.0000      -0.276143        -7.5142
  14   2.0000      -0.260599        -7.0913
  15   0.0000      -0.045549        -1.2395
  16   0.0000      -0.027937        -0.7602
  17   0.0000       0.080004         2.1770
  18   0.0000       0.088259         2.4017
  19   0.0000       0.108848         2.9619

MULLIKEN ATOMIC CHARGES
-----------------------
   0 C :    0.245634
   1 O :   -0.196531
   2 C :   -0.100745
   3 C :   -0.072669
   4 H :   -0.016914
   5 H :    0.039579
   6 H :    0.046652
   7 H :    0.054996
Sum of atomic charges:   -0.0000000

LOEWDIN ATOMIC CHARGES
----------------------
   0 C :    0.003583
   1 O :    0.002542
   2 C :   -0.052953
   3 C :   -0.058109
   4 H :   -0.016886
   5 H :    0.044363
   6 H :    0.037009
   7 H :    0.040452

  Mayer bond orders larger than 0.100000
B(  0-C ,  1-O ) :   2.2158 B(  0-C ,  2-C ) :   0.9819 B(  0-C ,  4-H ) :   0.9336
B(  2-C ,  3-C ) :   1.9885 B(  2-C ,  5-H ) :   0.9409 B(  3-C ,  6-H ) :   0.9498
B(  3-C ,  7-H ) :   0.9533

-----------------------------------------------------------------------------
         ABSORPTION SPECTRUM VIA TRANSITION ELECTRIC DIPOLE MOMENTS
-----------------------------------------------------------------------------
State   Energy    Wavelength  fosc         T2        TX        TY        TZ
        (cm-1)      (nm)                 (au**2)    (au)      (au)      (au)
-----------------------------------------------------------------------------
   1   31754.4    314.9   0.000061596   0.00064   0.01299   0.01968   0.00909

FINAL SINGLE POINT ENERGY      -191.625047206999

DIPOLE MOMENT
-------------
                                X             Y             Z
Electronic contribution:     -2.87368      -1.16332      -1.01685
Nuclear contribution   :      3.24516       1.82862       1.44536
                        -----------------------------------------
Total Dipole Moment    :      0.37148       0.66530       0.42851
                        -----------------------------------------
Magnitude (a.u.)       :      0.87421
Magnitude (Debye)      :      2.22207

Rotational constants in cm-1:     0.892723     0.169993     0.158124
Rotational constants in MHz : 26763.173018  5096.269773  4740.423993

                             ****ORCA TERMINATED NORMALLY****
TOTAL RUN TIME: 0 days 0 hours 3 minutes 23 seconds 625 msec
