                         Program Version 5.0.3 -  RELEASE  -
|  1> ! HF-3c
|  2> !TightSCF
|  3> %scf
|  4>  ConvForced true
|  5>  convergence tight
|  6>  MaxIter 500
|  7> end
|  8>
|  9> %tddft
| 10>  nroots 1
| 11> end
| 12>
| 13> # 	15778
| 14> * xyz 0 1
| 15> 		C   -1.176087  -0.255989   0.101537
| 16> 		O   -2.112425  -0.360197   0.912563
| 17> 		C    0.105705   0.438184   0.307187
| 18> 		C    1.179712   0.178969  -0.334225
| 19> 		H   -1.244184  -0.979104  -0.869952
| 20> 		H    0.024435   1.056094   1.081069
| 21> 		H    1.154887  -0.568239  -1.117008
| 22> 		H    2.069341   0.492494  -0.052022
| 23> *
| 24>
| 25>                          ****END OF INPUT****

CARTESIAN COORDINATES (ANGSTROEM)
---------------------------------
  C     -1.176087   -0.255989    0.101537
  O     -2.112425   -0.360197    0.912563
  C      0.105705    0.438184    0.307187
  C      1.179712    0.178969   -0.334225
  H     -1.244184   -0.979104   -0.869952
  H      0.024435    1.056094    1.081069
  H      1.154887   -0.568239   -1.117008
  H      2.069341    0.492494   -0.052022

 Total Charge           Charge          ....    0
 Multiplicity           Mult            ....    1
 Number of Electrons    NEL             ....   30
 Basis Dimension        Dim             ....   24

ORBITAL ENERGIES
----------------

  NO   OCC          E(Eh)            E(eV)
   0   2.0000     -20.361315      -554.0595
   1   2.0000     -11.289415      -307.2006
   2   2.0000     -11.214279      -305.1561
   3   2.0000     -11.212954      -305.1200
   4   2.0000      -1.379350       -37.5340
   5   2.0000      -1.122018       -30.5317
   6   2.0000      -0.901256       -24.5244
   7   2.0000      -0.784170       -21.3383
   8   2.0000      -0.689971       -18.7751
   9   2.0000      -0.663361       -18.0510
  10   2.0000      -0.577827       -15.7235
  11   2.0000      -0.562124       -15.2962
  12   2.0000      -0.534757       -14.5515
  13   2.0000      -0.419475       -11.4145
  14   2.0000      -0.407929       -11.1003
  15   0.0000       0.125938         3.4270
  16   0.0000       0.297911         8.1066
  17   0.0000       0.527709        14.3597
  18   0.0000       0.566547        15.4165
  19   0.0000       0.702761        19.1231

MULLIKEN ATOMIC CHARGES
-----------------------
   0 C :    0.178616
   1 O :   -0.346381
   2 C :   -0.183147
   3 C :   -0.244310
   4 H :    0.128077
   5 H :    0.160193
   6 H :    0.152686
   7 H :    0.154267
Sum of atomic charges:    0.0000000

LOEWDIN ATOMIC CHARGES
----------------------
   0 C :    0.153897
   1 O :   -0.260837
   2 C :   -0.120581
   3 C :   -0.136138
   4 H :    0.074735
   5 H :    0.095277
   6 H :    0.100414
   7 H :    0.093232

  Mayer bond orders larger than 0.100000
B(  0-C ,  1-O ) :   1.9126 B(  0-C ,  2-C ) :   1.0221 B(  0-C ,  4-H ) :   0.9183
B(  2-C ,  3-C ) :   1.9594 B(  2-C ,  5-H ) :   0.9525 B(  3-C ,  6-H ) :   0.9583
B(  3-C ,  7-H ) :   0.9628

-----------------------------------------------------------------------------
         ABSORPTION SPECTRUM VIA TRANSITION ELECTRIC DIPOLE MOMENTS
-----------------------------------------------------------------------------
State   Energy    Wavelength  fosc         T2        TX        TY        TZ
        (cm-1)      (nm)                 (au**2)    (au)      (au)      (au)
-----------------------------------------------------------------------------
   1   30780.8    324.9   0.000085695   0.00092   0.00930   0.02741   0.00888

Dispersion correction           -0.025863874
FINAL SINGLE POINT ENERGY      -189.322133894445

DIPOLE MOMENT
-------------
                                X             Y             Z
Electronic contribution:     -2.95364      -0.08115       1.22479
Nuclear contribution   :      3.89642       0.09151      -1.86156
                        -----------------------------------------
Total Dipole Moment    :      0.94279       0.01035      -0.63677
                        -----------------------------------------
Magnitude (a.u.)       :      1.13773
Magnitude (Debye)      :      2.89188

Rotational constants in cm-1:     1.616929     0.154110     0.142485
Rotational constants in MHz : 48474.297976  4620.098139  4271.581318

                             ****ORCA TERMINATED NORMALLY****
TOTAL RUN TIME: 0 days 0 hours 0 minutes 16 seconds 78 msec
