                         Program Version 5.0.3 -  RELEASE  -
|  1> ! HF-3c
|  2> !TightSCF
|  3> %scf
|  4>  ConvForced true
|  5>  convergence tight
|  6>  MaxIter 500
|  7> end
|  8>
|  9> %tddft
| 10>  nroots 1
| 11> end
| 12>
| 13> # 	13104
| 14> * xyz 0 1
| 15> 		C   -1.224701  -0.298415   0.060181
| 16> 		O   -1.294184  -1.432056   0.539502
| 17> 		C   -0.024889   0.538796   0.123206
| 18> 		C    1.186747  -0.062161  -0.133779
| 19> 		H   -1.964062   0.155022  -0.600678
| 20> 		H   -0.161497   1.661708   0.268643
| 21> 		H    1.283955  -1.087780  -0.246275
| 22> 		H    2.181059   0.544760   0.013858
| 23> *
| 24>
| 25>                          ****END OF INPUT****

CARTESIAN COORDINATES (ANGSTROEM)
---------------------------------
  C     -1.224701   -0.298415    0.060181
  O     -1.294184   -1.432056    0.539502
  C     -0.024889    0.538796    0.123206
  C      1.186747   -0.062161   -0.133779
  H     -1.964062    0.155022   -0.600678
  H     -0.161497    1.661708    0.268643
  H      1.283955   -1.087780   -0.246275
  H      2.181059    0.544760    0.013858

 Total Charge           Charge          ....    0
 Multiplicity           Mult            ....    1
 Number of Electrons    NEL             ....   30
 Basis Dimension        Dim             ....   24

ORBITAL ENERGIES
----------------

  NO   OCC          E(Eh)            E(eV)
   0   2.0000     -20.364384      -554.1431
   1   2.0000     -11.291754      -307.2642
   2   2.0000     -11.184060      -304.3337
   3   2.0000     -11.181928      -304.2757
   4   2.0000      -1.386356       -37.7247
   5   2.0000      -1.064933       -28.9783
   6   2.0000      -0.891683       -24.2639
   7   2.0000      -0.747503       -20.3406
   8   2.0000      -0.685255       -18.6467
   9   2.0000      -0.609009       -16.5720
  10   2.0000      -0.595808       -16.2128
  11   2.0000      -0.536603       -14.6017
  12   2.0000      -0.503266       -13.6946
  13   2.0000      -0.413527       -11.2526
  14   2.0000      -0.381932       -10.3929
  15   0.0000       0.138171         3.7598
  16   0.0000       0.262168         7.1339
  17   0.0000       0.547432        14.8964
  18   0.0000       0.598905        16.2970
  19   0.0000       0.643878        17.5208

MULLIKEN ATOMIC CHARGES
-----------------------
   0 C :    0.154914
   1 O :   -0.343310
   2 C :   -0.165706
   3 C :   -0.220555
   4 H :    0.137146
   5 H :    0.146622
   6 H :    0.146880
   7 H :    0.144010
Sum of atomic charges:   -0.0000000

LOEWDIN ATOMIC CHARGES
----------------------
   0 C :    0.145962
   1 O :   -0.255996
   2 C :   -0.126573
   3 C :   -0.127404
   4 H :    0.073365
   5 H :    0.099246
   6 H :    0.090891
   7 H :    0.100509

  Mayer bond orders larger than 0.100000
B(  0-C ,  1-O ) :   1.9152 B(  0-C ,  2-C ) :   1.0269 B(  0-C ,  4-H ) :   0.9230
B(  2-C ,  3-C ) :   1.9497 B(  2-C ,  5-H ) :   0.9547 B(  3-C ,  6-H ) :   0.9656
B(  3-C ,  7-H ) :   0.9632

-----------------------------------------------------------------------------
         ABSORPTION SPECTRUM VIA TRANSITION ELECTRIC DIPOLE MOMENTS
-----------------------------------------------------------------------------
State   Energy    Wavelength  fosc         T2        TX        TY        TZ
        (cm-1)      (nm)                 (au**2)    (au)      (au)      (au)
-----------------------------------------------------------------------------
   1   32074.6    311.8   0.000024411   0.00025  -0.01227   0.00315  -0.00949

Dispersion correction           -0.025438044
FINAL SINGLE POINT ENERGY      -189.326417536320

DIPOLE MOMENT
-------------
                                X             Y             Z
Electronic contribution:     -2.24002      -1.56359       0.70280
Nuclear contribution   :      2.58891       2.48331      -1.10342
                        -----------------------------------------
Total Dipole Moment    :      0.34889       0.91972      -0.40061
                        -----------------------------------------
Magnitude (a.u.)       :      1.06212
Magnitude (Debye)      :      2.69969

Rotational constants in cm-1:     0.740931     0.202392     0.165048
Rotational constants in MHz : 22212.559580  6067.556445  4948.021711

                             ****ORCA TERMINATED NORMALLY****
TOTAL RUN TIME: 0 days 0 hours 0 minutes 13 seconds 144 msec
