                         Program Version 5.0.3 -  RELEASE  -
|  1> ! B3LYP cc-pVDZ
|  2> !TightSCF
|  3> %scf
|  4>  ConvForced true
|  5>  convergence tight
|  6>  MaxIter 500
|  7> end
|  8>
|  9> %tddft
| 10>  nroots 1
| 11> end
| 12>
| 13> # 	30459
| 14> * xyz 0 1
| 15> 		C   -0.634352  -0.423951   0.049806
| 16> 		O   -0.598435  -1.640369  -0.030004
| 17> 		C    0.667436   0.370294  -0.041520
| 18> 		C    1.901082  -0.074517  -0.013773
| 19> 		H   -1.684556   0.048809   0.183173
| 20> 		H    0.489962   1.342531  -0.084319
| 21> 		H    2.037717  -1.126549   0.281941
| 22> 		H    2.546571   0.542094   0.158250
| 23> *
| 24>
| 25>                          ****END OF INPUT****

CARTESIAN COORDINATES (ANGSTROEM)
---------------------------------
  C     -0.634352   -0.423951    0.049806
  O     -0.598435   -1.640369   -0.030004
  C      0.667436    0.370294   -0.041520
  C      1.901082   -0.074517   -0.013773
  H     -1.684556    0.048809    0.183173
  H      0.489962    1.342531   -0.084319
  H      2.037717   -1.126549    0.281941
  H      2.546571    0.542094    0.158250

 Total Charge           Charge          ....    0
 Multiplicity           Mult            ....    1
 Number of Electrons    NEL             ....   30
 Basis Dimension        Dim             ....   76

ORBITAL ENERGIES
----------------

  NO   OCC          E(Eh)            E(eV)
   0   2.0000     -19.138547      -520.7863
   1   2.0000     -10.281865      -279.7838
   2   2.0000     -10.196724      -277.4670
   3   2.0000     -10.189924      -277.2819
   4   2.0000      -1.042282       -28.3619
   5   2.0000      -0.805457       -21.9176
   6   2.0000      -0.661541       -18.0014
   7   2.0000      -0.549760       -14.9597
   8   2.0000      -0.518960       -14.1216
   9   2.0000      -0.448565       -12.2061
  10   2.0000      -0.436830       -11.8868
  11   2.0000      -0.394769       -10.7422
  12   2.0000      -0.382662       -10.4128
  13   2.0000      -0.291885        -7.9426
  14   2.0000      -0.253623        -6.9014
  15   0.0000      -0.069220        -1.8836
  16   0.0000       0.052847         1.4380
  17   0.0000       0.074536         2.0282
  18   0.0000       0.100483         2.7343
  19   0.0000       0.120685         3.2840

MULLIKEN ATOMIC CHARGES
-----------------------
   0 C :    0.138100
   1 O :   -0.192003
   2 C :   -0.075214
   3 C :    0.200336
   4 H :    0.001075
   5 H :   -0.058618
   6 H :    0.029815
   7 H :   -0.043491
Sum of atomic charges:   -0.0000000

LOEWDIN ATOMIC CHARGES
----------------------
   0 C :   -0.021324
   1 O :   -0.012403
   2 C :   -0.038963
   3 C :    0.048744
   4 H :    0.007303
   5 H :   -0.002347
   6 H :    0.044401
   7 H :   -0.025411

  Mayer bond orders larger than 0.100000
B(  0-C ,  1-O ) :   2.1781 B(  0-C ,  2-C ) :   1.0182 B(  0-C ,  4-H ) :   0.9131
B(  2-C ,  3-C ) :   2.0089 B(  2-C ,  5-H ) :   0.9476 B(  3-C ,  6-H ) :   0.9339
B(  3-C ,  7-H ) :   0.9162

-----------------------------------------------------------------------------
         ABSORPTION SPECTRUM VIA TRANSITION ELECTRIC DIPOLE MOMENTS
-----------------------------------------------------------------------------
State   Energy    Wavelength  fosc         T2        TX        TY        TZ
        (cm-1)      (nm)                 (au**2)    (au)      (au)      (au)
-----------------------------------------------------------------------------
   1   27303.8    366.2   0.000071091   0.00086   0.02004  -0.00376  -0.02101

FINAL SINGLE POINT ENERGY      -191.629719549518

DIPOLE MOMENT
-------------
                                X             Y             Z
Electronic contribution:     -1.75712      -1.63793      -0.35586
Nuclear contribution   :      2.02393       2.54515       0.50545
                        -----------------------------------------
Total Dipole Moment    :      0.26681       0.90722       0.14959
                        -----------------------------------------
Magnitude (a.u.)       :      0.95740
Magnitude (Debye)      :      2.43352

Rotational constants in cm-1:     0.807159     0.198718     0.160105
Rotational constants in MHz : 24198.013777  5957.402913  4799.838521

                             ****ORCA TERMINATED NORMALLY****
TOTAL RUN TIME: 0 days 0 hours 3 minutes 27 seconds 368 msec
