                         Program Version 5.0.3 -  RELEASE  -
|  1> ! B3LYP cc-pVDZ
|  2> !TightSCF
|  3> %scf
|  4>  ConvForced true
|  5>  convergence tight
|  6>  MaxIter 500
|  7> end
|  8>
|  9> %tddft
| 10>  nroots 1
| 11> end
| 12>
| 13> # 	305
| 14> * xyz 0 1
| 15> 		C   -1.186396  -0.267973   0.019370
| 16> 		O   -1.456864  -1.316920   0.631107
| 17> 		C   -0.043549   0.601638   0.127167
| 18> 		C    1.210529   0.021962  -0.116534
| 19> 		H   -1.902052   0.036676  -0.782032
| 20> 		H   -0.140243   1.590723   0.410262
| 21> 		H    1.247801  -1.039590  -0.263425
| 22> 		H    2.239620   0.459441  -0.002185
| 23> *
| 24>
| 25>                          ****END OF INPUT****

CARTESIAN COORDINATES (ANGSTROEM)
---------------------------------
  C     -1.186396   -0.267973    0.019370
  O     -1.456864   -1.316920    0.631107
  C     -0.043549    0.601638    0.127167
  C      1.210529    0.021962   -0.116534
  H     -1.902052    0.036676   -0.782032
  H     -0.140243    1.590723    0.410262
  H      1.247801   -1.039590   -0.263425
  H      2.239620    0.459441   -0.002185

 Total Charge           Charge          ....    0
 Multiplicity           Mult            ....    1
 Number of Electrons    NEL             ....   30
 Basis Dimension        Dim             ....   76

ORBITAL ENERGIES
----------------

  NO   OCC          E(Eh)            E(eV)
   0   2.0000     -19.142658      -520.8982
   1   2.0000     -10.280219      -279.7390
   2   2.0000     -10.221357      -278.1373
   3   2.0000     -10.214260      -277.9442
   4   2.0000      -1.030330       -28.0367
   5   2.0000      -0.796978       -21.6869
   6   2.0000      -0.660562       -17.9748
   7   2.0000      -0.561424       -15.2771
   8   2.0000      -0.501812       -13.6550
   9   2.0000      -0.448898       -12.2151
  10   2.0000      -0.438305       -11.9269
  11   2.0000      -0.393114       -10.6972
  12   2.0000      -0.367602       -10.0030
  13   2.0000      -0.280521        -7.6334
  14   2.0000      -0.255588        -6.9549
  15   0.0000      -0.059684        -1.6241
  16   0.0000      -0.005834        -0.1587
  17   0.0000       0.080851         2.2001
  18   0.0000       0.096575         2.6279
  19   0.0000       0.110050         2.9946

MULLIKEN ATOMIC CHARGES
-----------------------
   0 C :    0.176832
   1 O :   -0.209874
   2 C :   -0.043160
   3 C :    0.007882
   4 H :   -0.007553
   5 H :   -0.003452
   6 H :    0.032319
   7 H :    0.047007
Sum of atomic charges:   -0.0000000

LOEWDIN ATOMIC CHARGES
----------------------
   0 C :   -0.012108
   1 O :   -0.026551
   2 C :   -0.047260
   3 C :    0.004667
   4 H :   -0.001192
   5 H :    0.021336
   6 H :    0.024482
   7 H :    0.036626

  Mayer bond orders larger than 0.100000
B(  0-C ,  1-O ) :   2.1852 B(  0-C ,  2-C ) :   1.0258 B(  0-C ,  4-H ) :   0.9151
B(  2-C ,  3-C ) :   1.9646 B(  2-C ,  5-H ) :   0.9523 B(  3-C ,  6-H ) :   0.9499
B(  3-C ,  7-H ) :   0.9594

-----------------------------------------------------------------------------
         ABSORPTION SPECTRUM VIA TRANSITION ELECTRIC DIPOLE MOMENTS
-----------------------------------------------------------------------------
State   Energy    Wavelength  fosc         T2        TX        TY        TZ
        (cm-1)      (nm)                 (au**2)    (au)      (au)      (au)
-----------------------------------------------------------------------------
   1   29412.0    340.0   0.000359968   0.00403  -0.06137   0.01519   0.00570

FINAL SINGLE POINT ENERGY      -191.651680178222

DIPOLE MOMENT
-------------
                                X             Y             Z
Electronic contribution:     -2.28744      -1.20690       0.87940
Nuclear contribution   :      2.81834       2.02091      -1.24821
                        -----------------------------------------
Total Dipole Moment    :      0.53090       0.81401      -0.36881
                        -----------------------------------------
Magnitude (a.u.)       :      1.03946
Magnitude (Debye)      :      2.64210

Rotational constants in cm-1:     0.803755     0.186653     0.159931
Rotational constants in MHz : 24095.974703  5595.717277  4794.621039

                             ****ORCA TERMINATED NORMALLY****
TOTAL RUN TIME: 0 days 0 hours 3 minutes 23 seconds 25 msec
