                         Program Version 5.0.3 -  RELEASE  -
|  1> ! HF-3c
|  2> !TightSCF
|  3> %scf
|  4>  ConvForced true
|  5>  convergence tight
|  6>  MaxIter 500
|  7> end
|  8>
|  9> %tddft
| 10>  nroots 1
| 11> end
| 12>
| 13> # 	26837
| 14> * xyz 0 1
| 15> 		C   -0.612015  -0.452818   0.040096
| 16> 		O   -0.580162  -1.646905  -0.021458
| 17> 		C    0.575067   0.439264  -0.025475
| 18> 		C    1.882392  -0.127092   0.008235
| 19> 		H   -1.549488   0.262133   0.009407
| 20> 		H    0.570860   1.497134  -0.021323
| 21> 		H    2.301783  -1.213113   0.141293
| 22> 		H    2.864064   0.569399  -0.068409
| 23> *
| 24>
| 25>                          ****END OF INPUT****

CARTESIAN COORDINATES (ANGSTROEM)
---------------------------------
  C     -0.612015   -0.452818    0.040096
  O     -0.580162   -1.646905   -0.021458
  C      0.575067    0.439264   -0.025475
  C      1.882392   -0.127092    0.008235
  H     -1.549488    0.262133    0.009407
  H      0.570860    1.497134   -0.021323
  H      2.301783   -1.213113    0.141293
  H      2.864064    0.569399   -0.068409

 Total Charge           Charge          ....    0
 Multiplicity           Mult            ....    1
 Number of Electrons    NEL             ....   30
 Basis Dimension        Dim             ....   24

ORBITAL ENERGIES
----------------

  NO   OCC          E(Eh)            E(eV)
   0   2.0000     -20.362049      -554.0795
   1   2.0000     -11.295814      -307.3747
   2   2.0000     -11.186151      -304.3906
   3   2.0000     -11.168220      -303.9027
   4   2.0000      -1.403719       -38.1971
   5   2.0000      -1.038990       -28.2724
   6   2.0000      -0.866967       -23.5914
   7   2.0000      -0.733038       -19.9470
   8   2.0000      -0.681877       -18.5548
   9   2.0000      -0.604049       -16.4370
  10   2.0000      -0.560510       -15.2523
  11   2.0000      -0.539918       -14.6919
  12   2.0000      -0.509852       -13.8738
  13   2.0000      -0.395894       -10.7728
  14   2.0000      -0.364508        -9.9188
  15   0.0000       0.127775         3.4769
  16   0.0000       0.302889         8.2420
  17   0.0000       0.508463        13.8360
  18   0.0000       0.548616        14.9286
  19   0.0000       0.587988        16.0000

MULLIKEN ATOMIC CHARGES
-----------------------
   0 C :    0.183581
   1 O :   -0.367378
   2 C :   -0.204227
   3 C :   -0.161575
   4 H :    0.128417
   5 H :    0.140344
   6 H :    0.152643
   7 H :    0.128195
Sum of atomic charges:    0.0000000

LOEWDIN ATOMIC CHARGES
----------------------
   0 C :    0.156916
   1 O :   -0.267823
   2 C :   -0.170196
   3 C :   -0.071664
   4 H :    0.071216
   5 H :    0.088277
   6 H :    0.105388
   7 H :    0.087887

  Mayer bond orders larger than 0.100000
B(  0-C ,  1-O ) :   1.9040 B(  0-C ,  2-C ) :   1.0345 B(  0-C ,  4-H ) :   0.9094
B(  2-C ,  3-C ) :   1.9029 B(  2-C ,  5-H ) :   0.9639 B(  3-C ,  6-H ) :   0.9616
B(  3-C ,  7-H ) :   0.9672

-----------------------------------------------------------------------------
         ABSORPTION SPECTRUM VIA TRANSITION ELECTRIC DIPOLE MOMENTS
-----------------------------------------------------------------------------
State   Energy    Wavelength  fosc         T2        TX        TY        TZ
        (cm-1)      (nm)                 (au**2)    (au)      (au)      (au)
-----------------------------------------------------------------------------
   1   33725.5    296.5   0.000111686   0.00109  -0.03270   0.00447   0.00085

Dispersion correction           -0.024580454
FINAL SINGLE POINT ENERGY      -189.299393976563

DIPOLE MOMENT
-------------
                                X             Y             Z
Electronic contribution:     -2.24276      -1.89543       0.00183
Nuclear contribution   :      2.77036       2.83082       0.05737
                        -----------------------------------------
Total Dipole Moment    :      0.52760       0.93539       0.05921
                        -----------------------------------------
Magnitude (a.u.)       :      1.07555
Magnitude (Debye)      :      2.73384

Rotational constants in cm-1:     0.706123     0.202154     0.157339
Rotational constants in MHz : 21169.043797  6060.422488  4716.890393

                             ****ORCA TERMINATED NORMALLY****
TOTAL RUN TIME: 0 days 0 hours 0 minutes 11 seconds 289 msec
