                         Program Version 5.0.3 -  RELEASE  -
|  1> ! HF-3c
|  2> !TightSCF
|  3> %scf
|  4>  ConvForced true
|  5>  convergence tight
|  6>  MaxIter 500
|  7> end
|  8>
|  9> %tddft
| 10>  nroots 1
| 11> end
| 12>
| 13> # 	11852
| 14> * xyz 0 1
| 15> 		C   -1.178391  -0.397410  -0.003913
| 16> 		O   -1.798732  -1.057653  -0.831567
| 17> 		C   -0.035865   0.423925  -0.402545
| 18> 		C    1.201277   0.070315   0.194004
| 19> 		H   -1.302165  -0.418177   1.148332
| 20> 		H   -0.232754   1.374381  -0.954244
| 21> 		H    1.227628  -0.804368   0.857573
| 22> 		H    2.135827   0.793861   0.033172
| 23> *
| 24>
| 25>                          ****END OF INPUT****

CARTESIAN COORDINATES (ANGSTROEM)
---------------------------------
  C     -1.178391   -0.397410   -0.003913
  O     -1.798732   -1.057653   -0.831567
  C     -0.035865    0.423925   -0.402545
  C      1.201277    0.070315    0.194004
  H     -1.302165   -0.418177    1.148332
  H     -0.232754    1.374381   -0.954244
  H      1.227628   -0.804368    0.857573
  H      2.135827    0.793861    0.033172

 Total Charge           Charge          ....    0
 Multiplicity           Mult            ....    1
 Number of Electrons    NEL             ....   30
 Basis Dimension        Dim             ....   24

ORBITAL ENERGIES
----------------

  NO   OCC          E(Eh)            E(eV)
   0   2.0000     -20.365356      -554.1695
   1   2.0000     -11.290694      -307.2354
   2   2.0000     -11.177039      -304.1427
   3   2.0000     -11.172544      -304.0204
   4   2.0000      -1.390074       -37.8258
   5   2.0000      -1.055037       -28.7090
   6   2.0000      -0.861649       -23.4467
   7   2.0000      -0.755026       -20.5453
   8   2.0000      -0.656527       -17.8650
   9   2.0000      -0.618908       -16.8414
  10   2.0000      -0.582572       -15.8526
  11   2.0000      -0.541935       -14.7468
  12   2.0000      -0.492100       -13.3907
  13   2.0000      -0.407111       -11.0781
  14   2.0000      -0.368612       -10.0304
  15   0.0000       0.153755         4.1839
  16   0.0000       0.229918         6.2564
  17   0.0000       0.551427        15.0051
  18   0.0000       0.565968        15.4008
  19   0.0000       0.598696        16.2913

MULLIKEN ATOMIC CHARGES
-----------------------
   0 C :    0.162582
   1 O :   -0.343540
   2 C :   -0.166246
   3 C :   -0.223495
   4 H :    0.140265
   5 H :    0.151858
   6 H :    0.134290
   7 H :    0.144286
Sum of atomic charges:    0.0000000

LOEWDIN ATOMIC CHARGES
----------------------
   0 C :    0.146765
   1 O :   -0.253420
   2 C :   -0.126056
   3 C :   -0.140761
   4 H :    0.081498
   5 H :    0.102113
   6 H :    0.087359
   7 H :    0.102502

  Mayer bond orders larger than 0.100000
B(  0-C ,  1-O ) :   1.9324 B(  0-C ,  2-C ) :   1.0112 B(  0-C ,  4-H ) :   0.9128
B(  2-C ,  3-C ) :   1.9658 B(  2-C ,  5-H ) :   0.9530 B(  3-C ,  6-H ) :   0.9675
B(  3-C ,  7-H ) :   0.9625

-----------------------------------------------------------------------------
         ABSORPTION SPECTRUM VIA TRANSITION ELECTRIC DIPOLE MOMENTS
-----------------------------------------------------------------------------
State   Energy    Wavelength  fosc         T2        TX        TY        TZ
        (cm-1)      (nm)                 (au**2)    (au)      (au)      (au)
-----------------------------------------------------------------------------
   1   32975.3    303.3   0.000055482   0.00055   0.00764   0.00429  -0.02184

Dispersion correction           -0.025087084
FINAL SINGLE POINT ENERGY      -189.306621578909

DIPOLE MOMENT
-------------
                                X             Y             Z
Electronic contribution:     -2.83236      -1.26028      -1.27035
Nuclear contribution   :      3.50938       1.86649       1.99751
                        -----------------------------------------
Total Dipole Moment    :      0.67701       0.60621       0.72716
                        -----------------------------------------
Magnitude (a.u.)       :      1.16387
Magnitude (Debye)      :      2.95832

Rotational constants in cm-1:     1.043987     0.161711     0.154888
Rotational constants in MHz : 31297.953099  4847.965469  4643.431038

                             ****ORCA TERMINATED NORMALLY****
TOTAL RUN TIME: 0 days 0 hours 0 minutes 11 seconds 784 msec
