                         Program Version 5.0.3 -  RELEASE  -
|  1> ! B3LYP cc-pVDZ
|  2> !TightSCF
|  3> %scf
|  4>  ConvForced true
|  5>  convergence tight
|  6>  MaxIter 500
|  7> end
|  8>
|  9> %tddft
| 10>  nroots 1
| 11> end
| 12>
| 13> # 	14101
| 14> * xyz 0 1
| 15> 		C   -1.134663  -0.312120  -0.081546
| 16> 		O   -1.200313  -1.533435   0.217752
| 17> 		C   -0.014736   0.572513   0.108227
| 18> 		C    1.238447  -0.074191  -0.065416
| 19> 		H   -2.115265   0.279212  -0.403843
| 20> 		H   -0.117589   1.606838   0.477491
| 21> 		H    1.287749  -1.124460  -0.187956
| 22> 		H    2.113631   0.634632  -0.060144
| 23> *
| 24>
| 25>                          ****END OF INPUT****

CARTESIAN COORDINATES (ANGSTROEM)
---------------------------------
  C     -1.134663   -0.312120   -0.081546
  O     -1.200313   -1.533435    0.217752
  C     -0.014736    0.572513    0.108227
  C      1.238447   -0.074191   -0.065416
  H     -2.115265    0.279212   -0.403843
  H     -0.117589    1.606838    0.477491
  H      1.287749   -1.124460   -0.187956
  H      2.113631    0.634632   -0.060144

 Total Charge           Charge          ....    0
 Multiplicity           Mult            ....    1
 Number of Electrons    NEL             ....   30
 Basis Dimension        Dim             ....   76

ORBITAL ENERGIES
----------------

  NO   OCC          E(Eh)            E(eV)
   0   2.0000     -19.138226      -520.7776
   1   2.0000     -10.281224      -279.7663
   2   2.0000     -10.227944      -278.3165
   3   2.0000     -10.218474      -278.0588
   4   2.0000      -1.018959       -27.7273
   5   2.0000      -0.792155       -21.5556
   6   2.0000      -0.658109       -17.9080
   7   2.0000      -0.542485       -14.7618
   8   2.0000      -0.499169       -13.5831
   9   2.0000      -0.443813       -12.0768
  10   2.0000      -0.413808       -11.2603
  11   2.0000      -0.400440       -10.8965
  12   2.0000      -0.371957       -10.1215
  13   2.0000      -0.277628        -7.5547
  14   2.0000      -0.252509        -6.8711
  15   0.0000      -0.077583        -2.1111
  16   0.0000       0.018367         0.4998
  17   0.0000       0.067587         1.8391
  18   0.0000       0.086643         2.3577
  19   0.0000       0.112102         3.0504

MULLIKEN ATOMIC CHARGES
-----------------------
   0 C :    0.169684
   1 O :   -0.231688
   2 C :   -0.101502
   3 C :    0.059894
   4 H :   -0.008780
   5 H :    0.025210
   6 H :    0.042569
   7 H :    0.044613
Sum of atomic charges:    0.0000000

LOEWDIN ATOMIC CHARGES
----------------------
   0 C :   -0.022483
   1 O :   -0.054958
   2 C :   -0.070115
   3 C :    0.045224
   4 H :    0.000959
   5 H :    0.038452
   6 H :    0.024384
   7 H :    0.038536

  Mayer bond orders larger than 0.100000
B(  0-C ,  1-O ) :   2.1193 B(  0-C ,  2-C ) :   1.0804 B(  0-C ,  4-H ) :   0.9045
B(  2-C ,  3-C ) :   1.9051 B(  2-C ,  5-H ) :   0.9498 B(  3-C ,  6-H ) :   0.9433
B(  3-C ,  7-H ) :   0.9497

-----------------------------------------------------------------------------
         ABSORPTION SPECTRUM VIA TRANSITION ELECTRIC DIPOLE MOMENTS
-----------------------------------------------------------------------------
State   Energy    Wavelength  fosc         T2        TX        TY        TZ
        (cm-1)      (nm)                 (au**2)    (au)      (au)      (au)
-----------------------------------------------------------------------------
   1   26163.4    382.2   0.000092618   0.00117   0.02696  -0.01817  -0.01041

FINAL SINGLE POINT ENERGY      -191.666319601983

DIPOLE MOMENT
-------------
                                X             Y             Z
Electronic contribution:     -1.67806      -1.72433       0.22239
Nuclear contribution   :      2.21800       2.69100      -0.35148
                        -----------------------------------------
Total Dipole Moment    :      0.53994       0.96667      -0.12909
                        -----------------------------------------
Magnitude (a.u.)       :      1.11474
Magnitude (Debye)      :      2.83345

Rotational constants in cm-1:     0.694087     0.210572     0.165178
Rotational constants in MHz : 20808.214389  6312.796283  4951.904618

                             ****ORCA TERMINATED NORMALLY****
TOTAL RUN TIME: 0 days 0 hours 3 minutes 12 seconds 114 msec
