                         Program Version 5.0.3 -  RELEASE  -
|  1> ! B3LYP cc-pVDZ
|  2> !TightSCF
|  3> %scf
|  4>  ConvForced true
|  5>  convergence tight
|  6>  MaxIter 500
|  7> end
|  8>
|  9> %tddft
| 10>  nroots 1
| 11> end
| 12>
| 13> # 	23874
| 14> * xyz 0 1
| 15> 		C   -0.554439  -0.432298   0.033273
| 16> 		O   -0.570555  -1.603830  -0.009036
| 17> 		C    0.604962   0.380547  -0.030730
| 18> 		C    1.803597  -0.137246   0.008170
| 19> 		H   -1.265608   0.293585  -0.087535
| 20> 		H    0.536985   1.520348   0.097901
| 21> 		H    1.998396  -1.288444   0.031481
| 22> 		H    2.667187   0.467442  -0.022593
| 23> *
| 24>
| 25>                          ****END OF INPUT****

CARTESIAN COORDINATES (ANGSTROEM)
---------------------------------
  C     -0.554439   -0.432298    0.033273
  O     -0.570555   -1.603830   -0.009036
  C      0.604962    0.380547   -0.030730
  C      1.803597   -0.137246    0.008170
  H     -1.265608    0.293585   -0.087535
  H      0.536985    1.520348    0.097901
  H      1.998396   -1.288444    0.031481
  H      2.667187    0.467442   -0.022593

 Total Charge           Charge          ....    0
 Multiplicity           Mult            ....    1
 Number of Electrons    NEL             ....   30
 Basis Dimension        Dim             ....   76

ORBITAL ENERGIES
----------------

  NO   OCC          E(Eh)            E(eV)
   0   2.0000     -19.137342      -520.7536
   1   2.0000     -10.257932      -279.1325
   2   2.0000     -10.209430      -277.8127
   3   2.0000     -10.191499      -277.3248
   4   2.0000      -1.066752       -29.0278
   5   2.0000      -0.805731       -21.9250
   6   2.0000      -0.679678       -18.4950
   7   2.0000      -0.538179       -14.6446
   8   2.0000      -0.509930       -13.8759
   9   2.0000      -0.453443       -12.3388
  10   2.0000      -0.421811       -11.4781
  11   2.0000      -0.412268       -11.2184
  12   2.0000      -0.370820       -10.0905
  13   2.0000      -0.291599        -7.9348
  14   2.0000      -0.253204        -6.8900
  15   0.0000      -0.067425        -1.8347
  16   0.0000       0.062053         1.6886
  17   0.0000       0.079638         2.1671
  18   0.0000       0.087701         2.3865
  19   0.0000       0.132968         3.6182

MULLIKEN ATOMIC CHARGES
-----------------------
   0 C :    0.253159
   1 O :   -0.166125
   2 C :   -0.176505
   3 C :    0.072358
   4 H :   -0.055662
   5 H :    0.003944
   6 H :    0.053223
   7 H :    0.015608
Sum of atomic charges:    0.0000000

LOEWDIN ATOMIC CHARGES
----------------------
   0 C :   -0.072967
   1 O :    0.042810
   2 C :   -0.098473
   3 C :    0.035036
   4 H :   -0.019454
   5 H :    0.043406
   6 H :    0.048943
   7 H :    0.020697

  Mayer bond orders larger than 0.100000
B(  0-C ,  1-O ) :   2.2462 B(  0-C ,  2-C ) :   1.0723 B(  0-C ,  4-H ) :   0.9214
B(  2-C ,  3-C ) :   1.9707 B(  2-C ,  5-H ) :   0.9342 B(  3-C ,  6-H ) :   0.9338
B(  3-C ,  7-H ) :   0.9345

-----------------------------------------------------------------------------
         ABSORPTION SPECTRUM VIA TRANSITION ELECTRIC DIPOLE MOMENTS
-----------------------------------------------------------------------------
State   Energy    Wavelength  fosc         T2        TX        TY        TZ
        (cm-1)      (nm)                 (au**2)    (au)      (au)      (au)
-----------------------------------------------------------------------------
   1   27919.8    358.2   0.000099134   0.00117   0.01485  -0.00236   0.03070

FINAL SINGLE POINT ENERGY      -191.646600699479

DIPOLE MOMENT
-------------
                                X             Y             Z
Electronic contribution:     -2.08842      -1.86305       0.02951
Nuclear contribution   :      2.53534       2.71744       0.01769
                        -----------------------------------------
Total Dipole Moment    :      0.44691       0.85439       0.04721
                        -----------------------------------------
Magnitude (a.u.)       :      0.96537
Magnitude (Debye)      :      2.45378

Rotational constants in cm-1:     0.793664     0.222284     0.173813
Rotational constants in MHz : 23793.436498  6663.911614  5210.780790

                             ****ORCA TERMINATED NORMALLY****
TOTAL RUN TIME: 0 days 0 hours 3 minutes 27 seconds 961 msec
