                         Program Version 5.0.3 -  RELEASE  -
|  1> ! B3LYP cc-pVDZ
|  2> !TightSCF
|  3> %scf
|  4>  ConvForced true
|  5>  convergence tight
|  6>  MaxIter 500
|  7> end
|  8>
|  9> %tddft
| 10>  nroots 1
| 11> end
| 12>
| 13> # 	714
| 14> * xyz 0 1
| 15> 		C   -1.162443  -0.333036  -0.037771
| 16> 		O   -1.933581  -0.747130   0.806026
| 17> 		C   -0.053246   0.501348   0.202098
| 18> 		C    1.186516   0.078311  -0.170152
| 19> 		H   -1.320168  -0.692236  -1.073715
| 20> 		H   -0.223425   1.350010   0.895473
| 21> 		H    1.295732  -0.852278  -0.791009
| 22> 		H    2.141731   0.719245   0.117413
| 23> *
| 24>
| 25>                          ****END OF INPUT****

CARTESIAN COORDINATES (ANGSTROEM)
---------------------------------
  C     -1.162443   -0.333036   -0.037771
  O     -1.933581   -0.747130    0.806026
  C     -0.053246    0.501348    0.202098
  C      1.186516    0.078311   -0.170152
  H     -1.320168   -0.692236   -1.073715
  H     -0.223425    1.350010    0.895473
  H      1.295732   -0.852278   -0.791009
  H      2.141731    0.719245    0.117413

 Total Charge           Charge          ....    0
 Multiplicity           Mult            ....    1
 Number of Electrons    NEL             ....   30
 Basis Dimension        Dim             ....   76

ORBITAL ENERGIES
----------------

  NO   OCC          E(Eh)            E(eV)
   0   2.0000     -19.135159      -520.6941
   1   2.0000     -10.270219      -279.4669
   2   2.0000     -10.231365      -278.4096
   3   2.0000     -10.210834      -277.8509
   4   2.0000      -1.042829       -28.3768
   5   2.0000      -0.805499       -21.9187
   6   2.0000      -0.649254       -17.6671
   7   2.0000      -0.565442       -15.3865
   8   2.0000      -0.481461       -13.1012
   9   2.0000      -0.463362       -12.6087
  10   2.0000      -0.430501       -11.7145
  11   2.0000      -0.392097       -10.6695
  12   2.0000      -0.375153       -10.2084
  13   2.0000      -0.288188        -7.8420
  14   2.0000      -0.252786        -6.8787
  15   0.0000      -0.060236        -1.6391
  16   0.0000       0.015496         0.4217
  17   0.0000       0.071444         1.9441
  18   0.0000       0.078812         2.1446
  19   0.0000       0.116878         3.1804

MULLIKEN ATOMIC CHARGES
-----------------------
   0 C :    0.166823
   1 O :   -0.199069
   2 C :   -0.046379
   3 C :   -0.025923
   4 H :   -0.025205
   5 H :    0.023404
   6 H :    0.042989
   7 H :    0.063359
Sum of atomic charges:   -0.0000000

LOEWDIN ATOMIC CHARGES
----------------------
   0 C :   -0.044361
   1 O :   -0.004830
   2 C :   -0.063144
   3 C :   -0.013918
   4 H :   -0.006245
   5 H :    0.043449
   6 H :    0.036316
   7 H :    0.052733

  Mayer bond orders larger than 0.100000
B(  0-C ,  1-O ) :   2.1812 B(  0-C ,  2-C ) :   1.0666 B(  0-C ,  4-H ) :   0.9235
B(  2-C ,  3-C ) :   1.9474 B(  2-C ,  5-H ) :   0.9343 B(  3-C ,  6-H ) :   0.9415
B(  3-C ,  7-H ) :   0.9414

-----------------------------------------------------------------------------
         ABSORPTION SPECTRUM VIA TRANSITION ELECTRIC DIPOLE MOMENTS
-----------------------------------------------------------------------------
State   Energy    Wavelength  fosc         T2        TX        TY        TZ
        (cm-1)      (nm)                 (au**2)    (au)      (au)      (au)
-----------------------------------------------------------------------------
   1   29442.4    339.6   0.000618378   0.00691  -0.08039  -0.00880   0.01935

FINAL SINGLE POINT ENERGY      -191.658397404363

DIPOLE MOMENT
-------------
                                X             Y             Z
Electronic contribution:     -2.86330      -0.63931       1.07864
Nuclear contribution   :      3.72230       1.04991      -1.59143
                        -----------------------------------------
Total Dipole Moment    :      0.85900       0.41060      -0.51280
                        -----------------------------------------
Magnitude (a.u.)       :      1.08141
Magnitude (Debye)      :      2.74872

Rotational constants in cm-1:     1.199529     0.163408     0.155876
Rotational constants in MHz : 35960.985146  4898.854807  4673.053976

                             ****ORCA TERMINATED NORMALLY****
TOTAL RUN TIME: 0 days 0 hours 3 minutes 17 seconds 770 msec
