                         Program Version 5.0.3 -  RELEASE  -
|  1> ! B3LYP cc-pVDZ
|  2> !TightSCF
|  3> %scf
|  4>  ConvForced true
|  5>  convergence tight
|  6>  MaxIter 500
|  7> end
|  8>
|  9> %tddft
| 10>  nroots 1
| 11> end
| 12>
| 13> # 	10380
| 14> * xyz 0 1
| 15> 		C   -1.187507  -0.330304  -0.016289
| 16> 		O   -1.171113  -1.573992   0.031528
| 17> 		C    0.017228   0.525312   0.042432
| 18> 		C    1.284987  -0.001151  -0.037359
| 19> 		H   -2.148198   0.306038  -0.231878
| 20> 		H   -0.065999   1.597442   0.161022
| 21> 		H    1.175144  -1.038045   0.063616
| 22> 		H    2.063292   0.548132  -0.028937
| 23> *
| 24>
| 25>                          ****END OF INPUT****

CARTESIAN COORDINATES (ANGSTROEM)
---------------------------------
  C     -1.187507   -0.330304   -0.016289
  O     -1.171113   -1.573992    0.031528
  C      0.017228    0.525312    0.042432
  C      1.284987   -0.001151   -0.037359
  H     -2.148198    0.306038   -0.231878
  H     -0.065999    1.597442    0.161022
  H      1.175144   -1.038045    0.063616
  H      2.063292    0.548132   -0.028937

 Total Charge           Charge          ....    0
 Multiplicity           Mult            ....    1
 Number of Electrons    NEL             ....   30
 Basis Dimension        Dim             ....   76

ORBITAL ENERGIES
----------------

  NO   OCC          E(Eh)            E(eV)
   0   2.0000     -19.144925      -520.9599
   1   2.0000     -10.286138      -279.9000
   2   2.0000     -10.207988      -277.7735
   3   2.0000     -10.201583      -277.5992
   4   2.0000      -1.031677       -28.0733
   5   2.0000      -0.797888       -21.7116
   6   2.0000      -0.667639       -18.1674
   7   2.0000      -0.541393       -14.7321
   8   2.0000      -0.523837       -14.2543
   9   2.0000      -0.440701       -11.9921
  10   2.0000      -0.433991       -11.8095
  11   2.0000      -0.396021       -10.7763
  12   2.0000      -0.377190       -10.2639
  13   2.0000      -0.283119        -7.7041
  14   2.0000      -0.261450        -7.1144
  15   0.0000      -0.079923        -2.1748
  16   0.0000       0.046727         1.2715
  17   0.0000       0.073663         2.0045
  18   0.0000       0.095938         2.6106
  19   0.0000       0.128067         3.4849

MULLIKEN ATOMIC CHARGES
-----------------------
   0 C :    0.178508
   1 O :   -0.216033
   2 C :   -0.153311
   3 C :    0.215975
   4 H :    0.003486
   5 H :   -0.013952
   6 H :    0.017211
   7 H :   -0.031883
Sum of atomic charges:   -0.0000000

LOEWDIN ATOMIC CHARGES
----------------------
   0 C :   -0.018875
   1 O :   -0.034444
   2 C :   -0.064396
   3 C :    0.075458
   4 H :    0.006281
   5 H :    0.022050
   6 H :    0.027853
   7 H :   -0.013927

  Mayer bond orders larger than 0.100000
B(  0-C ,  1-O ) :   2.1289 B(  0-C ,  2-C ) :   1.0616 B(  0-C ,  4-H ) :   0.9073
B(  2-C ,  3-C ) :   1.9534 B(  2-C ,  5-H ) :   0.9517 B(  3-C ,  6-H ) :   0.9277
B(  3-C ,  7-H ) :   0.9409

-----------------------------------------------------------------------------
         ABSORPTION SPECTRUM VIA TRANSITION ELECTRIC DIPOLE MOMENTS
-----------------------------------------------------------------------------
State   Energy    Wavelength  fosc         T2        TX        TY        TZ
        (cm-1)      (nm)                 (au**2)    (au)      (au)      (au)
-----------------------------------------------------------------------------
   1   26993.9    370.5   0.000096045   0.00117   0.00690   0.00013  -0.03352

FINAL SINGLE POINT ENERGY      -191.657004816344

DIPOLE MOMENT
-------------
                                X             Y             Z
Electronic contribution:     -1.61937      -1.78573       0.05476
Nuclear contribution   :      2.04073       2.74292      -0.05587
                        -----------------------------------------
Total Dipole Moment    :      0.42136       0.95719      -0.00111
                        -----------------------------------------
Magnitude (a.u.)       :      1.04583
Magnitude (Debye)      :      2.65829

Rotational constants in cm-1:     0.746145     0.205295     0.161426
Rotational constants in MHz : 22368.865941  6154.577419  4839.421964

                             ****ORCA TERMINATED NORMALLY****
TOTAL RUN TIME: 0 days 0 hours 3 minutes 27 seconds 927 msec
