                         Program Version 5.0.3 -  RELEASE  -
|  1> ! B3LYP cc-pVDZ
|  2> !TightSCF
|  3> %scf
|  4>  ConvForced true
|  5>  convergence tight
|  6>  MaxIter 500
|  7> end
|  8>
|  9> %tddft
| 10>  nroots 1
| 11> end
| 12>
| 13> # 	593
| 14> * xyz 0 1
| 15> 		C   -1.200647  -0.347226   0.064918
| 16> 		O   -2.025691  -0.601263   0.867991
| 17> 		C    0.037864   0.392796   0.325644
| 18> 		C    1.194891   0.107727  -0.254063
| 19> 		H   -1.346042  -0.844206  -1.028474
| 20> 		H   -0.008155   1.321089   0.996602
| 21> 		H    1.428525  -0.758766  -0.920409
| 22> 		H    1.978571   0.692598   0.001563
| 23> *
| 24>
| 25>                          ****END OF INPUT****

CARTESIAN COORDINATES (ANGSTROEM)
---------------------------------
  C     -1.200647   -0.347226    0.064918
  O     -2.025691   -0.601263    0.867991
  C      0.037864    0.392796    0.325644
  C      1.194891    0.107727   -0.254063
  H     -1.346042   -0.844206   -1.028474
  H     -0.008155    1.321089    0.996602
  H      1.428525   -0.758766   -0.920409
  H      1.978571    0.692598    0.001563

 Total Charge           Charge          ....    0
 Multiplicity           Mult            ....    1
 Number of Electrons    NEL             ....   30
 Basis Dimension        Dim             ....   76

ORBITAL ENERGIES
----------------

  NO   OCC          E(Eh)            E(eV)
   0   2.0000     -19.140761      -520.8466
   1   2.0000     -10.280343      -279.7423
   2   2.0000     -10.212317      -277.8913
   3   2.0000     -10.208220      -277.7798
   4   2.0000      -1.066851       -29.0305
   5   2.0000      -0.804651       -21.8957
   6   2.0000      -0.650662       -17.7054
   7   2.0000      -0.551496       -15.0070
   8   2.0000      -0.481449       -13.1009
   9   2.0000      -0.477061       -12.9815
  10   2.0000      -0.431229       -11.7343
  11   2.0000      -0.404017       -10.9939
  12   2.0000      -0.384112       -10.4522
  13   2.0000      -0.294918        -8.0251
  14   2.0000      -0.253229        -6.8907
  15   0.0000      -0.056676        -1.5422
  16   0.0000       0.032414         0.8820
  17   0.0000       0.073904         2.0110
  18   0.0000       0.087155         2.3716
  19   0.0000       0.103846         2.8258

MULLIKEN ATOMIC CHARGES
-----------------------
   0 C :    0.138815
   1 O :   -0.156860
   2 C :   -0.110520
   3 C :    0.088226
   4 H :   -0.026137
   5 H :    0.028770
   6 H :    0.032830
   7 H :    0.004876
Sum of atomic charges:   -0.0000000

LOEWDIN ATOMIC CHARGES
----------------------
   0 C :   -0.065301
   1 O :    0.033395
   2 C :   -0.065589
   3 C :    0.005865
   4 H :   -0.008464
   5 H :    0.049773
   6 H :    0.037430
   7 H :    0.012891

  Mayer bond orders larger than 0.100000
B(  0-C ,  1-O ) :   2.2191 B(  0-C ,  2-C ) :   1.0234 B(  0-C ,  4-H ) :   0.9006
B(  2-C ,  3-C ) :   1.9902 B(  2-C ,  5-H ) :   0.9316 B(  3-C ,  6-H ) :   0.9507
B(  3-C ,  7-H ) :   0.9266

-----------------------------------------------------------------------------
         ABSORPTION SPECTRUM VIA TRANSITION ELECTRIC DIPOLE MOMENTS
-----------------------------------------------------------------------------
State   Energy    Wavelength  fosc         T2        TX        TY        TZ
        (cm-1)      (nm)                 (au**2)    (au)      (au)      (au)
-----------------------------------------------------------------------------
   1   30427.6    328.6   0.000256259   0.00277   0.02736  -0.03166  -0.03197

FINAL SINGLE POINT ENERGY      -191.653184948258

DIPOLE MOMENT
-------------
                                X             Y             Z
Electronic contribution:     -3.01557      -0.55263       1.40519
Nuclear contribution   :      3.90893       0.87131      -1.85808
                        -----------------------------------------
Total Dipole Moment    :      0.89336       0.31868      -0.45289
                        -----------------------------------------
Magnitude (a.u.)       :      1.05108
Magnitude (Debye)      :      2.67163

Rotational constants in cm-1:     1.401001     0.157435     0.146614
Rotational constants in MHz : 42000.964822  4719.779760  4395.373864

                             ****ORCA TERMINATED NORMALLY****
TOTAL RUN TIME: 0 days 0 hours 3 minutes 11 seconds 507 msec
