                         Program Version 5.0.3 -  RELEASE  -
|  1> ! HF-3c
|  2> !TightSCF
|  3> %scf
|  4>  ConvForced true
|  5>  convergence tight
|  6>  MaxIter 500
|  7> end
|  8>
|  9> %tddft
| 10>  nroots 1
| 11> end
| 12>
| 13> # 	6422
| 14> * xyz 0 1
| 15> 		C   -1.169364  -0.271860   0.009336
| 16> 		O   -1.261785  -1.482496   0.298237
| 17> 		C   -0.048016   0.521359   0.124816
| 18> 		C    1.297818   0.021670  -0.008942
| 19> 		H   -2.050820   0.082602  -0.314386
| 20> 		H   -0.205718   1.595291   0.164002
| 21> 		H    1.448064  -1.075974  -0.053630
| 22> 		H    2.101473   0.629118  -0.196403
| 23> *
| 24>
| 25>                          ****END OF INPUT****

CARTESIAN COORDINATES (ANGSTROEM)
---------------------------------
  C     -1.169364   -0.271860    0.009336
  O     -1.261785   -1.482496    0.298237
  C     -0.048016    0.521359    0.124816
  C      1.297818    0.021670   -0.008942
  H     -2.050820    0.082602   -0.314386
  H     -0.205718    1.595291    0.164002
  H      1.448064   -1.075974   -0.053630
  H      2.101473    0.629118   -0.196403

 Total Charge           Charge          ....    0
 Multiplicity           Mult            ....    1
 Number of Electrons    NEL             ....   30
 Basis Dimension        Dim             ....   24

ORBITAL ENERGIES
----------------

  NO   OCC          E(Eh)            E(eV)
   0   2.0000     -20.340820      -553.5019
   1   2.0000     -11.286628      -307.1247
   2   2.0000     -11.204737      -304.8964
   3   2.0000     -11.195416      -304.6428
   4   2.0000      -1.372185       -37.3391
   5   2.0000      -1.071303       -29.1516
   6   2.0000      -0.920440       -25.0465
   7   2.0000      -0.772659       -21.0251
   8   2.0000      -0.704550       -19.1718
   9   2.0000      -0.615513       -16.7490
  10   2.0000      -0.595630       -16.2079
  11   2.0000      -0.547873       -14.9084
  12   2.0000      -0.512100       -13.9349
  13   2.0000      -0.420980       -11.4555
  14   2.0000      -0.363644        -9.8952
  15   0.0000       0.099185         2.6990
  16   0.0000       0.283141         7.7047
  17   0.0000       0.597657        16.2631
  18   0.0000       0.627677        17.0800
  19   0.0000       0.668824        18.1996

MULLIKEN ATOMIC CHARGES
-----------------------
   0 C :    0.107507
   1 O :   -0.341362
   2 C :   -0.172792
   3 C :   -0.192979
   4 H :    0.146575
   5 H :    0.146237
   6 H :    0.160606
   7 H :    0.146207
Sum of atomic charges:   -0.0000000

LOEWDIN ATOMIC CHARGES
----------------------
   0 C :    0.114188
   1 O :   -0.263612
   2 C :   -0.129781
   3 C :   -0.087106
   4 H :    0.074716
   5 H :    0.094001
   6 H :    0.107635
   7 H :    0.089960

  Mayer bond orders larger than 0.100000
B(  0-C ,  1-O ) :   1.8466 B(  0-C ,  2-C ) :   1.1082 B(  0-C ,  4-H ) :   0.9398
B(  1-O ,  3-C ) :   0.1077 B(  2-C ,  3-C ) :   1.8743 B(  2-C ,  5-H ) :   0.9586
B(  3-C ,  6-H ) :   0.9631 B(  3-C ,  7-H ) :   0.9702

-----------------------------------------------------------------------------
         ABSORPTION SPECTRUM VIA TRANSITION ELECTRIC DIPOLE MOMENTS
-----------------------------------------------------------------------------
State   Energy    Wavelength  fosc         T2        TX        TY        TZ
        (cm-1)      (nm)                 (au**2)    (au)      (au)      (au)
-----------------------------------------------------------------------------
   1   28332.4    353.0   0.000021844   0.00025  -0.01557  -0.00165   0.00295

Dispersion correction           -0.025504831
FINAL SINGLE POINT ENERGY      -189.317761164323

DIPOLE MOMENT
-------------
                                X             Y             Z
Electronic contribution:     -1.87581      -1.52847       0.47785
Nuclear contribution   :      2.39848       2.42462      -0.76583
                        -----------------------------------------
Total Dipole Moment    :      0.52266       0.89616      -0.28798
                        -----------------------------------------
Magnitude (a.u.)       :      1.07666
Magnitude (Debye)      :      2.73666

Rotational constants in cm-1:     0.769015     0.200577     0.161081
Rotational constants in MHz : 23054.501832  6013.150998  4829.072142

                             ****ORCA TERMINATED NORMALLY****
TOTAL RUN TIME: 0 days 0 hours 0 minutes 10 seconds 858 msec
