                         Program Version 5.0.3 -  RELEASE  -
|  1> ! B3LYP cc-pVDZ
|  2> !TightSCF
|  3> %scf
|  4>  ConvForced true
|  5>  convergence tight
|  6>  MaxIter 500
|  7> end
|  8>
|  9> %tddft
| 10>  nroots 1
| 11> end
| 12>
| 13> # 	16719
| 14> * xyz 0 1
| 15> 		C   -1.220418  -0.433220  -0.079605
| 16> 		O   -2.190134  -0.291365  -0.717597
| 17> 		C    0.074984   0.293658  -0.412659
| 18> 		C    1.200564   0.032989   0.321597
| 19> 		H   -1.169863  -0.957021   0.782013
| 20> 		H    0.077711   1.177536  -1.013568
| 21> 		H    1.301970  -0.657702   0.979204
| 22> 		H    1.896857   0.789008   0.111615
| 23> *
| 24>
| 25>                          ****END OF INPUT****

CARTESIAN COORDINATES (ANGSTROEM)
---------------------------------
  C     -1.220418   -0.433220   -0.079605
  O     -2.190134   -0.291365   -0.717597
  C      0.074984    0.293658   -0.412659
  C      1.200564    0.032989    0.321597
  H     -1.169863   -0.957021    0.782013
  H      0.077711    1.177536   -1.013568
  H      1.301970   -0.657702    0.979204
  H      1.896857    0.789008    0.111615

 Total Charge           Charge          ....    0
 Multiplicity           Mult            ....    1
 Number of Electrons    NEL             ....   30
 Basis Dimension        Dim             ....   76

ORBITAL ENERGIES
----------------

  NO   OCC          E(Eh)            E(eV)
   0   2.0000     -19.135676      -520.7082
   1   2.0000     -10.264877      -279.3215
   2   2.0000     -10.201795      -277.6050
   3   2.0000     -10.198289      -277.5095
   4   2.0000      -1.068040       -29.0629
   5   2.0000      -0.796253       -21.6671
   6   2.0000      -0.650535       -17.7020
   7   2.0000      -0.590091       -16.0572
   8   2.0000      -0.502367       -13.6701
   9   2.0000      -0.461773       -12.5655
  10   2.0000      -0.422729       -11.5030
  11   2.0000      -0.406697       -11.0668
  12   2.0000      -0.401686       -10.9304
  13   2.0000      -0.285691        -7.7740
  14   2.0000      -0.251735        -6.8501
  15   0.0000      -0.057811        -1.5731
  16   0.0000       0.041508         1.1295
  17   0.0000       0.078993         2.1495
  18   0.0000       0.094943         2.5835
  19   0.0000       0.137657         3.7458

MULLIKEN ATOMIC CHARGES
-----------------------
   0 C :    0.235814
   1 O :   -0.165072
   2 C :   -0.138604
   3 C :    0.151892
   4 H :   -0.057391
   5 H :   -0.002371
   6 H :   -0.039609
   7 H :    0.015341
Sum of atomic charges:   -0.0000000

LOEWDIN ATOMIC CHARGES
----------------------
   0 C :   -0.049444
   1 O :    0.042502
   2 C :   -0.037909
   3 C :    0.031164
   4 H :   -0.024562
   5 H :    0.025288
   6 H :   -0.017096
   7 H :    0.030056

  Mayer bond orders larger than 0.100000
B(  0-C ,  1-O ) :   2.2220 B(  0-C ,  2-C ) :   1.0422 B(  0-C ,  4-H ) :   0.9309
B(  2-C ,  3-C ) :   1.9536 B(  2-C ,  5-H ) :   0.9507 B(  3-C ,  6-H ) :   0.9538
B(  3-C ,  7-H ) :   0.9398

-----------------------------------------------------------------------------
         ABSORPTION SPECTRUM VIA TRANSITION ELECTRIC DIPOLE MOMENTS
-----------------------------------------------------------------------------
State   Energy    Wavelength  fosc         T2        TX        TY        TZ
        (cm-1)      (nm)                 (au**2)    (au)      (au)      (au)
-----------------------------------------------------------------------------
   1   29944.2    334.0   0.000055324   0.00061  -0.01287  -0.01611   0.01353

FINAL SINGLE POINT ENERGY      -191.636005673885

DIPOLE MOMENT
-------------
                                X             Y             Z
Electronic contribution:     -3.21797      -0.65261      -1.13478
Nuclear contribution   :      4.11153       0.70120       1.64659
                        -----------------------------------------
Total Dipole Moment    :      0.89355       0.04860       0.51181
                        -----------------------------------------
Magnitude (a.u.)       :      1.03090
Magnitude (Debye)      :      2.62033

Rotational constants in cm-1:     1.588435     0.155232     0.141821
Rotational constants in MHz : 47620.075860  4653.735058  4251.677669

                             ****ORCA TERMINATED NORMALLY****
TOTAL RUN TIME: 0 days 0 hours 3 minutes 13 seconds 620 msec
