                         Program Version 5.0.3 -  RELEASE  -
|  1> ! B3LYP cc-pVDZ
|  2> !TightSCF
|  3> %scf
|  4>  ConvForced true
|  5>  convergence tight
|  6>  MaxIter 500
|  7> end
|  8>
|  9> %tddft
| 10>  nroots 1
| 11> end
| 12>
| 13> # 	13999
| 14> * xyz 0 1
| 15> 		C   -1.315605  -0.369855   0.075091
| 16> 		O   -2.245353  -0.367116   0.713415
| 17> 		C    0.000859   0.337436   0.295902
| 18> 		C    1.120484   0.140600  -0.343660
| 19> 		H   -1.119065  -1.064378  -0.764957
| 20> 		H    0.099713   1.189215   1.169728
| 21> 		H    1.309634  -0.479121  -1.095153
| 22> 		H    2.093805   0.612463  -0.096003
| 23> *
| 24>
| 25>                          ****END OF INPUT****

CARTESIAN COORDINATES (ANGSTROEM)
---------------------------------
  C     -1.315605   -0.369855    0.075091
  O     -2.245353   -0.367116    0.713415
  C      0.000859    0.337436    0.295902
  C      1.120484    0.140600   -0.343660
  H     -1.119065   -1.064378   -0.764957
  H      0.099713    1.189215    1.169728
  H      1.309634   -0.479121   -1.095153
  H      2.093805    0.612463   -0.096003

 Total Charge           Charge          ....    0
 Multiplicity           Mult            ....    1
 Number of Electrons    NEL             ....   30
 Basis Dimension        Dim             ....   76

ORBITAL ENERGIES
----------------

  NO   OCC          E(Eh)            E(eV)
   0   2.0000     -19.148124      -521.0469
   1   2.0000     -10.277140      -279.6552
   2   2.0000     -10.210657      -277.8461
   3   2.0000     -10.203856      -277.6610
   4   2.0000      -1.101702       -29.9788
   5   2.0000      -0.801869       -21.8200
   6   2.0000      -0.651528       -17.7290
   7   2.0000      -0.566705       -15.4208
   8   2.0000      -0.496028       -13.4976
   9   2.0000      -0.472478       -12.8568
  10   2.0000      -0.433282       -11.7902
  11   2.0000      -0.430110       -11.7039
  12   2.0000      -0.368049       -10.0151
  13   2.0000      -0.299890        -8.1604
  14   2.0000      -0.256578        -6.9818
  15   0.0000      -0.053512        -1.4561
  16   0.0000       0.056936         1.5493
  17   0.0000       0.068237         1.8568
  18   0.0000       0.083528         2.2729
  19   0.0000       0.130579         3.5532

MULLIKEN ATOMIC CHARGES
-----------------------
   0 C :    0.201168
   1 O :   -0.107107
   2 C :   -0.167738
   3 C :    0.095411
   4 H :   -0.055818
   5 H :    0.019856
   6 H :   -0.020382
   7 H :    0.034611
Sum of atomic charges:    0.0000000

LOEWDIN ATOMIC CHARGES
----------------------
   0 C :   -0.091008
   1 O :    0.096213
   2 C :   -0.075228
   3 C :    0.003393
   4 H :   -0.020546
   5 H :    0.045346
   6 H :   -0.001460
   7 H :    0.043291

  Mayer bond orders larger than 0.100000
B(  0-C ,  1-O ) :   2.2999 B(  0-C ,  2-C ) :   1.0080 B(  0-C ,  4-H ) :   0.8960
B(  2-C ,  3-C ) :   1.9872 B(  2-C ,  5-H ) :   0.9207 B(  3-C ,  6-H ) :   0.9452
B(  3-C ,  7-H ) :   0.9397

-----------------------------------------------------------------------------
         ABSORPTION SPECTRUM VIA TRANSITION ELECTRIC DIPOLE MOMENTS
-----------------------------------------------------------------------------
State   Energy    Wavelength  fosc         T2        TX        TY        TZ
        (cm-1)      (nm)                 (au**2)    (au)      (au)      (au)
-----------------------------------------------------------------------------
   1   32081.6    311.7   0.000084569   0.00087  -0.00254   0.02911  -0.00372

FINAL SINGLE POINT ENERGY      -191.626480948154

DIPOLE MOMENT
-------------
                                X             Y             Z
Electronic contribution:     -3.71234      -0.46352       1.04686
Nuclear contribution   :      4.61284       0.52668      -1.46303
                        -----------------------------------------
Total Dipole Moment    :      0.90050       0.06316      -0.41616
                        -----------------------------------------
Magnitude (a.u.)       :      0.99402
Magnitude (Debye)      :      2.52659

Rotational constants in cm-1:     1.742139     0.151205     0.139510
Rotational constants in MHz : 52228.017560  4533.021931  4182.404347

                             ****ORCA TERMINATED NORMALLY****
TOTAL RUN TIME: 0 days 0 hours 3 minutes 6 seconds 960 msec
