                         Program Version 5.0.3 -  RELEASE  -
|  1> ! B3LYP cc-pVDZ
|  2> !TightSCF
|  3> %scf
|  4>  ConvForced true
|  5>  convergence tight
|  6>  MaxIter 500
|  7> end
|  8>
|  9> %tddft
| 10>  nroots 1
| 11> end
| 12>
| 13> # 	31402
| 14> * xyz 0 1
| 15> 		C   -0.502311  -0.365190  -0.060890
| 16> 		O   -0.544236  -1.630458   0.024018
| 17> 		C    0.602635   0.368555   0.062281
| 18> 		C    1.771552  -0.167661  -0.009147
| 19> 		H   -1.594823   0.387704  -0.020386
| 20> 		H    0.553457   1.599424  -0.074650
| 21> 		H    1.850516  -1.227742  -0.131530
| 22> 		H    2.501778   0.380385  -0.066109
| 23> *
| 24>
| 25>                          ****END OF INPUT****

CARTESIAN COORDINATES (ANGSTROEM)
---------------------------------
  C     -0.502311   -0.365190   -0.060890
  O     -0.544236   -1.630458    0.024018
  C      0.602635    0.368555    0.062281
  C      1.771552   -0.167661   -0.009147
  H     -1.594823    0.387704   -0.020386
  H      0.553457    1.599424   -0.074650
  H      1.850516   -1.227742   -0.131530
  H      2.501778    0.380385   -0.066109

 Total Charge           Charge          ....    0
 Multiplicity           Mult            ....    1
 Number of Electrons    NEL             ....   30
 Basis Dimension        Dim             ....   76

ORBITAL ENERGIES
----------------

  NO   OCC          E(Eh)            E(eV)
   0   2.0000     -19.140975      -520.8524
   1   2.0000     -10.282249      -279.7942
   2   2.0000     -10.208174      -277.7785
   3   2.0000     -10.200766      -277.5770
   4   2.0000      -1.020173       -27.7603
   5   2.0000      -0.833125       -22.6705
   6   2.0000      -0.692272       -18.8377
   7   2.0000      -0.527393       -14.3511
   8   2.0000      -0.524394       -14.2695
   9   2.0000      -0.450429       -12.2568
  10   2.0000      -0.414907       -11.2902
  11   2.0000      -0.402294       -10.9470
  12   2.0000      -0.368772       -10.0348
  13   2.0000      -0.296076        -8.0566
  14   2.0000      -0.256604        -6.9825
  15   0.0000      -0.088455        -2.4070
  16   0.0000       0.032102         0.8735
  17   0.0000       0.074484         2.0268
  18   0.0000       0.087355         2.3770
  19   0.0000       0.113352         3.0845

MULLIKEN ATOMIC CHARGES
-----------------------
   0 C :    0.135019
   1 O :   -0.232562
   2 C :   -0.155925
   3 C :    0.278344
   4 H :   -0.017539
   5 H :    0.022805
   6 H :    0.028294
   7 H :   -0.058436
Sum of atomic charges:    0.0000000

LOEWDIN ATOMIC CHARGES
----------------------
   0 C :   -0.032688
   1 O :   -0.053866
   2 C :   -0.094566
   3 C :    0.104379
   4 H :    0.000358
   5 H :    0.057222
   6 H :    0.040514
   7 H :   -0.021353

  Mayer bond orders larger than 0.100000
B(  0-C ,  1-O ) :   2.0920 B(  0-C ,  2-C ) :   1.1516 B(  0-C ,  4-H ) :   0.8774
B(  1-O ,  3-C ) :   0.1309 B(  2-C ,  3-C ) :   1.9351 B(  2-C ,  5-H ) :   0.9226
B(  3-C ,  6-H ) :   0.9322 B(  3-C ,  7-H ) :   0.9045

-----------------------------------------------------------------------------
         ABSORPTION SPECTRUM VIA TRANSITION ELECTRIC DIPOLE MOMENTS
-----------------------------------------------------------------------------
State   Energy    Wavelength  fosc         T2        TX        TY        TZ
        (cm-1)      (nm)                 (au**2)    (au)      (au)      (au)
-----------------------------------------------------------------------------
   1   24275.3    411.9   0.000455467   0.00618  -0.04448   0.02152   0.06112

FINAL SINGLE POINT ENERGY      -191.614425631125

DIPOLE MOMENT
-------------
                                X             Y             Z
Electronic contribution:     -1.21842      -1.95187       0.17100
Nuclear contribution   :      1.94817       2.85355      -0.27396
                        -----------------------------------------
Total Dipole Moment    :      0.72976       0.90168      -0.10296
                        -----------------------------------------
Magnitude (a.u.)       :      1.16455
Magnitude (Debye)      :      2.96005

Rotational constants in cm-1:     0.737897     0.233387     0.177790
Rotational constants in MHz : 22121.582421  6996.765800  5330.010305

                             ****ORCA TERMINATED NORMALLY****
TOTAL RUN TIME: 0 days 0 hours 3 minutes 22 seconds 40 msec
