                         Program Version 5.0.3 -  RELEASE  -
|  1> ! HF-3c
|  2> !TightSCF
|  3> %scf
|  4>  ConvForced true
|  5>  convergence tight
|  6>  MaxIter 500
|  7> end
|  8>
|  9> %tddft
| 10>  nroots 1
| 11> end
| 12>
| 13> # 	841
| 14> * xyz 0 1
| 15> 		C   -1.205496  -0.333750  -0.053383
| 16> 		O   -1.206460  -1.572003  -0.055305
| 17> 		C    0.027558   0.553678   0.006340
| 18> 		C    1.255054  -0.044015   0.003449
| 19> 		H   -2.216772   0.278036   0.004910
| 20> 		H   -0.029038   1.636861  -0.033515
| 21> 		H    1.444611  -1.191102   0.027164
| 22> 		H    1.943715   0.712099   0.105701
| 23> *
| 24>
| 25>                          ****END OF INPUT****

CARTESIAN COORDINATES (ANGSTROEM)
---------------------------------
  C     -1.205496   -0.333750   -0.053383
  O     -1.206460   -1.572003   -0.055305
  C      0.027558    0.553678    0.006340
  C      1.255054   -0.044015    0.003449
  H     -2.216772    0.278036    0.004910
  H     -0.029038    1.636861   -0.033515
  H      1.444611   -1.191102    0.027164
  H      1.943715    0.712099    0.105701

 Total Charge           Charge          ....    0
 Multiplicity           Mult            ....    1
 Number of Electrons    NEL             ....   30
 Basis Dimension        Dim             ....   24

ORBITAL ENERGIES
----------------

  NO   OCC          E(Eh)            E(eV)
   0   2.0000     -20.351740      -553.7990
   1   2.0000     -11.283458      -307.0385
   2   2.0000     -11.186515      -304.4005
   3   2.0000     -11.180598      -304.2395
   4   2.0000      -1.374057       -37.3900
   5   2.0000      -1.068154       -29.0660
   6   2.0000      -0.874688       -23.8015
   7   2.0000      -0.729348       -19.8466
   8   2.0000      -0.692669       -18.8485
   9   2.0000      -0.597484       -16.2584
  10   2.0000      -0.571538       -15.5523
  11   2.0000      -0.539958       -14.6930
  12   2.0000      -0.520538       -14.1646
  13   2.0000      -0.400750       -10.9050
  14   2.0000      -0.384226       -10.4553
  15   0.0000       0.130040         3.5386
  16   0.0000       0.296277         8.0621
  17   0.0000       0.525680        14.3045
  18   0.0000       0.576317        15.6824
  19   0.0000       0.583555        15.8793

MULLIKEN ATOMIC CHARGES
-----------------------
   0 C :    0.171455
   1 O :   -0.360980
   2 C :   -0.176151
   3 C :   -0.221625
   4 H :    0.128498
   5 H :    0.141977
   6 H :    0.174041
   7 H :    0.142785
Sum of atomic charges:    0.0000000

LOEWDIN ATOMIC CHARGES
----------------------
   0 C :    0.152658
   1 O :   -0.273833
   2 C :   -0.135121
   3 C :   -0.120675
   4 H :    0.073152
   5 H :    0.090597
   6 H :    0.124277
   7 H :    0.088945

  Mayer bond orders larger than 0.100000
B(  0-C ,  1-O ) :   1.9107 B(  0-C ,  2-C ) :   1.0173 B(  0-C ,  4-H ) :   0.9198
B(  2-C ,  3-C ) :   1.9393 B(  2-C ,  5-H ) :   0.9625 B(  3-C ,  6-H ) :   0.9553
B(  3-C ,  7-H ) :   0.9675

-----------------------------------------------------------------------------
         ABSORPTION SPECTRUM VIA TRANSITION ELECTRIC DIPOLE MOMENTS
-----------------------------------------------------------------------------
State   Energy    Wavelength  fosc         T2        TX        TY        TZ
        (cm-1)      (nm)                 (au**2)    (au)      (au)      (au)
-----------------------------------------------------------------------------
   1   31780.1    314.7   0.000088647   0.00092  -0.02748  -0.00138   0.01270

Dispersion correction           -0.025215310
FINAL SINGLE POINT ENERGY      -189.328390393072

DIPOLE MOMENT
-------------
                                X             Y             Z
Electronic contribution:     -1.86794      -1.81691      -0.15040
Nuclear contribution   :      2.21151       2.77473       0.18458
                        -----------------------------------------
Total Dipole Moment    :      0.34357       0.95782       0.03418
                        -----------------------------------------
Magnitude (a.u.)       :      1.01815
Magnitude (Debye)      :      2.58793

Rotational constants in cm-1:     0.717913     0.203521     0.158613
Rotational constants in MHz : 21522.488047  6101.393570  4755.091920

                             ****ORCA TERMINATED NORMALLY****
TOTAL RUN TIME: 0 days 0 hours 0 minutes 10 seconds 793 msec
