                         Program Version 5.0.3 -  RELEASE  -
|  1> ! HF-3c
|  2> !TightSCF
|  3> %scf
|  4>  ConvForced true
|  5>  convergence tight
|  6>  MaxIter 500
|  7> end
|  8>
|  9> %tddft
| 10>  nroots 1
| 11> end
| 12>
| 13> # 	3398
| 14> * xyz 0 1
| 15> 		C   -1.156408  -0.347564   0.005128
| 16> 		O   -2.148318  -0.368699   0.843095
| 17> 		C    0.081414   0.349039   0.392589
| 18> 		C    1.166867   0.202624  -0.332920
| 19> 		H   -1.159574  -1.015877  -0.943765
| 20> 		H   -0.017893   0.956992   1.208002
| 21> 		H    1.239599  -0.350975  -1.188145
| 22> 		H    1.988922   0.582718   0.007354
| 23> *
| 24>
| 25>                          ****END OF INPUT****

CARTESIAN COORDINATES (ANGSTROEM)
---------------------------------
  C     -1.156408   -0.347564    0.005128
  O     -2.148318   -0.368699    0.843095
  C      0.081414    0.349039    0.392589
  C      1.166867    0.202624   -0.332920
  H     -1.159574   -1.015877   -0.943765
  H     -0.017893    0.956992    1.208002
  H      1.239599   -0.350975   -1.188145
  H      1.988922    0.582718    0.007354

 Total Charge           Charge          ....    0
 Multiplicity           Mult            ....    1
 Number of Electrons    NEL             ....   30
 Basis Dimension        Dim             ....   24

ORBITAL ENERGIES
----------------

  NO   OCC          E(Eh)            E(eV)
   0   2.0000     -20.344677      -553.6068
   1   2.0000     -11.277855      -306.8860
   2   2.0000     -11.212191      -305.0992
   3   2.0000     -11.205387      -304.9141
   4   2.0000      -1.342492       -36.5311
   5   2.0000      -1.111186       -30.2369
   6   2.0000      -0.901714       -24.5369
   7   2.0000      -0.792519       -21.5655
   8   2.0000      -0.676352       -18.4045
   9   2.0000      -0.667681       -18.1685
  10   2.0000      -0.577797       -15.7227
  11   2.0000      -0.553455       -15.0603
  12   2.0000      -0.516680       -14.0596
  13   2.0000      -0.418695       -11.3933
  14   2.0000      -0.397818       -10.8252
  15   0.0000       0.113118         3.0781
  16   0.0000       0.284695         7.7469
  17   0.0000       0.545390        14.8408
  18   0.0000       0.617841        16.8123
  19   0.0000       0.689090        18.7511

MULLIKEN ATOMIC CHARGES
-----------------------
   0 C :    0.147738
   1 O :   -0.335186
   2 C :   -0.160351
   3 C :   -0.261572
   4 H :    0.145289
   5 H :    0.164927
   6 H :    0.150096
   7 H :    0.149058
Sum of atomic charges:    0.0000000

LOEWDIN ATOMIC CHARGES
----------------------
   0 C :    0.141497
   1 O :   -0.265251
   2 C :   -0.099684
   3 C :   -0.148782
   4 H :    0.088609
   5 H :    0.101470
   6 H :    0.093831
   7 H :    0.088311

  Mayer bond orders larger than 0.100000
B(  0-C ,  1-O ) :   1.8911 B(  0-C ,  2-C ) :   1.0470 B(  0-C ,  4-H ) :   0.9284
B(  2-C ,  3-C ) :   1.9405 B(  2-C ,  5-H ) :   0.9550 B(  3-C ,  6-H ) :   0.9651
B(  3-C ,  7-H ) :   0.9660

-----------------------------------------------------------------------------
         ABSORPTION SPECTRUM VIA TRANSITION ELECTRIC DIPOLE MOMENTS
-----------------------------------------------------------------------------
State   Energy    Wavelength  fosc         T2        TX        TY        TZ
        (cm-1)      (nm)                 (au**2)    (au)      (au)      (au)
-----------------------------------------------------------------------------
   1   27880.0    358.7   0.000030028   0.00035  -0.00502  -0.01201  -0.01361

Dispersion correction           -0.025825218
FINAL SINGLE POINT ENERGY      -189.333206972923

DIPOLE MOMENT
-------------
                                X             Y             Z
Electronic contribution:     -3.06707      -0.36414       1.10177
Nuclear contribution   :      3.98911       0.37667      -1.74407
                        -----------------------------------------
Total Dipole Moment    :      0.92205       0.01253      -0.64230
                        -----------------------------------------
Magnitude (a.u.)       :      1.12378
Magnitude (Debye)      :      2.85642

Rotational constants in cm-1:     1.516982     0.156135     0.142100
Rotational constants in MHz : 45477.982706  4680.807943  4260.058355

                             ****ORCA TERMINATED NORMALLY****
TOTAL RUN TIME: 0 days 0 hours 0 minutes 10 seconds 624 msec
