                         Program Version 5.0.3 -  RELEASE  -
|  1> ! HF-3c
|  2> !TightSCF
|  3> %scf
|  4>  ConvForced true
|  5>  convergence tight
|  6>  MaxIter 500
|  7> end
|  8>
|  9> %tddft
| 10>  nroots 1
| 11> end
| 12>
| 13> # 	30637
| 14> * xyz 0 1
| 15> 		C   -0.494737  -0.375028   0.073613
| 16> 		O   -0.574820  -1.621963  -0.034793
| 17> 		C    0.592319   0.375167  -0.056088
| 18> 		C    1.808326  -0.144636  -0.007933
| 19> 		H   -1.571175   0.163202   0.049565
| 20> 		H    0.315191   1.429441   0.002935
| 21> 		H    1.838950  -1.254185   0.293909
| 22> 		H    2.760825   0.391651   0.090685
| 23> *
| 24>
| 25>                          ****END OF INPUT****

CARTESIAN COORDINATES (ANGSTROEM)
---------------------------------
  C     -0.494737   -0.375028    0.073613
  O     -0.574820   -1.621963   -0.034793
  C      0.592319    0.375167   -0.056088
  C      1.808326   -0.144636   -0.007933
  H     -1.571175    0.163202    0.049565
  H      0.315191    1.429441    0.002935
  H      1.838950   -1.254185    0.293909
  H      2.760825    0.391651    0.090685

 Total Charge           Charge          ....    0
 Multiplicity           Mult            ....    1
 Number of Electrons    NEL             ....   30
 Basis Dimension        Dim             ....   24

ORBITAL ENERGIES
----------------

  NO   OCC          E(Eh)            E(eV)
   0   2.0000     -20.327483      -553.1389
   1   2.0000     -11.274336      -306.7903
   2   2.0000     -11.207780      -304.9792
   3   2.0000     -11.198805      -304.7350
   4   2.0000      -1.360609       -37.0241
   5   2.0000      -1.108888       -30.1744
   6   2.0000      -0.914378       -24.8815
   7   2.0000      -0.718927       -19.5630
   8   2.0000      -0.707428       -19.2501
   9   2.0000      -0.621833       -16.9209
  10   2.0000      -0.570417       -15.5218
  11   2.0000      -0.540892       -14.7184
  12   2.0000      -0.510332       -13.8868
  13   2.0000      -0.403077       -10.9683
  14   2.0000      -0.381136       -10.3712
  15   0.0000       0.106966         2.9107
  16   0.0000       0.332280         9.0418
  17   0.0000       0.499737        13.5985
  18   0.0000       0.595663        16.2088
  19   0.0000       0.657189        17.8830

MULLIKEN ATOMIC CHARGES
-----------------------
   0 C :    0.146093
   1 O :   -0.358440
   2 C :   -0.214073
   3 C :   -0.178775
   4 H :    0.130797
   5 H :    0.152566
   6 H :    0.168515
   7 H :    0.153317
Sum of atomic charges:    0.0000000

LOEWDIN ATOMIC CHARGES
----------------------
   0 C :    0.129934
   1 O :   -0.282069
   2 C :   -0.161510
   3 C :   -0.080848
   4 H :    0.076926
   5 H :    0.099400
   6 H :    0.117154
   7 H :    0.101013

  Mayer bond orders larger than 0.100000
B(  0-C ,  1-O ) :   1.8337 B(  0-C ,  2-C ) :   1.1233 B(  0-C ,  4-H ) :   0.9240
B(  1-O ,  3-C ) :   0.1201 B(  2-C ,  3-C ) :   1.8733 B(  2-C ,  5-H ) :   0.9480
B(  3-C ,  6-H ) :   0.9516 B(  3-C ,  7-H ) :   0.9632

-----------------------------------------------------------------------------
         ABSORPTION SPECTRUM VIA TRANSITION ELECTRIC DIPOLE MOMENTS
-----------------------------------------------------------------------------
State   Energy    Wavelength  fosc         T2        TX        TY        TZ
        (cm-1)      (nm)                 (au**2)    (au)      (au)      (au)
-----------------------------------------------------------------------------
   1   27525.4    363.3   0.000093729   0.00112  -0.02217   0.00976  -0.02312

Dispersion correction           -0.026501009
FINAL SINGLE POINT ENERGY      -189.317837316527

DIPOLE MOMENT
-------------
                                X             Y             Z
Electronic contribution:     -1.47502      -1.52509      -0.24204
Nuclear contribution   :      1.98174       2.47198       0.40961
                        -----------------------------------------
Total Dipole Moment    :      0.50672       0.94689       0.16757
                        -----------------------------------------
Magnitude (a.u.)       :      1.08694
Magnitude (Debye)      :      2.76279

Rotational constants in cm-1:     0.765599     0.224117     0.174158
Rotational constants in MHz : 22952.071533  6718.855420  5221.113528

                             ****ORCA TERMINATED NORMALLY****
TOTAL RUN TIME: 0 days 0 hours 0 minutes 16 seconds 50 msec
