                         Program Version 5.0.3 -  RELEASE  -
|  1> ! B3LYP cc-pVDZ
|  2> !TightSCF
|  3> %scf
|  4>  ConvForced true
|  5>  convergence tight
|  6>  MaxIter 500
|  7> end
|  8>
|  9> %tddft
| 10>  nroots 1
| 11> end
| 12>
| 13> # 	28743
| 14> * xyz 0 1
| 15> 		C   -0.553517  -0.445617  -0.012222
| 16> 		O   -0.600151  -1.636408   0.009235
| 17> 		C    0.629125   0.377002  -0.006655
| 18> 		C    1.829258  -0.106424  -0.017569
| 19> 		H   -1.415032   0.363455   0.056897
| 20> 		H    0.419634   1.591159   0.056938
| 21> 		H    2.028245  -1.138056  -0.002703
| 22> 		H    2.764246   0.538195   0.188519
| 23> *
| 24>
| 25>                          ****END OF INPUT****

CARTESIAN COORDINATES (ANGSTROEM)
---------------------------------
  C     -0.553517   -0.445617   -0.012222
  O     -0.600151   -1.636408    0.009235
  C      0.629125    0.377002   -0.006655
  C      1.829258   -0.106424   -0.017569
  H     -1.415032    0.363455    0.056897
  H      0.419634    1.591159    0.056938
  H      2.028245   -1.138056   -0.002703
  H      2.764246    0.538195    0.188519

 Total Charge           Charge          ....    0
 Multiplicity           Mult            ....    1
 Number of Electrons    NEL             ....   30
 Basis Dimension        Dim             ....   76

ORBITAL ENERGIES
----------------

  NO   OCC          E(Eh)            E(eV)
   0   2.0000     -19.147030      -521.0172
   1   2.0000     -10.279043      -279.7070
   2   2.0000     -10.212449      -277.8949
   3   2.0000     -10.208179      -277.7787
   4   2.0000      -1.061884       -28.8953
   5   2.0000      -0.806991       -21.9593
   6   2.0000      -0.665459       -18.1081
   7   2.0000      -0.531059       -14.4509
   8   2.0000      -0.499789       -13.6000
   9   2.0000      -0.459479       -12.5030
  10   2.0000      -0.416507       -11.3337
  11   2.0000      -0.410930       -11.1820
  12   2.0000      -0.370122       -10.0715
  13   2.0000      -0.298383        -8.1194
  14   2.0000      -0.258910        -7.0453
  15   0.0000      -0.070571        -1.9203
  16   0.0000       0.040696         1.1074
  17   0.0000       0.074227         2.0198
  18   0.0000       0.086389         2.3508
  19   0.0000       0.120478         3.2784

MULLIKEN ATOMIC CHARGES
-----------------------
   0 C :    0.179769
   1 O :   -0.166052
   2 C :   -0.167214
   3 C :    0.091338
   4 H :   -0.029713
   5 H :    0.023434
   6 H :    0.022898
   7 H :    0.045540
Sum of atomic charges:   -0.0000000

LOEWDIN ATOMIC CHARGES
----------------------
   0 C :   -0.063936
   1 O :    0.024243
   2 C :   -0.102070
   3 C :    0.026398
   4 H :   -0.007610
   5 H :    0.050595
   6 H :    0.024369
   7 H :    0.048012

  Mayer bond orders larger than 0.100000
B(  0-C ,  1-O ) :   2.2309 B(  0-C ,  2-C ) :   1.0647 B(  0-C ,  4-H ) :   0.8901
B(  2-C ,  3-C ) :   1.9703 B(  2-C ,  5-H ) :   0.9283 B(  3-C ,  6-H ) :   0.9319
B(  3-C ,  7-H ) :   0.9383

-----------------------------------------------------------------------------
         ABSORPTION SPECTRUM VIA TRANSITION ELECTRIC DIPOLE MOMENTS
-----------------------------------------------------------------------------
State   Energy    Wavelength  fosc         T2        TX        TY        TZ
        (cm-1)      (nm)                 (au**2)    (au)      (au)      (au)
-----------------------------------------------------------------------------
   1   28608.5    349.5   0.000190707   0.00219   0.00410   0.00543   0.04635

FINAL SINGLE POINT ENERGY      -191.653174846727

DIPOLE MOMENT
-------------
                                X             Y             Z
Electronic contribution:     -1.87321      -2.26602      -0.24020
Nuclear contribution   :      2.40401       3.05566       0.28045
                        -----------------------------------------
Total Dipole Moment    :      0.53081       0.78964       0.04025
                        -----------------------------------------
Magnitude (a.u.)       :      0.95232
Magnitude (Debye)      :      2.42061

Rotational constants in cm-1:     0.787278     0.209855     0.165851
Rotational constants in MHz : 23601.991891  6291.286217  4972.092282

                             ****ORCA TERMINATED NORMALLY****
TOTAL RUN TIME: 0 days 0 hours 3 minutes 23 seconds 215 msec
