                         Program Version 5.0.3 -  RELEASE  -
|  1> ! HF-3c
|  2> !TightSCF
|  3> %scf
|  4>  ConvForced true
|  5>  convergence tight
|  6>  MaxIter 500
|  7> end
|  8>
|  9> %tddft
| 10>  nroots 1
| 11> end
| 12>
| 13> # 	25668
| 14> * xyz 0 1
| 15> 		C   -0.559078  -0.427027   0.002515
| 16> 		O   -0.585464  -1.644816   0.001317
| 17> 		C    0.622594   0.416481  -0.001800
| 18> 		C    1.804613  -0.136664   0.008446
| 19> 		H   -1.394504   0.234302  -0.017906
| 20> 		H    0.563533   1.597012  -0.029461
| 21> 		H    2.171351  -1.089419  -0.100679
| 22> 		H    2.679086   0.416776   0.019492
| 23> *
| 24>
| 25>                          ****END OF INPUT****

CARTESIAN COORDINATES (ANGSTROEM)
---------------------------------
  C     -0.559078   -0.427027    0.002515
  O     -0.585464   -1.644816    0.001317
  C      0.622594    0.416481   -0.001800
  C      1.804613   -0.136664    0.008446
  H     -1.394504    0.234302   -0.017906
  H      0.563533    1.597012   -0.029461
  H      2.171351   -1.089419   -0.100679
  H      2.679086    0.416776    0.019492

 Total Charge           Charge          ....    0
 Multiplicity           Mult            ....    1
 Number of Electrons    NEL             ....   30
 Basis Dimension        Dim             ....   24

ORBITAL ENERGIES
----------------

  NO   OCC          E(Eh)            E(eV)
   0   2.0000     -20.370478      -554.3089
   1   2.0000     -11.297907      -307.4317
   2   2.0000     -11.194245      -304.6109
   3   2.0000     -11.192278      -304.5574
   4   2.0000      -1.397331       -38.0233
   5   2.0000      -1.093052       -29.7435
   6   2.0000      -0.917305       -24.9611
   7   2.0000      -0.768499       -20.9119
   8   2.0000      -0.701040       -19.0763
   9   2.0000      -0.627427       -17.0731
  10   2.0000      -0.590028       -16.0555
  11   2.0000      -0.545791       -14.8517
  12   2.0000      -0.527811       -14.3625
  13   2.0000      -0.416441       -11.3319
  14   2.0000      -0.401215       -10.9176
  15   0.0000       0.126128         3.4321
  16   0.0000       0.317080         8.6282
  17   0.0000       0.513044        13.9606
  18   0.0000       0.604954        16.4616
  19   0.0000       0.699240        19.0273

MULLIKEN ATOMIC CHARGES
-----------------------
   0 C :    0.161629
   1 O :   -0.344833
   2 C :   -0.167247
   3 C :   -0.233666
   4 H :    0.133669
   5 H :    0.153907
   6 H :    0.158045
   7 H :    0.138497
Sum of atomic charges:   -0.0000000

LOEWDIN ATOMIC CHARGES
----------------------
   0 C :    0.150031
   1 O :   -0.253298
   2 C :   -0.130418
   3 C :   -0.123733
   4 H :    0.066975
   5 H :    0.107714
   6 H :    0.098191
   7 H :    0.084538

  Mayer bond orders larger than 0.100000
B(  0-C ,  1-O ) :   1.9059 B(  0-C ,  2-C ) :   1.0344 B(  0-C ,  4-H ) :   0.9268
B(  2-C ,  3-C ) :   1.9425 B(  2-C ,  5-H ) :   0.9521 B(  3-C ,  6-H ) :   0.9618
B(  3-C ,  7-H ) :   0.9657

-----------------------------------------------------------------------------
         ABSORPTION SPECTRUM VIA TRANSITION ELECTRIC DIPOLE MOMENTS
-----------------------------------------------------------------------------
State   Energy    Wavelength  fosc         T2        TX        TY        TZ
        (cm-1)      (nm)                 (au**2)    (au)      (au)      (au)
-----------------------------------------------------------------------------
   1   31831.5    314.2   0.000000549   0.00001   0.00117  -0.00175  -0.00112

Dispersion correction           -0.025812622
FINAL SINGLE POINT ENERGY      -189.320794701255

DIPOLE MOMENT
-------------
                                X             Y             Z
Electronic contribution:     -2.24228      -1.85410       0.08917
Nuclear contribution   :      2.61165       2.87144      -0.12069
                        -----------------------------------------
Total Dipole Moment    :      0.36938       1.01734      -0.03152
                        -----------------------------------------
Magnitude (a.u.)       :      1.08278
Magnitude (Debye)      :      2.75220

Rotational constants in cm-1:     0.765271     0.213652     0.167064
Rotational constants in MHz : 22942.258589  6405.122174  5008.461385

                             ****ORCA TERMINATED NORMALLY****
TOTAL RUN TIME: 0 days 0 hours 0 minutes 10 seconds 998 msec
