                         Program Version 5.0.3 -  RELEASE  -
|  1> ! HF-3c
|  2> !TightSCF
|  3> %scf
|  4>  ConvForced true
|  5>  convergence tight
|  6>  MaxIter 500
|  7> end
|  8>
|  9> %tddft
| 10>  nroots 1
| 11> end
| 12>
| 13> # 	1711
| 14> * xyz 0 1
| 15> 		C   -1.142582  -0.367207  -0.050960
| 16> 		O   -1.597322  -1.267658  -0.750406
| 17> 		C   -0.012597   0.490232  -0.192945
| 18> 		C    1.200067  -0.002983   0.216649
| 19> 		H   -1.684972  -0.156852   0.854379
| 20> 		H   -0.253326   1.487945  -0.664830
| 21> 		H    1.432582  -0.975124   0.558717
| 22> 		H    2.079577   0.697358   0.054511
| 23> *
| 24>
| 25>                          ****END OF INPUT****

CARTESIAN COORDINATES (ANGSTROEM)
---------------------------------
  C     -1.142582   -0.367207   -0.050960
  O     -1.597322   -1.267658   -0.750406
  C     -0.012597    0.490232   -0.192945
  C      1.200067   -0.002983    0.216649
  H     -1.684972   -0.156852    0.854379
  H     -0.253326    1.487945   -0.664830
  H      1.432582   -0.975124    0.558717
  H      2.079577    0.697358    0.054511

 Total Charge           Charge          ....    0
 Multiplicity           Mult            ....    1
 Number of Electrons    NEL             ....   30
 Basis Dimension        Dim             ....   24

ORBITAL ENERGIES
----------------

  NO   OCC          E(Eh)            E(eV)
   0   2.0000     -20.367323      -554.2230
   1   2.0000     -11.291999      -307.2709
   2   2.0000     -11.196769      -304.6796
   3   2.0000     -11.184302      -304.3403
   4   2.0000      -1.390270       -37.8312
   5   2.0000      -1.082543       -29.4575
   6   2.0000      -0.897478       -24.4216
   7   2.0000      -0.760781       -20.7019
   8   2.0000      -0.682216       -18.5640
   9   2.0000      -0.628977       -17.1153
  10   2.0000      -0.610470       -16.6117
  11   2.0000      -0.546574       -14.8730
  12   2.0000      -0.489890       -13.3306
  13   2.0000      -0.417541       -11.3619
  14   2.0000      -0.386776       -10.5247
  15   0.0000       0.182352         4.9621
  16   0.0000       0.198674         5.4062
  17   0.0000       0.550834        14.9890
  18   0.0000       0.628519        17.1029
  19   0.0000       0.655533        17.8380

MULLIKEN ATOMIC CHARGES
-----------------------
   0 C :    0.153175
   1 O :   -0.337783
   2 C :   -0.167364
   3 C :   -0.231548
   4 H :    0.132613
   5 H :    0.162525
   6 H :    0.147543
   7 H :    0.140839
Sum of atomic charges:    0.0000000

LOEWDIN ATOMIC CHARGES
----------------------
   0 C :    0.145641
   1 O :   -0.250062
   2 C :   -0.123006
   3 C :   -0.141297
   4 H :    0.067489
   5 H :    0.112415
   6 H :    0.093934
   7 H :    0.094886

  Mayer bond orders larger than 0.100000
B(  0-C ,  1-O ) :   1.9355 B(  0-C ,  2-C ) :   1.0171 B(  0-C ,  4-H ) :   0.9205
B(  2-C ,  3-C ) :   1.9763 B(  2-C ,  5-H ) :   0.9437 B(  3-C ,  6-H ) :   0.9667
B(  3-C ,  7-H ) :   0.9640

-----------------------------------------------------------------------------
         ABSORPTION SPECTRUM VIA TRANSITION ELECTRIC DIPOLE MOMENTS
-----------------------------------------------------------------------------
State   Energy    Wavelength  fosc         T2        TX        TY        TZ
        (cm-1)      (nm)                 (au**2)    (au)      (au)      (au)
-----------------------------------------------------------------------------
   1   33182.9    301.4   0.000028725   0.00028  -0.01657  -0.00123  -0.00299

Dispersion correction           -0.025195219
FINAL SINGLE POINT ENERGY      -189.312490131967

DIPOLE MOMENT
-------------
                                X             Y             Z
Electronic contribution:     -2.47182      -1.39404      -1.01528
Nuclear contribution   :      3.02743       2.16412       1.51645
                        -----------------------------------------
Total Dipole Moment    :      0.55560       0.77007       0.50117
                        -----------------------------------------
Magnitude (a.u.)       :      1.07372
Magnitude (Debye)      :      2.72919

Rotational constants in cm-1:     0.944510     0.173093     0.158409
Rotational constants in MHz : 28315.683962  5189.192963  4748.986532

                             ****ORCA TERMINATED NORMALLY****
TOTAL RUN TIME: 0 days 0 hours 0 minutes 11 seconds 495 msec
