                         Program Version 5.0.3 -  RELEASE  -
|  1> ! B3LYP cc-pVDZ
|  2> !TightSCF
|  3> %scf
|  4>  ConvForced true
|  5>  convergence tight
|  6>  MaxIter 500
|  7> end
|  8>
|  9> %tddft
| 10>  nroots 1
| 11> end
| 12>
| 13> # 	21393
| 14> * xyz 0 1
| 15> 		C   -0.531774  -0.438807  -0.018485
| 16> 		O   -0.577122  -1.619725   0.012920
| 17> 		C    0.620575   0.412593   0.039090
| 18> 		C    1.808739  -0.143353  -0.009397
| 19> 		H   -1.475279   0.216414  -0.235267
| 20> 		H    0.386050   1.595344   0.084240
| 21> 		H    1.846643  -1.317190  -0.009929
| 22> 		H    2.767117   0.501080  -0.179814
| 23> *
| 24>
| 25>                          ****END OF INPUT****

CARTESIAN COORDINATES (ANGSTROEM)
---------------------------------
  C     -0.531774   -0.438807   -0.018485
  O     -0.577122   -1.619725    0.012920
  C      0.620575    0.412593    0.039090
  C      1.808739   -0.143353   -0.009397
  H     -1.475279    0.216414   -0.235267
  H      0.386050    1.595344    0.084240
  H      1.846643   -1.317190   -0.009929
  H      2.767117    0.501080   -0.179814

 Total Charge           Charge          ....    0
 Multiplicity           Mult            ....    1
 Number of Electrons    NEL             ....   30
 Basis Dimension        Dim             ....   76

ORBITAL ENERGIES
----------------

  NO   OCC          E(Eh)            E(eV)
   0   2.0000     -19.140141      -520.8297
   1   2.0000     -10.272873      -279.5391
   2   2.0000     -10.225812      -278.2585
   3   2.0000     -10.208772      -277.7948
   4   2.0000      -1.064001       -28.9529
   5   2.0000      -0.804158       -21.8822
   6   2.0000      -0.654132       -17.7998
   7   2.0000      -0.516772       -14.0621
   8   2.0000      -0.504336       -13.7237
   9   2.0000      -0.451997       -12.2995
  10   2.0000      -0.419583       -11.4174
  11   2.0000      -0.408329       -11.1112
  12   2.0000      -0.371732       -10.1153
  13   2.0000      -0.294226        -8.0063
  14   2.0000      -0.255917        -6.9639
  15   0.0000      -0.066990        -1.8229
  16   0.0000       0.044152         1.2014
  17   0.0000       0.072978         1.9858
  18   0.0000       0.075753         2.0613
  19   0.0000       0.120419         3.2768

MULLIKEN ATOMIC CHARGES
-----------------------
   0 C :    0.172684
   1 O :   -0.166912
   2 C :   -0.139392
   3 C :    0.023640
   4 H :   -0.037379
   5 H :    0.025428
   6 H :    0.067853
   7 H :    0.054078
Sum of atomic charges:   -0.0000000

LOEWDIN ATOMIC CHARGES
----------------------
   0 C :   -0.070275
   1 O :    0.024350
   2 C :   -0.106097
   3 C :    0.009955
   4 H :   -0.011342
   5 H :    0.050160
   6 H :    0.055192
   7 H :    0.048056

  Mayer bond orders larger than 0.100000
B(  0-C ,  1-O ) :   2.2235 B(  0-C ,  2-C ) :   1.0732 B(  0-C ,  4-H ) :   0.8968
B(  2-C ,  3-C ) :   1.9439 B(  2-C ,  5-H ) :   0.9364 B(  3-C ,  6-H ) :   0.9151
B(  3-C ,  7-H ) :   0.9369

-----------------------------------------------------------------------------
         ABSORPTION SPECTRUM VIA TRANSITION ELECTRIC DIPOLE MOMENTS
-----------------------------------------------------------------------------
State   Energy    Wavelength  fosc         T2        TX        TY        TZ
        (cm-1)      (nm)                 (au**2)    (au)      (au)      (au)
-----------------------------------------------------------------------------
   1   28877.0    346.3   0.000335628   0.00383  -0.03370  -0.00739   0.05134

FINAL SINGLE POINT ENERGY      -191.656517508788

DIPOLE MOMENT
-------------
                                X             Y             Z
Electronic contribution:     -1.65436      -1.90331       0.27321
Nuclear contribution   :      2.14826       2.72098      -0.31937
                        -----------------------------------------
Total Dipole Moment    :      0.49390       0.81767      -0.04616
                        -----------------------------------------
Magnitude (a.u.)       :      0.95637
Magnitude (Debye)      :      2.43091

Rotational constants in cm-1:     0.763495     0.218004     0.169999
Rotational constants in MHz : 22888.993992  6535.598538  5096.441373

                             ****ORCA TERMINATED NORMALLY****
TOTAL RUN TIME: 0 days 0 hours 3 minutes 17 seconds 12 msec
