                         Program Version 5.0.3 -  RELEASE  -
|  1> ! B3LYP cc-pVDZ
|  2> !TightSCF
|  3> %scf
|  4>  ConvForced true
|  5>  convergence tight
|  6>  MaxIter 500
|  7> end
|  8>
|  9> %tddft
| 10>  nroots 1
| 11> end
| 12>
| 13> # 	10820
| 14> * xyz 0 1
| 15> 		C   -1.138175  -0.322012   0.060292
| 16> 		O   -1.146736  -1.487463   0.023471
| 17> 		C    0.034279   0.542141  -0.000814
| 18> 		C    1.204998  -0.058628   0.051152
| 19> 		H   -2.241204   0.243071   0.008003
| 20> 		H   -0.187807   1.555799  -0.111771
| 21> 		H    1.297241  -1.113307  -0.012949
| 22> 		H    2.177845   0.546375   0.006518
| 23> *
| 24>
| 25>                          ****END OF INPUT****

CARTESIAN COORDINATES (ANGSTROEM)
---------------------------------
  C     -1.138175   -0.322012    0.060292
  O     -1.146736   -1.487463    0.023471
  C      0.034279    0.542141   -0.000814
  C      1.204998   -0.058628    0.051152
  H     -2.241204    0.243071    0.008003
  H     -0.187807    1.555799   -0.111771
  H      1.297241   -1.113307   -0.012949
  H      2.177845    0.546375    0.006518

 Total Charge           Charge          ....    0
 Multiplicity           Mult            ....    1
 Number of Electrons    NEL             ....   30
 Basis Dimension        Dim             ....   76

ORBITAL ENERGIES
----------------

  NO   OCC          E(Eh)            E(eV)
   0   2.0000     -19.138693      -520.7903
   1   2.0000     -10.275503      -279.6107
   2   2.0000     -10.215206      -277.9699
   3   2.0000     -10.199638      -277.5463
   4   2.0000      -1.073397       -29.2086
   5   2.0000      -0.806035       -21.9333
   6   2.0000      -0.651958       -17.7407
   7   2.0000      -0.536074       -14.5873
   8   2.0000      -0.508092       -13.8259
   9   2.0000      -0.460689       -12.5360
  10   2.0000      -0.421388       -11.4666
  11   2.0000      -0.415125       -11.2961
  12   2.0000      -0.387206       -10.5364
  13   2.0000      -0.294473        -8.0130
  14   2.0000      -0.251414        -6.8413
  15   0.0000      -0.064902        -1.7661
  16   0.0000       0.062199         1.6925
  17   0.0000       0.070161         1.9092
  18   0.0000       0.088222         2.4007
  19   0.0000       0.122940         3.3454

MULLIKEN ATOMIC CHARGES
-----------------------
   0 C :    0.121207
   1 O :   -0.145864
   2 C :   -0.057319
   3 C :    0.079642
   4 H :   -0.042746
   5 H :   -0.027429
   6 H :    0.031019
   7 H :    0.041490
Sum of atomic charges:    0.0000000

LOEWDIN ATOMIC CHARGES
----------------------
   0 C :   -0.071350
   1 O :    0.038461
   2 C :   -0.075464
   3 C :    0.037076
   4 H :   -0.017725
   5 H :    0.019897
   6 H :    0.026309
   7 H :    0.042796

  Mayer bond orders larger than 0.100000
B(  0-C ,  1-O ) :   2.2442 B(  0-C ,  2-C ) :   1.0491 B(  0-C ,  4-H ) :   0.8853
B(  2-C ,  3-C ) :   1.9595 B(  2-C ,  5-H ) :   0.9545 B(  3-C ,  6-H ) :   0.9274
B(  3-C ,  7-H ) :   0.9444

-----------------------------------------------------------------------------
         ABSORPTION SPECTRUM VIA TRANSITION ELECTRIC DIPOLE MOMENTS
-----------------------------------------------------------------------------
State   Energy    Wavelength  fosc         T2        TX        TY        TZ
        (cm-1)      (nm)                 (au**2)    (au)      (au)      (au)
-----------------------------------------------------------------------------
   1   28643.1    349.1   0.000359650   0.00413  -0.03150   0.01391  -0.05430

FINAL SINGLE POINT ENERGY      -191.661242317926

DIPOLE MOMENT
-------------
                                X             Y             Z
Electronic contribution:     -1.54169      -1.75164       0.17998
Nuclear contribution   :      2.04487       2.51919      -0.21010
                        -----------------------------------------
Total Dipole Moment    :      0.50318       0.76756      -0.03012
                        -----------------------------------------
Magnitude (a.u.)       :      0.91828
Magnitude (Debye)      :      2.33409

Rotational constants in cm-1:     0.768174     0.222237     0.172532
Rotational constants in MHz : 23029.274033  6662.494691  5172.387090

                             ****ORCA TERMINATED NORMALLY****
TOTAL RUN TIME: 0 days 0 hours 3 minutes 23 seconds 248 msec
