                         Program Version 5.0.3 -  RELEASE  -
|  1> ! HF-3c
|  2> !TightSCF
|  3> %scf
|  4>  ConvForced true
|  5>  convergence tight
|  6>  MaxIter 500
|  7> end
|  8>
|  9> %tddft
| 10>  nroots 1
| 11> end
| 12>
| 13> # 	30482
| 14> * xyz 0 1
| 15> 		C   -0.622297  -0.401883   0.014362
| 16> 		O   -0.514139  -1.601442  -0.004827
| 17> 		C    0.608201   0.420389  -0.035698
| 18> 		C    1.801919  -0.173965  -0.020799
| 19> 		H   -1.518399   0.003545   0.070082
| 20> 		H    0.589973   1.503916   0.169199
| 21> 		H    1.903875  -1.170413   0.221578
| 22> 		H    2.811060   0.185558   0.127546
| 23> *
| 24>
| 25>                          ****END OF INPUT****

CARTESIAN COORDINATES (ANGSTROEM)
---------------------------------
  C     -0.622297   -0.401883    0.014362
  O     -0.514139   -1.601442   -0.004827
  C      0.608201    0.420389   -0.035698
  C      1.801919   -0.173965   -0.020799
  H     -1.518399    0.003545    0.070082
  H      0.589973    1.503916    0.169199
  H      1.903875   -1.170413    0.221578
  H      2.811060    0.185558    0.127546

 Total Charge           Charge          ....    0
 Multiplicity           Mult            ....    1
 Number of Electrons    NEL             ....   30
 Basis Dimension        Dim             ....   24

ORBITAL ENERGIES
----------------

  NO   OCC          E(Eh)            E(eV)
   0   2.0000     -20.371486      -554.3363
   1   2.0000     -11.305800      -307.6464
   2   2.0000     -11.191376      -304.5328
   3   2.0000     -11.186395      -304.3973
   4   2.0000      -1.415141       -38.5079
   5   2.0000      -1.076797       -29.3011
   6   2.0000      -0.907593       -24.6969
   7   2.0000      -0.786968       -21.4145
   8   2.0000      -0.711271       -19.3547
   9   2.0000      -0.625888       -17.0313
  10   2.0000      -0.599225       -16.3057
  11   2.0000      -0.552959       -15.0468
  12   2.0000      -0.519921       -14.1478
  13   2.0000      -0.429074       -11.6757
  14   2.0000      -0.390064       -10.6142
  15   0.0000       0.126171         3.4333
  16   0.0000       0.296320         8.0633
  17   0.0000       0.538375        14.6499
  18   0.0000       0.622890        16.9497
  19   0.0000       0.743974        20.2446

MULLIKEN ATOMIC CHARGES
-----------------------
   0 C :    0.143326
   1 O :   -0.340091
   2 C :   -0.167974
   3 C :   -0.227350
   4 H :    0.145308
   5 H :    0.146988
   6 H :    0.151755
   7 H :    0.148038
Sum of atomic charges:    0.0000000

LOEWDIN ATOMIC CHARGES
----------------------
   0 C :    0.137367
   1 O :   -0.245572
   2 C :   -0.125474
   3 C :   -0.122482
   4 H :    0.070360
   5 H :    0.095915
   6 H :    0.093640
   7 H :    0.096246

  Mayer bond orders larger than 0.100000
B(  0-C ,  1-O ) :   1.9043 B(  0-C ,  2-C ) :   1.0248 B(  0-C ,  4-H ) :   0.9384
B(  2-C ,  3-C ) :   1.9467 B(  2-C ,  5-H ) :   0.9582 B(  3-C ,  6-H ) :   0.9621
B(  3-C ,  7-H ) :   0.9655

-----------------------------------------------------------------------------
         ABSORPTION SPECTRUM VIA TRANSITION ELECTRIC DIPOLE MOMENTS
-----------------------------------------------------------------------------
State   Energy    Wavelength  fosc         T2        TX        TY        TZ
        (cm-1)      (nm)                 (au**2)    (au)      (au)      (au)
-----------------------------------------------------------------------------
   1   32172.1    310.8   0.000078717   0.00081   0.02796   0.00446   0.00200

Dispersion correction           -0.026146745
FINAL SINGLE POINT ENERGY      -189.314581628019

DIPOLE MOMENT
-------------
                                X             Y             Z
Electronic contribution:     -2.13464      -1.43700      -0.39378
Nuclear contribution   :      2.39807       2.27845       0.55130
                        -----------------------------------------
Total Dipole Moment    :      0.26343       0.84145       0.15752
                        -----------------------------------------
Magnitude (a.u.)       :      0.89568
Magnitude (Debye)      :      2.27665

Rotational constants in cm-1:     0.738788     0.224660     0.172707
Rotational constants in MHz : 22148.307654  6735.135233  5177.622731

                             ****ORCA TERMINATED NORMALLY****
TOTAL RUN TIME: 0 days 0 hours 0 minutes 8 seconds 711 msec
