                         Program Version 5.0.3 -  RELEASE  -
|  1> ! B3LYP cc-pVDZ
|  2> !TightSCF
|  3> %scf
|  4>  ConvForced true
|  5>  convergence tight
|  6>  MaxIter 500
|  7> end
|  8>
|  9> %tddft
| 10>  nroots 1
| 11> end
| 12>
| 13> # 	28858
| 14> * xyz 0 1
| 15> 		C   -0.547242  -0.388350   0.007654
| 16> 		O   -0.572928  -1.663428  -0.003183
| 17> 		C    0.594380   0.431507   0.010602
| 18> 		C    1.829730  -0.137246  -0.031929
| 19> 		H   -1.527335   0.114266   0.044862
| 20> 		H    0.519182   1.481425  -0.132261
| 21> 		H    1.916347  -1.319972   0.054105
| 22> 		H    2.799443   0.501378   0.253189
| 23> *
| 24>
| 25>                          ****END OF INPUT****

CARTESIAN COORDINATES (ANGSTROEM)
---------------------------------
  C     -0.547242   -0.388350    0.007654
  O     -0.572928   -1.663428   -0.003183
  C      0.594380    0.431507    0.010602
  C      1.829730   -0.137246   -0.031929
  H     -1.527335    0.114266    0.044862
  H      0.519182    1.481425   -0.132261
  H      1.916347   -1.319972    0.054105
  H      2.799443    0.501378    0.253189

 Total Charge           Charge          ....    0
 Multiplicity           Mult            ....    1
 Number of Electrons    NEL             ....   30
 Basis Dimension        Dim             ....   76

ORBITAL ENERGIES
----------------

  NO   OCC          E(Eh)            E(eV)
   0   2.0000     -19.131845      -520.6040
   1   2.0000     -10.270337      -279.4701
   2   2.0000     -10.238425      -278.6017
   3   2.0000     -10.207754      -277.7671
   4   2.0000      -1.007962       -27.4280
   5   2.0000      -0.803165       -21.8552
   6   2.0000      -0.661677       -18.0051
   7   2.0000      -0.538805       -14.6616
   8   2.0000      -0.509605       -13.8671
   9   2.0000      -0.438276       -11.9261
  10   2.0000      -0.405250       -11.0274
  11   2.0000      -0.388179       -10.5629
  12   2.0000      -0.372805       -10.1445
  13   2.0000      -0.283735        -7.7208
  14   2.0000      -0.252406        -6.8683
  15   0.0000      -0.087843        -2.3903
  16   0.0000       0.047636         1.2962
  17   0.0000       0.066860         1.8194
  18   0.0000       0.078402         2.1334
  19   0.0000       0.123272         3.3544

MULLIKEN ATOMIC CHARGES
-----------------------
   0 C :    0.196681
   1 O :   -0.249502
   2 C :   -0.046201
   3 C :   -0.021374
   4 H :   -0.014661
   5 H :   -0.007999
   6 H :    0.078737
   7 H :    0.064317
Sum of atomic charges:    0.0000000

LOEWDIN ATOMIC CHARGES
----------------------
   0 C :   -0.010387
   1 O :   -0.070065
   2 C :   -0.087014
   3 C :    0.028719
   4 H :    0.001931
   5 H :    0.028851
   6 H :    0.055697
   7 H :    0.052268

  Mayer bond orders larger than 0.100000
B(  0-C ,  1-O ) :   2.0955 B(  0-C ,  2-C ) :   1.1256 B(  0-C ,  4-H ) :   0.9321
B(  1-O ,  3-C ) :   0.1232 B(  2-C ,  3-C ) :   1.8900 B(  2-C ,  5-H ) :   0.9465
B(  3-C ,  6-H ) :   0.9262 B(  3-C ,  7-H ) :   0.9382

-----------------------------------------------------------------------------
         ABSORPTION SPECTRUM VIA TRANSITION ELECTRIC DIPOLE MOMENTS
-----------------------------------------------------------------------------
State   Energy    Wavelength  fosc         T2        TX        TY        TZ
        (cm-1)      (nm)                 (au**2)    (au)      (au)      (au)
-----------------------------------------------------------------------------
   1   23414.7    427.1   0.000130565   0.00184   0.02211   0.00312  -0.03657

FINAL SINGLE POINT ENERGY      -191.678611762571

DIPOLE MOMENT
-------------
                                X             Y             Z
Electronic contribution:     -1.81128      -1.49692      -0.16185
Nuclear contribution   :      2.31988       2.51616       0.20582
                        -----------------------------------------
Total Dipole Moment    :      0.50860       1.01925       0.04397
                        -----------------------------------------
Magnitude (a.u.)       :      1.13994
Magnitude (Debye)      :      2.89750

Rotational constants in cm-1:     0.725449     0.213163     0.165081
Rotational constants in MHz : 21748.409879  6390.453933  4948.990056

                             ****ORCA TERMINATED NORMALLY****
TOTAL RUN TIME: 0 days 0 hours 3 minutes 8 seconds 382 msec
