                         Program Version 5.0.3 -  RELEASE  -
|  1> ! B3LYP cc-pVDZ
|  2> !TightSCF
|  3> %scf
|  4>  ConvForced true
|  5>  convergence tight
|  6>  MaxIter 500
|  7> end
|  8>
|  9> %tddft
| 10>  nroots 1
| 11> end
| 12>
| 13> # 	19481
| 14> * xyz 0 1
| 15> 		C   -1.142464  -0.351984  -0.037096
| 16> 		O   -1.178940  -1.539920   0.047793
| 17> 		C    0.017556   0.520697   0.038186
| 18> 		C    1.230125  -0.075659  -0.056544
| 19> 		H   -2.155343   0.438733  -0.091960
| 20> 		H   -0.140035   1.665765   0.005142
| 21> 		H    1.292541  -1.227646   0.110721
| 22> 		H    2.065443   0.627542  -0.037168
| 23> *
| 24>
| 25>                          ****END OF INPUT****

CARTESIAN COORDINATES (ANGSTROEM)
---------------------------------
  C     -1.142464   -0.351984   -0.037096
  O     -1.178940   -1.539920    0.047793
  C      0.017556    0.520697    0.038186
  C      1.230125   -0.075659   -0.056544
  H     -2.155343    0.438733   -0.091960
  H     -0.140035    1.665765    0.005142
  H      1.292541   -1.227646    0.110721
  H      2.065443    0.627542   -0.037168

 Total Charge           Charge          ....    0
 Multiplicity           Mult            ....    1
 Number of Electrons    NEL             ....   30
 Basis Dimension        Dim             ....   76

ORBITAL ENERGIES
----------------

  NO   OCC          E(Eh)            E(eV)
   0   2.0000     -19.148653      -521.0613
   1   2.0000     -10.285483      -279.8822
   2   2.0000     -10.225143      -278.2403
   3   2.0000     -10.212534      -277.8972
   4   2.0000      -1.063287       -28.9335
   5   2.0000      -0.798793       -21.7363
   6   2.0000      -0.651922       -17.7397
   7   2.0000      -0.519599       -14.1390
   8   2.0000      -0.501194       -13.6382
   9   2.0000      -0.452631       -12.3167
  10   2.0000      -0.411958       -11.2099
  11   2.0000      -0.405252       -11.0275
  12   2.0000      -0.388572       -10.5736
  13   2.0000      -0.291396        -7.9293
  14   2.0000      -0.256363        -6.9760
  15   0.0000      -0.074420        -2.0251
  16   0.0000       0.049260         1.3404
  17   0.0000       0.061157         1.6642
  18   0.0000       0.074563         2.0290
  19   0.0000       0.108827         2.9613

MULLIKEN ATOMIC CHARGES
-----------------------
   0 C :    0.147119
   1 O :   -0.164943
   2 C :   -0.127089
   3 C :    0.051232
   4 H :   -0.039922
   5 H :    0.024060
   6 H :    0.073881
   7 H :    0.035663
Sum of atomic charges:   -0.0000000

LOEWDIN ATOMIC CHARGES
----------------------
   0 C :   -0.062817
   1 O :    0.020206
   2 C :   -0.096219
   3 C :    0.023551
   4 H :   -0.018877
   5 H :    0.044622
   6 H :    0.057032
   7 H :    0.032501

  Mayer bond orders larger than 0.100000
B(  0-C ,  1-O ) :   2.2108 B(  0-C ,  2-C ) :   1.0637 B(  0-C ,  4-H ) :   0.8700
B(  2-C ,  3-C ) :   1.9303 B(  2-C ,  5-H ) :   0.9429 B(  3-C ,  6-H ) :   0.9270
B(  3-C ,  7-H ) :   0.9383

-----------------------------------------------------------------------------
         ABSORPTION SPECTRUM VIA TRANSITION ELECTRIC DIPOLE MOMENTS
-----------------------------------------------------------------------------
State   Energy    Wavelength  fosc         T2        TX        TY        TZ
        (cm-1)      (nm)                 (au**2)    (au)      (au)      (au)
-----------------------------------------------------------------------------
   1   27877.9    358.7   0.000984419   0.01163  -0.08935   0.01840   0.05748

FINAL SINGLE POINT ENERGY      -191.657950438608

DIPOLE MOMENT
-------------
                                X             Y             Z
Electronic contribution:     -1.49477      -2.06684       0.00451
Nuclear contribution   :      2.09009       2.86722      -0.01746
                        -----------------------------------------
Total Dipole Moment    :      0.59531       0.80038      -0.01295
                        -----------------------------------------
Magnitude (a.u.)       :      0.99759
Magnitude (Debye)      :      2.53566

Rotational constants in cm-1:     0.727452     0.216131     0.166982
Rotational constants in MHz : 21808.452207  6479.431567  5005.985194

                             ****ORCA TERMINATED NORMALLY****
TOTAL RUN TIME: 0 days 0 hours 3 minutes 27 seconds 827 msec
