                         Program Version 5.0.3 -  RELEASE  -
|  1> ! B3LYP cc-pVDZ
|  2> !TightSCF
|  3> %scf
|  4>  ConvForced true
|  5>  convergence tight
|  6>  MaxIter 500
|  7> end
|  8>
|  9> %tddft
| 10>  nroots 1
| 11> end
| 12>
| 13> # 	3345
| 14> * xyz 0 1
| 15> 		C   -1.202435  -0.341227  -0.044494
| 16> 		O   -1.311816  -1.419635  -0.474028
| 17> 		C    0.057486   0.497654  -0.143906
| 18> 		C    1.262075   0.020647   0.091042
| 19> 		H   -2.071849   0.254783   0.736609
| 20> 		H   -0.124677   1.513440  -0.417239
| 21> 		H    1.289789  -1.068468   0.375022
| 22> 		H    2.163598   0.569621  -0.059770
| 23> *
| 24>
| 25>                          ****END OF INPUT****

CARTESIAN COORDINATES (ANGSTROEM)
---------------------------------
  C     -1.202435   -0.341227   -0.044494
  O     -1.311816   -1.419635   -0.474028
  C      0.057486    0.497654   -0.143906
  C      1.262075    0.020647    0.091042
  H     -2.071849    0.254783    0.736609
  H     -0.124677    1.513440   -0.417239
  H      1.289789   -1.068468    0.375022
  H      2.163598    0.569621   -0.059770

 Total Charge           Charge          ....    0
 Multiplicity           Mult            ....    1
 Number of Electrons    NEL             ....   30
 Basis Dimension        Dim             ....   76

ORBITAL ENERGIES
----------------

  NO   OCC          E(Eh)            E(eV)
   0   2.0000     -19.156729      -521.2811
   1   2.0000     -10.294328      -280.1229
   2   2.0000     -10.207299      -277.7547
   3   2.0000     -10.203173      -277.6424
   4   2.0000      -1.084626       -29.5142
   5   2.0000      -0.796609       -21.6768
   6   2.0000      -0.644421       -17.5356
   7   2.0000      -0.534157       -14.5352
   8   2.0000      -0.500553       -13.6207
   9   2.0000      -0.455539       -12.3958
  10   2.0000      -0.450539       -12.2598
  11   2.0000      -0.406146       -11.0518
  12   2.0000      -0.383503       -10.4356
  13   2.0000      -0.292015        -7.9461
  14   2.0000      -0.258270        -7.0279
  15   0.0000      -0.048399        -1.3170
  16   0.0000       0.026382         0.7179
  17   0.0000       0.064282         1.7492
  18   0.0000       0.083715         2.2780
  19   0.0000       0.103902         2.8273

MULLIKEN ATOMIC CHARGES
-----------------------
   0 C :    0.107764
   1 O :   -0.124350
   2 C :   -0.077540
   3 C :    0.066600
   4 H :   -0.024790
   5 H :   -0.007621
   6 H :    0.033560
   7 H :    0.026378
Sum of atomic charges:   -0.0000000

LOEWDIN ATOMIC CHARGES
----------------------
   0 C :   -0.057720
   1 O :    0.058191
   2 C :   -0.069373
   3 C :   -0.006446
   4 H :   -0.015243
   5 H :    0.023324
   6 H :    0.040338
   7 H :    0.026929

  Mayer bond orders larger than 0.100000
B(  0-C ,  1-O ) :   2.2721 B(  0-C ,  2-C ) :   0.9805 B(  0-C ,  4-H ) :   0.8508
B(  2-C ,  3-C ) :   2.0219 B(  2-C ,  5-H ) :   0.9415 B(  3-C ,  6-H ) :   0.9308
B(  3-C ,  7-H ) :   0.9429

-----------------------------------------------------------------------------
         ABSORPTION SPECTRUM VIA TRANSITION ELECTRIC DIPOLE MOMENTS
-----------------------------------------------------------------------------
State   Energy    Wavelength  fosc         T2        TX        TY        TZ
        (cm-1)      (nm)                 (au**2)    (au)      (au)      (au)
-----------------------------------------------------------------------------
   1   32963.7    303.4   0.000436143   0.00436  -0.03087  -0.00448  -0.05816

FINAL SINGLE POINT ENERGY      -191.634857627238

DIPOLE MOMENT
-------------
                                X             Y             Z
Electronic contribution:     -1.93998      -1.77783      -0.95485
Nuclear contribution   :      2.39046       2.46729       1.13361
                        -----------------------------------------
Total Dipole Moment    :      0.45048       0.68946       0.17876
                        -----------------------------------------
Magnitude (a.u.)       :      0.84276
Magnitude (Debye)      :      2.14212

Rotational constants in cm-1:     0.821246     0.191559     0.161948
Rotational constants in MHz : 24620.340459  5742.779406  4855.072147

                             ****ORCA TERMINATED NORMALLY****
TOTAL RUN TIME: 0 days 0 hours 3 minutes 22 seconds 448 msec
