                         Program Version 5.0.3 -  RELEASE  -
|  1> ! HF-3c
|  2> !TightSCF
|  3> %scf
|  4>  ConvForced true
|  5>  convergence tight
|  6>  MaxIter 500
|  7> end
|  8>
|  9> %tddft
| 10>  nroots 1
| 11> end
| 12>
| 13> # 	21359
| 14> * xyz 0 1
| 15> 		C   -0.559128  -0.459126   0.010131
| 16> 		O   -0.633855  -1.649142  -0.004830
| 17> 		C    0.631250   0.410174  -0.030137
| 18> 		C    1.874908  -0.100115  -0.023950
| 19> 		H   -1.430319   0.206470   0.137725
| 20> 		H    0.292880   1.424417   0.075505
| 21> 		H    2.112537  -1.043930   0.180338
| 22> 		H    2.829857   0.635036   0.217002
| 23> *
| 24>
| 25>                          ****END OF INPUT****

CARTESIAN COORDINATES (ANGSTROEM)
---------------------------------
  C     -0.559128   -0.459126    0.010131
  O     -0.633855   -1.649142   -0.004830
  C      0.631250    0.410174   -0.030137
  C      1.874908   -0.100115   -0.023950
  H     -1.430319    0.206470    0.137725
  H      0.292880    1.424417    0.075505
  H      2.112537   -1.043930    0.180338
  H      2.829857    0.635036    0.217002

 Total Charge           Charge          ....    0
 Multiplicity           Mult            ....    1
 Number of Electrons    NEL             ....   30
 Basis Dimension        Dim             ....   24

ORBITAL ENERGIES
----------------

  NO   OCC          E(Eh)            E(eV)
   0   2.0000     -20.371385      -554.3336
   1   2.0000     -11.295720      -307.3722
   2   2.0000     -11.197526      -304.7002
   3   2.0000     -11.189719      -304.4877
   4   2.0000      -1.411770       -38.4162
   5   2.0000      -1.079006       -29.3613
   6   2.0000      -0.904894       -24.6234
   7   2.0000      -0.751145       -20.4397
   8   2.0000      -0.694158       -18.8890
   9   2.0000      -0.634138       -17.2558
  10   2.0000      -0.583186       -15.8693
  11   2.0000      -0.548723       -14.9315
  12   2.0000      -0.529727       -14.4146
  13   2.0000      -0.403774       -10.9872
  14   2.0000      -0.394867       -10.7449
  15   0.0000       0.125474         3.4143
  16   0.0000       0.307929         8.3792
  17   0.0000       0.483342        13.1524
  18   0.0000       0.644799        17.5459
  19   0.0000       0.657329        17.8868

MULLIKEN ATOMIC CHARGES
-----------------------
   0 C :    0.175271
   1 O :   -0.356633
   2 C :   -0.177712
   3 C :   -0.208585
   4 H :    0.123598
   5 H :    0.143561
   6 H :    0.152388
   7 H :    0.148111
Sum of atomic charges:    0.0000000

LOEWDIN ATOMIC CHARGES
----------------------
   0 C :    0.150081
   1 O :   -0.254961
   2 C :   -0.134349
   3 C :   -0.111261
   4 H :    0.060835
   5 H :    0.090887
   6 H :    0.091223
   7 H :    0.107545

  Mayer bond orders larger than 0.100000
B(  0-C ,  1-O ) :   1.9097 B(  0-C ,  2-C ) :   1.0213 B(  0-C ,  4-H ) :   0.9212
B(  2-C ,  3-C ) :   1.9404 B(  2-C ,  5-H ) :   0.9602 B(  3-C ,  6-H ) :   0.9646
B(  3-C ,  7-H ) :   0.9585

-----------------------------------------------------------------------------
         ABSORPTION SPECTRUM VIA TRANSITION ELECTRIC DIPOLE MOMENTS
-----------------------------------------------------------------------------
State   Energy    Wavelength  fosc         T2        TX        TY        TZ
        (cm-1)      (nm)                 (au**2)    (au)      (au)      (au)
-----------------------------------------------------------------------------
   1   32772.0    305.1   0.000012414   0.00012   0.01024   0.00441   0.00062

Dispersion correction           -0.025574724
FINAL SINGLE POINT ENERGY      -189.310176142189

DIPOLE MOMENT
-------------
                                X             Y             Z
Electronic contribution:     -1.98473      -1.93034      -0.42241
Nuclear contribution   :      2.41256       2.93264       0.57206
                        -----------------------------------------
Total Dipole Moment    :      0.42783       1.00230       0.14965
                        -----------------------------------------
Magnitude (a.u.)       :      1.10002
Magnitude (Debye)      :      2.79602

Rotational constants in cm-1:     0.799213     0.199045     0.159733
Rotational constants in MHz : 23959.814043  5967.211573  4788.665778

                             ****ORCA TERMINATED NORMALLY****
TOTAL RUN TIME: 0 days 0 hours 0 minutes 12 seconds 777 msec
