                         Program Version 5.0.3 -  RELEASE  -
|  1> ! B3LYP cc-pVDZ
|  2> !TightSCF
|  3> %scf
|  4>  ConvForced true
|  5>  convergence tight
|  6>  MaxIter 500
|  7> end
|  8>
|  9> %tddft
| 10>  nroots 1
| 11> end
| 12>
| 13> # 	19618
| 14> * xyz 0 1
| 15> 		C   -1.091830  -0.425117   0.096595
| 16> 		O   -2.146305  -0.415952   0.711282
| 17> 		C    0.032992   0.395106   0.326345
| 18> 		C    1.297893   0.105604  -0.245412
| 19> 		H   -1.217324  -1.006231  -0.777463
| 20> 		H   -0.093605   1.352707   0.887780
| 21> 		H    1.247900  -0.831041  -0.904187
| 22> 		H    1.973510   0.691681  -0.092743
| 23> *
| 24>
| 25>                          ****END OF INPUT****

CARTESIAN COORDINATES (ANGSTROEM)
---------------------------------
  C     -1.091830   -0.425117    0.096595
  O     -2.146305   -0.415952    0.711282
  C      0.032992    0.395106    0.326345
  C      1.297893    0.105604   -0.245412
  H     -1.217324   -1.006231   -0.777463
  H     -0.093605    1.352707    0.887780
  H      1.247900   -0.831041   -0.904187
  H      1.973510    0.691681   -0.092743

 Total Charge           Charge          ....    0
 Multiplicity           Mult            ....    1
 Number of Electrons    NEL             ....   30
 Basis Dimension        Dim             ....   76

ORBITAL ENERGIES
----------------

  NO   OCC          E(Eh)            E(eV)
   0   2.0000     -19.127579      -520.4879
   1   2.0000     -10.261480      -279.2291
   2   2.0000     -10.221008      -278.1278
   3   2.0000     -10.217896      -278.0431
   4   2.0000      -1.036334       -28.2001
   5   2.0000      -0.802706       -21.8427
   6   2.0000      -0.672507       -18.2999
   7   2.0000      -0.570757       -15.5311
   8   2.0000      -0.498849       -13.5744
   9   2.0000      -0.473502       -12.8846
  10   2.0000      -0.417644       -11.3647
  11   2.0000      -0.406798       -11.0695
  12   2.0000      -0.375594       -10.2204
  13   2.0000      -0.284846        -7.7511
  14   2.0000      -0.246762        -6.7147
  15   0.0000      -0.078769        -2.1434
  16   0.0000       0.036298         0.9877
  17   0.0000       0.072630         1.9764
  18   0.0000       0.089550         2.4368
  19   0.0000       0.125908         3.4261

MULLIKEN ATOMIC CHARGES
-----------------------
   0 C :    0.193980
   1 O :   -0.214261
   2 C :   -0.121805
   3 C :    0.172971
   4 H :   -0.036383
   5 H :    0.019944
   6 H :    0.043494
   7 H :   -0.057940
Sum of atomic charges:    0.0000000

LOEWDIN ATOMIC CHARGES
----------------------
   0 C :   -0.055636
   1 O :   -0.013145
   2 C :   -0.038939
   3 C :    0.063703
   4 H :   -0.006811
   5 H :    0.040387
   6 H :    0.049999
   7 H :   -0.039558

  Mayer bond orders larger than 0.100000
B(  0-C ,  1-O ) :   2.1274 B(  0-C ,  2-C ) :   1.1034 B(  0-C ,  4-H ) :   0.9502
B(  1-O ,  3-C ) :   0.1120 B(  2-C ,  3-C ) :   1.9085 B(  2-C ,  5-H ) :   0.9449
B(  3-C ,  6-H ) :   0.9477 B(  3-C ,  7-H ) :   0.9296

-----------------------------------------------------------------------------
         ABSORPTION SPECTRUM VIA TRANSITION ELECTRIC DIPOLE MOMENTS
-----------------------------------------------------------------------------
State   Energy    Wavelength  fosc         T2        TX        TY        TZ
        (cm-1)      (nm)                 (au**2)    (au)      (au)      (au)
-----------------------------------------------------------------------------
   1   24611.4    406.3   0.000027905   0.00037  -0.01078   0.01116  -0.01151

FINAL SINGLE POINT ENERGY      -191.642570687600

DIPOLE MOMENT
-------------
                                X             Y             Z
Electronic contribution:     -2.64624      -0.36869       1.18013
Nuclear contribution   :      3.74582       0.56032      -1.66923
                        -----------------------------------------
Total Dipole Moment    :      1.09958       0.19163      -0.48910
                        -----------------------------------------
Magnitude (a.u.)       :      1.21862
Magnitude (Debye)      :      3.09747

Rotational constants in cm-1:     1.601942     0.153674     0.141337
Rotational constants in MHz : 48025.003160  4607.016482  4237.175482

                             ****ORCA TERMINATED NORMALLY****
TOTAL RUN TIME: 0 days 0 hours 3 minutes 23 seconds 517 msec
