                         Program Version 5.0.3 -  RELEASE  -
|  1> ! HF-3c
|  2> !TightSCF
|  3> %scf
|  4>  ConvForced true
|  5>  convergence tight
|  6>  MaxIter 500
|  7> end
|  8>
|  9> %tddft
| 10>  nroots 1
| 11> end
| 12>
| 13> # 	25548
| 14> * xyz 0 1
| 15> 		C   -0.531927  -0.436836   0.029505
| 16> 		O   -0.596848  -1.605331  -0.025798
| 17> 		C    0.655225   0.378297  -0.053961
| 18> 		C    1.804265  -0.119909   0.018919
| 19> 		H   -1.526516   0.146347   0.337971
| 20> 		H    0.478019   1.426653  -0.097488
| 21> 		H    1.932902  -1.297199   0.140135
| 22> 		H    2.602518   0.585220   0.087839
| 23> *
| 24>
| 25>                          ****END OF INPUT****

CARTESIAN COORDINATES (ANGSTROEM)
---------------------------------
  C     -0.531927   -0.436836    0.029505
  O     -0.596848   -1.605331   -0.025798
  C      0.655225    0.378297   -0.053961
  C      1.804265   -0.119909    0.018919
  H     -1.526516    0.146347    0.337971
  H      0.478019    1.426653   -0.097488
  H      1.932902   -1.297199    0.140135
  H      2.602518    0.585220    0.087839

 Total Charge           Charge          ....    0
 Multiplicity           Mult            ....    1
 Number of Electrons    NEL             ....   30
 Basis Dimension        Dim             ....   24

ORBITAL ENERGIES
----------------

  NO   OCC          E(Eh)            E(eV)
   0   2.0000     -20.369667      -554.2868
   1   2.0000     -11.299491      -307.4748
   2   2.0000     -11.196554      -304.6737
   3   2.0000     -11.191882      -304.5466
   4   2.0000      -1.428743       -38.8781
   5   2.0000      -1.113027       -30.2870
   6   2.0000      -0.889957       -24.2170
   7   2.0000      -0.725148       -19.7323
   8   2.0000      -0.721664       -19.6375
   9   2.0000      -0.620543       -16.8858
  10   2.0000      -0.603626       -16.4255
  11   2.0000      -0.559796       -15.2328
  12   2.0000      -0.525635       -14.3033
  13   2.0000      -0.420287       -11.4366
  14   2.0000      -0.400844       -10.9075
  15   0.0000       0.151006         4.1091
  16   0.0000       0.335424         9.1274
  17   0.0000       0.511652        13.9228
  18   0.0000       0.569772        15.5043
  19   0.0000       0.664388        18.0789

MULLIKEN ATOMIC CHARGES
-----------------------
   0 C :    0.193353
   1 O :   -0.368184
   2 C :   -0.201750
   3 C :   -0.214448
   4 H :    0.122651
   5 H :    0.146156
   6 H :    0.172452
   7 H :    0.149771
Sum of atomic charges:    0.0000000

LOEWDIN ATOMIC CHARGES
----------------------
   0 C :    0.154889
   1 O :   -0.260547
   2 C :   -0.152806
   3 C :   -0.119964
   4 H :    0.065975
   5 H :    0.091414
   6 H :    0.124387
   7 H :    0.096652

  Mayer bond orders larger than 0.100000
B(  0-C ,  1-O ) :   1.9136 B(  0-C ,  2-C ) :   1.0162 B(  0-C ,  4-H ) :   0.9116
B(  2-C ,  3-C ) :   1.9600 B(  2-C ,  5-H ) :   0.9536 B(  3-C ,  6-H ) :   0.9473
B(  3-C ,  7-H ) :   0.9598

-----------------------------------------------------------------------------
         ABSORPTION SPECTRUM VIA TRANSITION ELECTRIC DIPOLE MOMENTS
-----------------------------------------------------------------------------
State   Energy    Wavelength  fosc         T2        TX        TY        TZ
        (cm-1)      (nm)                 (au**2)    (au)      (au)      (au)
-----------------------------------------------------------------------------
   1   34836.6    287.1   0.000056136   0.00053   0.00450  -0.00011   0.02259

Dispersion correction           -0.026388124
FINAL SINGLE POINT ENERGY      -189.308230137994

DIPOLE MOMENT
-------------
                                X             Y             Z
Electronic contribution:     -1.73946      -1.72576      -0.31289
Nuclear contribution   :      2.11221       2.59570       0.43959
                        -----------------------------------------
Total Dipole Moment    :      0.37275       0.86993       0.12670
                        -----------------------------------------
Magnitude (a.u.)       :      0.95487
Magnitude (Debye)      :      2.42709

Rotational constants in cm-1:     0.835649     0.215797     0.172252
Rotational constants in MHz : 25052.119704  6469.424878  5163.995850

                             ****ORCA TERMINATED NORMALLY****
TOTAL RUN TIME: 0 days 0 hours 0 minutes 11 seconds 367 msec
