                         Program Version 5.0.3 -  RELEASE  -
|  1> ! HF-3c
|  2> !TightSCF
|  3> %scf
|  4>  ConvForced true
|  5>  convergence tight
|  6>  MaxIter 500
|  7> end
|  8>
|  9> %tddft
| 10>  nroots 1
| 11> end
| 12>
| 13> # 	18651
| 14> * xyz 0 1
| 15> 		C   -1.172667  -0.346346   0.064242
| 16> 		O   -1.751405  -0.916278   0.965880
| 17> 		C    0.027756   0.457345   0.208004
| 18> 		C    1.170030  -0.005274  -0.176666
| 19> 		H   -1.574957  -0.334476  -1.022836
| 20> 		H   -0.005405   1.358520   1.042841
| 21> 		H    1.091711  -0.800045  -0.980732
| 22> 		H    2.191875   0.558330  -0.123405
| 23> *
| 24>
| 25>                          ****END OF INPUT****

CARTESIAN COORDINATES (ANGSTROEM)
---------------------------------
  C     -1.172667   -0.346346    0.064242
  O     -1.751405   -0.916278    0.965880
  C      0.027756    0.457345    0.208004
  C      1.170030   -0.005274   -0.176666
  H     -1.574957   -0.334476   -1.022836
  H     -0.005405    1.358520    1.042841
  H      1.091711   -0.800045   -0.980732
  H      2.191875    0.558330   -0.123405

 Total Charge           Charge          ....    0
 Multiplicity           Mult            ....    1
 Number of Electrons    NEL             ....   30
 Basis Dimension        Dim             ....   24

ORBITAL ENERGIES
----------------

  NO   OCC          E(Eh)            E(eV)
   0   2.0000     -20.372285      -554.3581
   1   2.0000     -11.298824      -307.4566
   2   2.0000     -11.187305      -304.4221
   3   2.0000     -11.179369      -304.2061
   4   2.0000      -1.402116       -38.1535
   5   2.0000      -1.091734       -29.7076
   6   2.0000      -0.873516       -23.7696
   7   2.0000      -0.742807       -20.2128
   8   2.0000      -0.658057       -17.9066
   9   2.0000      -0.632360       -17.2074
  10   2.0000      -0.599234       -16.3060
  11   2.0000      -0.522778       -14.2255
  12   2.0000      -0.490258       -13.3406
  13   2.0000      -0.413026       -11.2390
  14   2.0000      -0.400263       -10.8917
  15   0.0000       0.168069         4.5734
  16   0.0000       0.246852         6.7172
  17   0.0000       0.504610        13.7311
  18   0.0000       0.557318        15.1654
  19   0.0000       0.603643        16.4260

MULLIKEN ATOMIC CHARGES
-----------------------
   0 C :    0.175339
   1 O :   -0.346758
   2 C :   -0.168520
   3 C :   -0.231501
   4 H :    0.133797
   5 H :    0.157453
   6 H :    0.132409
   7 H :    0.147782
Sum of atomic charges:    0.0000000

LOEWDIN ATOMIC CHARGES
----------------------
   0 C :    0.154564
   1 O :   -0.252862
   2 C :   -0.131962
   3 C :   -0.149651
   4 H :    0.074714
   5 H :    0.114597
   6 H :    0.087764
   7 H :    0.102837

  Mayer bond orders larger than 0.100000
B(  0-C ,  1-O ) :   1.9372 B(  0-C ,  2-C ) :   1.0026 B(  0-C ,  4-H ) :   0.9122
B(  2-C ,  3-C ) :   1.9912 B(  2-C ,  5-H ) :   0.9332 B(  3-C ,  6-H ) :   0.9590
B(  3-C ,  7-H ) :   0.9567

-----------------------------------------------------------------------------
         ABSORPTION SPECTRUM VIA TRANSITION ELECTRIC DIPOLE MOMENTS
-----------------------------------------------------------------------------
State   Energy    Wavelength  fosc         T2        TX        TY        TZ
        (cm-1)      (nm)                 (au**2)    (au)      (au)      (au)
-----------------------------------------------------------------------------
   1   34349.8    291.1   0.000146083   0.00140   0.03108   0.00974   0.01842

Dispersion correction           -0.025360973
FINAL SINGLE POINT ENERGY      -189.294455222357

DIPOLE MOMENT
-------------
                                X             Y             Z
Electronic contribution:     -2.68332      -1.02103       1.35439
Nuclear contribution   :      3.31937       1.56720      -2.04498
                        -----------------------------------------
Total Dipole Moment    :      0.63604       0.54617      -0.69059
                        -----------------------------------------
Magnitude (a.u.)       :      1.08617
Magnitude (Debye)      :      2.76083

Rotational constants in cm-1:     1.076753     0.165435     0.162238
Rotational constants in MHz : 32280.230220  4959.619506  4863.766305

                             ****ORCA TERMINATED NORMALLY****
TOTAL RUN TIME: 0 days 0 hours 0 minutes 11 seconds 521 msec
