                         Program Version 5.0.3 -  RELEASE  -
|  1> ! B3LYP cc-pVDZ
|  2> !TightSCF
|  3> %scf
|  4>  ConvForced true
|  5>  convergence tight
|  6>  MaxIter 500
|  7> end
|  8>
|  9> %tddft
| 10>  nroots 1
| 11> end
| 12>
| 13> # 	25189
| 14> * xyz 0 1
| 15> 		C   -0.655348  -0.409939   0.069133
| 16> 		O   -0.540444  -1.600859  -0.034202
| 17> 		C    0.645820   0.355145  -0.055979
| 18> 		C    1.846950  -0.095012   0.016192
| 19> 		H   -1.617468  -0.150376   0.064940
| 20> 		H    0.565095   1.484283  -0.041836
| 21> 		H    1.715154  -1.302862   0.164831
| 22> 		H    2.953788   0.364544  -0.000779
| 23> *
| 24>
| 25>                          ****END OF INPUT****

CARTESIAN COORDINATES (ANGSTROEM)
---------------------------------
  C     -0.655348   -0.409939    0.069133
  O     -0.540444   -1.600859   -0.034202
  C      0.645820    0.355145   -0.055979
  C      1.846950   -0.095012    0.016192
  H     -1.617468   -0.150376    0.064940
  H      0.565095    1.484283   -0.041836
  H      1.715154   -1.302862    0.164831
  H      2.953788    0.364544   -0.000779

 Total Charge           Charge          ....    0
 Multiplicity           Mult            ....    1
 Number of Electrons    NEL             ....   30
 Basis Dimension        Dim             ....   76

ORBITAL ENERGIES
----------------

  NO   OCC          E(Eh)            E(eV)
   0   2.0000     -19.135444      -520.7019
   1   2.0000     -10.270608      -279.4775
   2   2.0000     -10.216704      -278.0106
   3   2.0000     -10.201623      -277.6003
   4   2.0000      -1.058483       -28.8028
   5   2.0000      -0.790552       -21.5120
   6   2.0000      -0.646926       -17.6038
   7   2.0000      -0.555204       -15.1079
   8   2.0000      -0.500649       -13.6233
   9   2.0000      -0.447761       -12.1842
  10   2.0000      -0.430786       -11.7223
  11   2.0000      -0.404976       -11.0200
  12   2.0000      -0.329820        -8.9749
  13   2.0000      -0.290459        -7.9038
  14   2.0000      -0.256347        -6.9756
  15   0.0000      -0.061129        -1.6634
  16   0.0000       0.057824         1.5735
  17   0.0000       0.063039         1.7154
  18   0.0000       0.088619         2.4114
  19   0.0000       0.115968         3.1557

MULLIKEN ATOMIC CHARGES
-----------------------
   0 C :    0.239549
   1 O :   -0.189948
   2 C :   -0.091259
   3 C :   -0.022355
   4 H :   -0.042001
   5 H :   -0.013926
   6 H :    0.049854
   7 H :    0.070086
Sum of atomic charges:    0.0000000

LOEWDIN ATOMIC CHARGES
----------------------
   0 C :   -0.005606
   1 O :    0.013259
   2 C :   -0.100218
   3 C :   -0.025162
   4 H :   -0.014407
   5 H :    0.023246
   6 H :    0.049503
   7 H :    0.059386

  Mayer bond orders larger than 0.100000
B(  0-C ,  1-O ) :   2.1447 B(  0-C ,  2-C ) :   0.9953 B(  0-C ,  4-H ) :   0.9638
B(  2-C ,  3-C ) :   1.9880 B(  2-C ,  5-H ) :   0.9367 B(  3-C ,  6-H ) :   0.8901
B(  3-C ,  7-H ) :   0.9400

-----------------------------------------------------------------------------
         ABSORPTION SPECTRUM VIA TRANSITION ELECTRIC DIPOLE MOMENTS
-----------------------------------------------------------------------------
State   Energy    Wavelength  fosc         T2        TX        TY        TZ
        (cm-1)      (nm)                 (au**2)    (au)      (au)      (au)
-----------------------------------------------------------------------------
   1   28910.5    345.9   0.000110045   0.00125  -0.01603  -0.02092  -0.02364

FINAL SINGLE POINT ENERGY      -191.623008983120

DIPOLE MOMENT
-------------
                                X             Y             Z
Electronic contribution:     -2.10884      -1.35107      -0.08186
Nuclear contribution   :      2.23800       2.16271       0.17549
                        -----------------------------------------
Total Dipole Moment    :      0.12917       0.81164       0.09363
                        -----------------------------------------
Magnitude (a.u.)       :      0.82717
Magnitude (Debye)      :      2.10250

Rotational constants in cm-1:     0.807629     0.209465     0.166820
Rotational constants in MHz : 24212.103178  6279.603100  5001.132200

                             ****ORCA TERMINATED NORMALLY****
TOTAL RUN TIME: 0 days 0 hours 3 minutes 21 seconds 378 msec
