                         Program Version 5.0.3 -  RELEASE  -
|  1> ! HF-3c
|  2> !TightSCF
|  3> %scf
|  4>  ConvForced true
|  5>  convergence tight
|  6>  MaxIter 500
|  7> end
|  8>
|  9> %tddft
| 10>  nroots 1
| 11> end
| 12>
| 13> # 	16945
| 14> * xyz 0 1
| 15> 		C   -1.170100  -0.320814  -0.055446
| 16> 		O   -1.268023  -1.425025  -0.339107
| 17> 		C    0.019239   0.532420  -0.148367
| 18> 		C    1.251023   0.015894   0.038792
| 19> 		H   -2.023909   0.149151   0.474976
| 20> 		H   -0.256533   1.537194  -0.191486
| 21> 		H    1.308223  -1.099648   0.157985
| 22> 		H    2.166475   0.537580   0.032710
| 23> *
| 24>
| 25>                          ****END OF INPUT****

CARTESIAN COORDINATES (ANGSTROEM)
---------------------------------
  C     -1.170100   -0.320814   -0.055446
  O     -1.268023   -1.425025   -0.339107
  C      0.019239    0.532420   -0.148367
  C      1.251023    0.015894    0.038792
  H     -2.023909    0.149151    0.474976
  H     -0.256533    1.537194   -0.191486
  H      1.308223   -1.099648    0.157985
  H      2.166475    0.537580    0.032710

 Total Charge           Charge          ....    0
 Multiplicity           Mult            ....    1
 Number of Electrons    NEL             ....   30
 Basis Dimension        Dim             ....   24

ORBITAL ENERGIES
----------------

  NO   OCC          E(Eh)            E(eV)
   0   2.0000     -20.384979      -554.7035
   1   2.0000     -11.311554      -307.8030
   2   2.0000     -11.195347      -304.6409
   3   2.0000     -11.189258      -304.4752
   4   2.0000      -1.454952       -39.5912
   5   2.0000      -1.080788       -29.4097
   6   2.0000      -0.897532       -24.4231
   7   2.0000      -0.756483       -20.5850
   8   2.0000      -0.714162       -19.4333
   9   2.0000      -0.633859       -17.2482
  10   2.0000      -0.620166       -16.8756
  11   2.0000      -0.561861       -15.2890
  12   2.0000      -0.540105       -14.6970
  13   2.0000      -0.410056       -11.1582
  14   2.0000      -0.396904       -10.8003
  15   0.0000       0.146234         3.9792
  16   0.0000       0.297524         8.0960
  17   0.0000       0.553005        15.0480
  18   0.0000       0.643655        17.5147
  19   0.0000       0.697698        18.9853

MULLIKEN ATOMIC CHARGES
-----------------------
   0 C :    0.187097
   1 O :   -0.363960
   2 C :   -0.181109
   3 C :   -0.215862
   4 H :    0.127197
   5 H :    0.143020
   6 H :    0.156283
   7 H :    0.147334
Sum of atomic charges:    0.0000000

LOEWDIN ATOMIC CHARGES
----------------------
   0 C :    0.149206
   1 O :   -0.246002
   2 C :   -0.136714
   3 C :   -0.115953
   4 H :    0.062513
   5 H :    0.087991
   6 H :    0.105710
   7 H :    0.093248

  Mayer bond orders larger than 0.100000
B(  0-C ,  1-O ) :   1.9209 B(  0-C ,  2-C ) :   1.0076 B(  0-C ,  4-H ) :   0.9139
B(  2-C ,  3-C ) :   1.9545 B(  2-C ,  5-H ) :   0.9600 B(  3-C ,  6-H ) :   0.9588
B(  3-C ,  7-H ) :   0.9659

-----------------------------------------------------------------------------
         ABSORPTION SPECTRUM VIA TRANSITION ELECTRIC DIPOLE MOMENTS
-----------------------------------------------------------------------------
State   Energy    Wavelength  fosc         T2        TX        TY        TZ
        (cm-1)      (nm)                 (au**2)    (au)      (au)      (au)
-----------------------------------------------------------------------------
   1   36465.1    274.2   0.000122316   0.00110   0.03177  -0.00140   0.00964

Dispersion correction           -0.025914641
FINAL SINGLE POINT ENERGY      -189.310919611461

DIPOLE MOMENT
-------------
                                X             Y             Z
Electronic contribution:     -1.93440      -1.51359      -0.60741
Nuclear contribution   :      2.30322       2.30600       0.90551
                        -----------------------------------------
Total Dipole Moment    :      0.36882       0.79241       0.29810
                        -----------------------------------------
Magnitude (a.u.)       :      0.92348
Magnitude (Debye)      :      2.34730

Rotational constants in cm-1:     0.829911     0.203553     0.166568
Rotational constants in MHz : 24880.109865  6102.371750  4993.574080

                             ****ORCA TERMINATED NORMALLY****
TOTAL RUN TIME: 0 days 0 hours 0 minutes 12 seconds 15 msec
