                         Program Version 5.0.3 -  RELEASE  -
|  1> ! HF-3c
|  2> !TightSCF
|  3> %scf
|  4>  ConvForced true
|  5>  convergence tight
|  6>  MaxIter 500
|  7> end
|  8>
|  9> %tddft
| 10>  nroots 1
| 11> end
| 12>
| 13> # 	15638
| 14> * xyz 0 1
| 15> 		C   -1.161966  -0.328387  -0.096126
| 16> 		O   -2.129780  -0.498647  -0.802609
| 17> 		C    0.009200   0.446846  -0.322440
| 18> 		C    1.167431   0.155718   0.378161
| 19> 		H   -1.201847  -0.864131   0.931630
| 20> 		H   -0.004783   1.157640  -1.256697
| 21> 		H    1.274989  -0.621785   0.988402
| 22> 		H    2.075968   0.615821   0.188075
| 23> *
| 24>
| 25>                          ****END OF INPUT****

CARTESIAN COORDINATES (ANGSTROEM)
---------------------------------
  C     -1.161966   -0.328387   -0.096126
  O     -2.129780   -0.498647   -0.802609
  C      0.009200    0.446846   -0.322440
  C      1.167431    0.155718    0.378161
  H     -1.201847   -0.864131    0.931630
  H     -0.004783    1.157640   -1.256697
  H      1.274989   -0.621785    0.988402
  H      2.075968    0.615821    0.188075

 Total Charge           Charge          ....    0
 Multiplicity           Mult            ....    1
 Number of Electrons    NEL             ....   30
 Basis Dimension        Dim             ....   24

ORBITAL ENERGIES
----------------

  NO   OCC          E(Eh)            E(eV)
   0   2.0000     -20.360657      -554.0416
   1   2.0000     -11.293767      -307.3190
   2   2.0000     -11.204740      -304.8965
   3   2.0000     -11.202507      -304.8357
   4   2.0000      -1.398388       -38.0521
   5   2.0000      -1.088290       -29.6139
   6   2.0000      -0.904204       -24.6046
   7   2.0000      -0.768101       -20.9011
   8   2.0000      -0.674365       -18.3504
   9   2.0000      -0.654008       -17.7965
  10   2.0000      -0.575123       -15.6499
  11   2.0000      -0.557677       -15.1752
  12   2.0000      -0.537577       -14.6282
  13   2.0000      -0.406277       -11.0554
  14   2.0000      -0.388165       -10.5625
  15   0.0000       0.111100         3.0232
  16   0.0000       0.300144         8.1673
  17   0.0000       0.524957        14.2848
  18   0.0000       0.596562        16.2333
  19   0.0000       0.657050        17.8792

MULLIKEN ATOMIC CHARGES
-----------------------
   0 C :    0.161170
   1 O :   -0.353822
   2 C :   -0.149556
   3 C :   -0.241978
   4 H :    0.128064
   5 H :    0.164584
   6 H :    0.143632
   7 H :    0.147907
Sum of atomic charges:    0.0000000

LOEWDIN ATOMIC CHARGES
----------------------
   0 C :    0.138568
   1 O :   -0.260443
   2 C :   -0.109198
   3 C :   -0.132033
   4 H :    0.069426
   5 H :    0.115249
   6 H :    0.085841
   7 H :    0.092589

  Mayer bond orders larger than 0.100000
B(  0-C ,  1-O ) :   1.8872 B(  0-C ,  2-C ) :   1.0595 B(  0-C ,  4-H ) :   0.9182
B(  2-C ,  3-C ) :   1.9208 B(  2-C ,  5-H ) :   0.9482 B(  3-C ,  6-H ) :   0.9688
B(  3-C ,  7-H ) :   0.9679

-----------------------------------------------------------------------------
         ABSORPTION SPECTRUM VIA TRANSITION ELECTRIC DIPOLE MOMENTS
-----------------------------------------------------------------------------
State   Energy    Wavelength  fosc         T2        TX        TY        TZ
        (cm-1)      (nm)                 (au**2)    (au)      (au)      (au)
-----------------------------------------------------------------------------
   1   31366.9    318.8   0.000016567   0.00017   0.01110  -0.00352  -0.00619

Dispersion correction           -0.025397493
FINAL SINGLE POINT ENERGY      -189.320246600697

DIPOLE MOMENT
-------------
                                X             Y             Z
Electronic contribution:     -3.06732      -0.36578      -1.14522
Nuclear contribution   :      4.11296       0.55773       1.62475
                        -----------------------------------------
Total Dipole Moment    :      1.04564       0.19195       0.47953
                        -----------------------------------------
Magnitude (a.u.)       :      1.16626
Magnitude (Debye)      :      2.96439

Rotational constants in cm-1:     1.536031     0.154606     0.142335
Rotational constants in MHz : 46049.036900  4634.982838  4267.090504

                             ****ORCA TERMINATED NORMALLY****
TOTAL RUN TIME: 0 days 0 hours 0 minutes 9 seconds 47 msec
