                         Program Version 5.0.3 -  RELEASE  -
|  1> ! HF-3c
|  2> !TightSCF
|  3> %scf
|  4>  ConvForced true
|  5>  convergence tight
|  6>  MaxIter 500
|  7> end
|  8>
|  9> %tddft
| 10>  nroots 1
| 11> end
| 12>
| 13> # 	6014
| 14> * xyz 0 1
| 15> 		C   -1.212960  -0.286046  -0.106819
| 16> 		O   -1.840051  -0.759816  -0.972350
| 17> 		C    0.000692   0.471798  -0.190847
| 18> 		C    1.222265   0.014811   0.281744
| 19> 		H   -1.617445  -0.619861   1.011536
| 20> 		H   -0.013218   1.417811  -0.886196
| 21> 		H    1.365600  -0.859242   0.789601
| 22> 		H    2.060085   0.567747   0.057812
| 23> *
| 24>
| 25>                          ****END OF INPUT****

CARTESIAN COORDINATES (ANGSTROEM)
---------------------------------
  C     -1.212960   -0.286046   -0.106819
  O     -1.840051   -0.759816   -0.972350
  C      0.000692    0.471798   -0.190847
  C      1.222265    0.014811    0.281744
  H     -1.617445   -0.619861    1.011536
  H     -0.013218    1.417811   -0.886196
  H      1.365600   -0.859242    0.789601
  H      2.060085    0.567747    0.057812

 Total Charge           Charge          ....    0
 Multiplicity           Mult            ....    1
 Number of Electrons    NEL             ....   30
 Basis Dimension        Dim             ....   24

ORBITAL ENERGIES
----------------

  NO   OCC          E(Eh)            E(eV)
   0   2.0000     -20.377993      -554.5134
   1   2.0000     -11.306970      -307.6783
   2   2.0000     -11.199662      -304.7583
   3   2.0000     -11.190528      -304.5097
   4   2.0000      -1.434458       -39.0336
   5   2.0000      -1.075788       -29.2737
   6   2.0000      -0.896028       -24.3822
   7   2.0000      -0.751173       -20.4405
   8   2.0000      -0.678173       -18.4540
   9   2.0000      -0.650858       -17.7107
  10   2.0000      -0.601439       -16.3660
  11   2.0000      -0.567874       -15.4526
  12   2.0000      -0.519976       -14.1493
  13   2.0000      -0.403692       -10.9850
  14   2.0000      -0.384090       -10.4516
  15   0.0000       0.148889         4.0515
  16   0.0000       0.249412         6.7868
  17   0.0000       0.510385        13.8883
  18   0.0000       0.580322        15.7914
  19   0.0000       0.680641        18.5212

MULLIKEN ATOMIC CHARGES
-----------------------
   0 C :    0.183026
   1 O :   -0.357848
   2 C :   -0.147103
   3 C :   -0.251997
   4 H :    0.125362
   5 H :    0.160762
   6 H :    0.143353
   7 H :    0.144447
Sum of atomic charges:   -0.0000000

LOEWDIN ATOMIC CHARGES
----------------------
   0 C :    0.144548
   1 O :   -0.249611
   2 C :   -0.108615
   3 C :   -0.148893
   4 H :    0.071236
   5 H :    0.113345
   6 H :    0.088082
   7 H :    0.089908

  Mayer bond orders larger than 0.100000
B(  0-C ,  1-O ) :   1.9277 B(  0-C ,  2-C ) :   1.0215 B(  0-C ,  4-H ) :   0.8989
B(  2-C ,  3-C ) :   1.9611 B(  2-C ,  5-H ) :   0.9444 B(  3-C ,  6-H ) :   0.9689
B(  3-C ,  7-H ) :   0.9679

-----------------------------------------------------------------------------
         ABSORPTION SPECTRUM VIA TRANSITION ELECTRIC DIPOLE MOMENTS
-----------------------------------------------------------------------------
State   Energy    Wavelength  fosc         T2        TX        TY        TZ
        (cm-1)      (nm)                 (au**2)    (au)      (au)      (au)
-----------------------------------------------------------------------------
   1   35324.0    283.1   0.000118797   0.00111  -0.02284  -0.01400   0.01974

Dispersion correction           -0.024921138
FINAL SINGLE POINT ENERGY      -189.288854046425

DIPOLE MOMENT
-------------
                                X             Y             Z
Electronic contribution:     -2.81879      -0.65902      -1.30112
Nuclear contribution   :      3.50547       1.08462       1.89060
                        -----------------------------------------
Total Dipole Moment    :      0.68668       0.42560       0.58947
                        -----------------------------------------
Magnitude (a.u.)       :      1.00007
Magnitude (Debye)      :      2.54198

Rotational constants in cm-1:     1.171594     0.158803     0.153572
Rotational constants in MHz : 35123.504376  4760.785734  4603.975761

                             ****ORCA TERMINATED NORMALLY****
TOTAL RUN TIME: 0 days 0 hours 0 minutes 12 seconds 814 msec
