                         Program Version 5.0.3 -  RELEASE  -
|  1> ! B3LYP cc-pVDZ
|  2> !TightSCF
|  3> %scf
|  4>  ConvForced true
|  5>  convergence tight
|  6>  MaxIter 500
|  7> end
|  8>
|  9> %tddft
| 10>  nroots 1
| 11> end
| 12>
| 13> # 	30924
| 14> * xyz 0 1
| 15> 		C   -0.573417  -0.422581   0.083974
| 16> 		O   -0.611659  -1.659962  -0.053540
| 17> 		C    0.661992   0.379770  -0.031756
| 18> 		C    1.838659  -0.044921   0.012806
| 19> 		H   -1.554690   0.047935   0.179454
| 20> 		H    0.496139   1.437492  -0.366100
| 21> 		H    1.906636  -1.220644   0.225338
| 22> 		H    2.853283   0.357555   0.014326
| 23> *
| 24>
| 25>                          ****END OF INPUT****

CARTESIAN COORDINATES (ANGSTROEM)
---------------------------------
  C     -0.573417   -0.422581    0.083974
  O     -0.611659   -1.659962   -0.053540
  C      0.661992    0.379770   -0.031756
  C      1.838659   -0.044921    0.012806
  H     -1.554690    0.047935    0.179454
  H      0.496139    1.437492   -0.366100
  H      1.906636   -1.220644    0.225338
  H      2.853283    0.357555    0.014326

 Total Charge           Charge          ....    0
 Multiplicity           Mult            ....    1
 Number of Electrons    NEL             ....   30
 Basis Dimension        Dim             ....   76

ORBITAL ENERGIES
----------------

  NO   OCC          E(Eh)            E(eV)
   0   2.0000     -19.139196      -520.8040
   1   2.0000     -10.278281      -279.6863
   2   2.0000     -10.210346      -277.8376
   3   2.0000     -10.202539      -277.6252
   4   2.0000      -1.029012       -28.0008
   5   2.0000      -0.810440       -22.0532
   6   2.0000      -0.657587       -17.8938
   7   2.0000      -0.546515       -14.8714
   8   2.0000      -0.505480       -13.7548
   9   2.0000      -0.462087       -12.5740
  10   2.0000      -0.425197       -11.5702
  11   2.0000      -0.390743       -10.6326
  12   2.0000      -0.345489        -9.4012
  13   2.0000      -0.299947        -8.1620
  14   2.0000      -0.256704        -6.9853
  15   0.0000      -0.067208        -1.8288
  16   0.0000       0.052254         1.4219
  17   0.0000       0.071836         1.9548
  18   0.0000       0.086292         2.3481
  19   0.0000       0.118609         3.2275

MULLIKEN ATOMIC CHARGES
-----------------------
   0 C :    0.188294
   1 O :   -0.214961
   2 C :   -0.098502
   3 C :    0.054904
   4 H :   -0.006033
   5 H :   -0.001481
   6 H :    0.041228
   7 H :    0.036550
Sum of atomic charges:    0.0000000

LOEWDIN ATOMIC CHARGES
----------------------
   0 C :   -0.000063
   1 O :   -0.031736
   2 C :   -0.097768
   3 C :    0.006442
   4 H :    0.002600
   5 H :    0.036738
   6 H :    0.048427
   7 H :    0.035360

  Mayer bond orders larger than 0.100000
B(  0-C ,  1-O ) :   2.1575 B(  0-C ,  2-C ) :   1.0360 B(  0-C ,  4-H ) :   0.9322
B(  2-C ,  3-C ) :   1.9908 B(  2-C ,  5-H ) :   0.9373 B(  3-C ,  6-H ) :   0.9105
B(  3-C ,  7-H ) :   0.9488

-----------------------------------------------------------------------------
         ABSORPTION SPECTRUM VIA TRANSITION ELECTRIC DIPOLE MOMENTS
-----------------------------------------------------------------------------
State   Energy    Wavelength  fosc         T2        TX        TY        TZ
        (cm-1)      (nm)                 (au**2)    (au)      (au)      (au)
-----------------------------------------------------------------------------
   1   27787.3    359.9   0.000121774   0.00144  -0.02222  -0.00898   0.02947

FINAL SINGLE POINT ENERGY      -191.655559457383

DIPOLE MOMENT
-------------
                                X             Y             Z
Electronic contribution:     -1.93146      -1.44792       0.00171
Nuclear contribution   :      2.31484       2.37265       0.05044
                        -----------------------------------------
Total Dipole Moment    :      0.38338       0.92473       0.05214
                        -----------------------------------------
Magnitude (a.u.)       :      1.00241
Magnitude (Debye)      :      2.54791

Rotational constants in cm-1:     0.815745     0.200868     0.162308
Rotational constants in MHz : 24455.422617  6021.885536  4865.869985

                             ****ORCA TERMINATED NORMALLY****
TOTAL RUN TIME: 0 days 0 hours 3 minutes 18 seconds 718 msec
