                         Program Version 5.0.3 -  RELEASE  -
|  1> ! B3LYP cc-pVDZ
|  2> !TightSCF
|  3> %scf
|  4>  ConvForced true
|  5>  convergence tight
|  6>  MaxIter 500
|  7> end
|  8>
|  9> %tddft
| 10>  nroots 1
| 11> end
| 12>
| 13> # 	16803
| 14> * xyz 0 1
| 15> 		C   -1.250229  -0.402843   0.079466
| 16> 		O   -1.293389  -1.618343   0.249342
| 17> 		C    0.040522   0.439427   0.115043
| 18> 		C    1.232800  -0.014952   0.011338
| 19> 		H   -2.173500   0.204189  -0.334158
| 20> 		H   -0.087021   1.518877   0.045060
| 21> 		H    1.545578  -0.976599  -0.118102
| 22> 		H    2.000105   0.905209  -0.131976
| 23> *
| 24>
| 25>                          ****END OF INPUT****

CARTESIAN COORDINATES (ANGSTROEM)
---------------------------------
  C     -1.250229   -0.402843    0.079466
  O     -1.293389   -1.618343    0.249342
  C      0.040522    0.439427    0.115043
  C      1.232800   -0.014952    0.011338
  H     -2.173500    0.204189   -0.334158
  H     -0.087021    1.518877    0.045060
  H      1.545578   -0.976599   -0.118102
  H      2.000105    0.905209   -0.131976

 Total Charge           Charge          ....    0
 Multiplicity           Mult            ....    1
 Number of Electrons    NEL             ....   30
 Basis Dimension        Dim             ....   76

ORBITAL ENERGIES
----------------

  NO   OCC          E(Eh)            E(eV)
   0   2.0000     -19.146983      -521.0159
   1   2.0000     -10.288941      -279.9763
   2   2.0000     -10.209092      -277.8035
   3   2.0000     -10.203282      -277.6454
   4   2.0000      -1.040588       -28.3159
   5   2.0000      -0.804213       -21.8837
   6   2.0000      -0.646820       -17.6009
   7   2.0000      -0.548955       -14.9378
   8   2.0000      -0.496377       -13.5071
   9   2.0000      -0.453825       -12.3492
  10   2.0000      -0.423072       -11.5124
  11   2.0000      -0.391579       -10.6554
  12   2.0000      -0.374323       -10.1859
  13   2.0000      -0.299547        -8.1511
  14   2.0000      -0.256831        -6.9887
  15   0.0000      -0.064851        -1.7647
  16   0.0000       0.040762         1.1092
  17   0.0000       0.057056         1.5526
  18   0.0000       0.087542         2.3821
  19   0.0000       0.118835         3.2337

MULLIKEN ATOMIC CHARGES
-----------------------
   0 C :    0.158955
   1 O :   -0.192998
   2 C :   -0.089050
   3 C :    0.084656
   4 H :   -0.000062
   5 H :   -0.006485
   6 H :    0.001363
   7 H :    0.043622
Sum of atomic charges:   -0.0000000

LOEWDIN ATOMIC CHARGES
----------------------
   0 C :   -0.016930
   1 O :   -0.015881
   2 C :   -0.086190
   3 C :    0.015429
   4 H :    0.001705
   5 H :    0.031100
   6 H :    0.011430
   7 H :    0.059335

  Mayer bond orders larger than 0.100000
B(  0-C ,  1-O ) :   2.1958 B(  0-C ,  2-C ) :   1.0042 B(  0-C ,  4-H ) :   0.8951
B(  2-C ,  3-C ) :   2.0099 B(  2-C ,  5-H ) :   0.9292 B(  3-C ,  6-H ) :   0.9472
B(  3-C ,  7-H ) :   0.9296

-----------------------------------------------------------------------------
         ABSORPTION SPECTRUM VIA TRANSITION ELECTRIC DIPOLE MOMENTS
-----------------------------------------------------------------------------
State   Energy    Wavelength  fosc         T2        TX        TY        TZ
        (cm-1)      (nm)                 (au**2)    (au)      (au)      (au)
-----------------------------------------------------------------------------
   1   28696.1    348.5   0.000169270   0.00194  -0.00069  -0.01464   0.04156

FINAL SINGLE POINT ENERGY      -191.653170825317

DIPOLE MOMENT
-------------
                                X             Y             Z
Electronic contribution:     -2.07664      -2.25928       0.68733
Nuclear contribution   :      2.47145       3.13622      -0.89985
                        -----------------------------------------
Total Dipole Moment    :      0.39481       0.87694      -0.21253
                        -----------------------------------------
Magnitude (a.u.)       :      0.98491
Magnitude (Debye)      :      2.50345

Rotational constants in cm-1:     0.819928     0.189067     0.154729
Rotational constants in MHz : 24580.829234  5668.100508  4638.659050

                             ****ORCA TERMINATED NORMALLY****
TOTAL RUN TIME: 0 days 0 hours 3 minutes 22 seconds 165 msec
