                         Program Version 5.0.3 -  RELEASE  -
|  1> ! HF-3c
|  2> !TightSCF
|  3> %scf
|  4>  ConvForced true
|  5>  convergence tight
|  6>  MaxIter 500
|  7> end
|  8>
|  9> %tddft
| 10>  nroots 1
| 11> end
| 12>
| 13> # 	12830
| 14> * xyz 0 1
| 15> 		C   -1.197086  -0.230179  -0.003957
| 16> 		O   -1.577238  -1.016638   0.839534
| 17> 		C    0.009001   0.540612   0.248066
| 18> 		C    1.175070   0.008289  -0.158145
| 19> 		H   -1.591129  -0.283634  -0.942717
| 20> 		H   -0.101287   1.439587   0.841264
| 21> 		H    1.071516  -1.015024  -0.617944
| 22> 		H    2.182851   0.554083  -0.173408
| 23> *
| 24>
| 25>                          ****END OF INPUT****

CARTESIAN COORDINATES (ANGSTROEM)
---------------------------------
  C     -1.197086   -0.230179   -0.003957
  O     -1.577238   -1.016638    0.839534
  C      0.009001    0.540612    0.248066
  C      1.175070    0.008289   -0.158145
  H     -1.591129   -0.283634   -0.942717
  H     -0.101287    1.439587    0.841264
  H      1.071516   -1.015024   -0.617944
  H      2.182851    0.554083   -0.173408

 Total Charge           Charge          ....    0
 Multiplicity           Mult            ....    1
 Number of Electrons    NEL             ....   30
 Basis Dimension        Dim             ....   24

ORBITAL ENERGIES
----------------

  NO   OCC          E(Eh)            E(eV)
   0   2.0000     -20.374292      -554.4127
   1   2.0000     -11.299104      -307.4642
   2   2.0000     -11.186233      -304.3929
   3   2.0000     -11.178694      -304.1877
   4   2.0000      -1.409485       -38.3540
   5   2.0000      -1.078714       -29.3533
   6   2.0000      -0.882853       -24.0237
   7   2.0000      -0.784347       -21.3432
   8   2.0000      -0.687057       -18.6958
   9   2.0000      -0.632326       -17.2065
  10   2.0000      -0.599775       -16.3207
  11   2.0000      -0.541196       -14.7267
  12   2.0000      -0.501402       -13.6438
  13   2.0000      -0.426313       -11.6006
  14   2.0000      -0.390006       -10.6126
  15   0.0000       0.175483         4.7751
  16   0.0000       0.218232         5.9384
  17   0.0000       0.578756        15.7487
  18   0.0000       0.596078        16.2201
  19   0.0000       0.649920        17.6852

MULLIKEN ATOMIC CHARGES
-----------------------
   0 C :    0.143654
   1 O :   -0.331002
   2 C :   -0.171115
   3 C :   -0.223862
   4 H :    0.145271
   5 H :    0.152290
   6 H :    0.136304
   7 H :    0.148459
Sum of atomic charges:    0.0000000

LOEWDIN ATOMIC CHARGES
----------------------
   0 C :    0.138294
   1 O :   -0.238524
   2 C :   -0.125143
   3 C :   -0.140218
   4 H :    0.073439
   5 H :    0.099082
   6 H :    0.090909
   7 H :    0.102160

  Mayer bond orders larger than 0.100000
B(  0-C ,  1-O ) :   1.9373 B(  0-C ,  2-C ) :   0.9995 B(  0-C ,  4-H ) :   0.9309
B(  2-C ,  3-C ) :   1.9906 B(  2-C ,  5-H ) :   0.9505 B(  3-C ,  6-H ) :   0.9642
B(  3-C ,  7-H ) :   0.9612

-----------------------------------------------------------------------------
         ABSORPTION SPECTRUM VIA TRANSITION ELECTRIC DIPOLE MOMENTS
-----------------------------------------------------------------------------
State   Energy    Wavelength  fosc         T2        TX        TY        TZ
        (cm-1)      (nm)                 (au**2)    (au)      (au)      (au)
-----------------------------------------------------------------------------
   1   32720.1    305.6   0.000045127   0.00045  -0.01196  -0.00539  -0.01679

Dispersion correction           -0.025851565
FINAL SINGLE POINT ENERGY      -189.314464179442

DIPOLE MOMENT
-------------
                                X             Y             Z
Electronic contribution:     -2.55467      -0.88480       1.10160
Nuclear contribution   :      3.04250       1.42570      -1.73671
                        -----------------------------------------
Total Dipole Moment    :      0.48783       0.54089      -0.63511
                        -----------------------------------------
Magnitude (a.u.)       :      0.96639
Magnitude (Debye)      :      2.45636

Rotational constants in cm-1:     0.927124     0.181103     0.171409
Rotational constants in MHz : 27794.468216  5429.336244  5138.714597

                             ****ORCA TERMINATED NORMALLY****
TOTAL RUN TIME: 0 days 0 hours 0 minutes 9 seconds 423 msec
