                         Program Version 5.0.3 -  RELEASE  -
|  1> ! HF-3c
|  2> !TightSCF
|  3> %scf
|  4>  ConvForced true
|  5>  convergence tight
|  6>  MaxIter 500
|  7> end
|  8>
|  9> %tddft
| 10>  nroots 1
| 11> end
| 12>
| 13> # 	26067
| 14> * xyz 0 1
| 15> 		C   -0.573942  -0.431137  -0.018437
| 16> 		O   -0.610665  -1.672009   0.003121
| 17> 		C    0.649425   0.442092   0.018363
| 18> 		C    1.868983  -0.105878   0.013152
| 19> 		H   -1.509704  -0.082146   0.086936
| 20> 		H    0.491833   1.622641  -0.151507
| 21> 		H    1.888545  -1.299569  -0.137585
| 22> 		H    2.668095   0.648589  -0.009369
| 23> *
| 24>
| 25>                          ****END OF INPUT****

CARTESIAN COORDINATES (ANGSTROEM)
---------------------------------
  C     -0.573942   -0.431137   -0.018437
  O     -0.610665   -1.672009    0.003121
  C      0.649425    0.442092    0.018363
  C      1.868983   -0.105878    0.013152
  H     -1.509704   -0.082146    0.086936
  H      0.491833    1.622641   -0.151507
  H      1.888545   -1.299569   -0.137585
  H      2.668095    0.648589   -0.009369

 Total Charge           Charge          ....    0
 Multiplicity           Mult            ....    1
 Number of Electrons    NEL             ....   30
 Basis Dimension        Dim             ....   24

ORBITAL ENERGIES
----------------

  NO   OCC          E(Eh)            E(eV)
   0   2.0000     -20.347829      -553.6926
   1   2.0000     -11.281607      -306.9881
   2   2.0000     -11.183880      -304.3289
   3   2.0000     -11.181580      -304.2663
   4   2.0000      -1.378078       -37.4994
   5   2.0000      -1.066357       -29.0171
   6   2.0000      -0.883259       -24.0347
   7   2.0000      -0.744444       -20.2573
   8   2.0000      -0.682507       -18.5720
   9   2.0000      -0.588353       -16.0099
  10   2.0000      -0.583349       -15.8737
  11   2.0000      -0.527364       -14.3503
  12   2.0000      -0.503820       -13.7096
  13   2.0000      -0.413950       -11.2642
  14   2.0000      -0.385132       -10.4800
  15   0.0000       0.131768         3.5856
  16   0.0000       0.300031         8.1643
  17   0.0000       0.504128        13.7180
  18   0.0000       0.522358        14.2141
  19   0.0000       0.581333        15.8189

MULLIKEN ATOMIC CHARGES
-----------------------
   0 C :    0.124240
   1 O :   -0.349153
   2 C :   -0.165002
   3 C :   -0.220237
   4 H :    0.141019
   5 H :    0.143344
   6 H :    0.176559
   7 H :    0.149230
Sum of atomic charges:   -0.0000000

LOEWDIN ATOMIC CHARGES
----------------------
   0 C :    0.126080
   1 O :   -0.265417
   2 C :   -0.131211
   3 C :   -0.129470
   4 H :    0.069807
   5 H :    0.100411
   6 H :    0.130062
   7 H :    0.099739

  Mayer bond orders larger than 0.100000
B(  0-C ,  1-O ) :   1.8957 B(  0-C ,  2-C ) :   1.0253 B(  0-C ,  4-H ) :   0.9462
B(  2-C ,  3-C ) :   1.9453 B(  2-C ,  5-H ) :   0.9543 B(  3-C ,  6-H ) :   0.9469
B(  3-C ,  7-H ) :   0.9615

-----------------------------------------------------------------------------
         ABSORPTION SPECTRUM VIA TRANSITION ELECTRIC DIPOLE MOMENTS
-----------------------------------------------------------------------------
State   Energy    Wavelength  fosc         T2        TX        TY        TZ
        (cm-1)      (nm)                 (au**2)    (au)      (au)      (au)
-----------------------------------------------------------------------------
   1   30209.4    331.0   0.000113324   0.00123  -0.02752  -0.01037   0.01924

Dispersion correction           -0.025385867
FINAL SINGLE POINT ENERGY      -189.312843232499

DIPOLE MOMENT
-------------
                                X             Y             Z
Electronic contribution:     -1.76105      -1.68974       0.11161
Nuclear contribution   :      2.15834       2.62379      -0.19798
                        -----------------------------------------
Total Dipole Moment    :      0.39730       0.93405      -0.08637
                        -----------------------------------------
Magnitude (a.u.)       :      1.01870
Magnitude (Debye)      :      2.58933

Rotational constants in cm-1:     0.766658     0.199800     0.158674
Rotational constants in MHz : 22983.816878  5989.855265  4756.936233

                             ****ORCA TERMINATED NORMALLY****
TOTAL RUN TIME: 0 days 0 hours 0 minutes 10 seconds 817 msec
