                         Program Version 5.0.3 -  RELEASE  -
|  1> ! HF-3c
|  2> !TightSCF
|  3> %scf
|  4>  ConvForced true
|  5>  convergence tight
|  6>  MaxIter 500
|  7> end
|  8>
|  9> %tddft
| 10>  nroots 1
| 11> end
| 12>
| 13> # 	3410
| 14> * xyz 0 1
| 15> 		C   -1.163880  -0.334549  -0.021363
| 16> 		O   -1.699631  -1.214982  -0.807247
| 17> 		C    0.003756   0.392505  -0.261080
| 18> 		C    1.225393   0.081933   0.124232
| 19> 		H   -1.712297  -0.112099   0.845286
| 20> 		H   -0.064071   1.413408  -0.719667
| 21> 		H    1.353554  -0.870355   0.788093
| 22> 		H    2.087467   0.641480   0.018766
| 23> *
| 24>
| 25>                          ****END OF INPUT****

CARTESIAN COORDINATES (ANGSTROEM)
---------------------------------
  C     -1.163880   -0.334549   -0.021363
  O     -1.699631   -1.214982   -0.807247
  C      0.003756    0.392505   -0.261080
  C      1.225393    0.081933    0.124232
  H     -1.712297   -0.112099    0.845286
  H     -0.064071    1.413408   -0.719667
  H      1.353554   -0.870355    0.788093
  H      2.087467    0.641480    0.018766

 Total Charge           Charge          ....    0
 Multiplicity           Mult            ....    1
 Number of Electrons    NEL             ....   30
 Basis Dimension        Dim             ....   24

ORBITAL ENERGIES
----------------

  NO   OCC          E(Eh)            E(eV)
   0   2.0000     -20.359026      -553.9973
   1   2.0000     -11.289879      -307.2132
   2   2.0000     -11.201119      -304.7980
   3   2.0000     -11.188400      -304.4518
   4   2.0000      -1.350997       -36.7625
   5   2.0000      -1.097767       -29.8718
   6   2.0000      -0.913514       -24.8580
   7   2.0000      -0.765496       -20.8302
   8   2.0000      -0.687430       -18.7059
   9   2.0000      -0.649559       -17.6754
  10   2.0000      -0.595113       -16.1938
  11   2.0000      -0.528605       -14.3841
  12   2.0000      -0.459454       -12.5024
  13   2.0000      -0.431327       -11.7370
  14   2.0000      -0.406306       -11.0562
  15   0.0000       0.157272         4.2796
  16   0.0000       0.205234         5.5847
  17   0.0000       0.555078        15.1045
  18   0.0000       0.632188        17.2027
  19   0.0000       0.674884        18.3645

MULLIKEN ATOMIC CHARGES
-----------------------
   0 C :    0.125514
   1 O :   -0.313541
   2 C :   -0.181322
   3 C :   -0.223209
   4 H :    0.148011
   5 H :    0.162349
   6 H :    0.139164
   7 H :    0.143034
Sum of atomic charges:    0.0000000

LOEWDIN ATOMIC CHARGES
----------------------
   0 C :    0.136217
   1 O :   -0.245029
   2 C :   -0.131258
   3 C :   -0.135283
   4 H :    0.080724
   5 H :    0.111597
   6 H :    0.094961
   7 H :    0.088070

  Mayer bond orders larger than 0.100000
B(  0-C ,  1-O ) :   1.9225 B(  0-C ,  2-C ) :   1.0403 B(  0-C ,  4-H ) :   0.9308
B(  2-C ,  3-C ) :   1.9804 B(  2-C ,  5-H ) :   0.9316 B(  3-C ,  6-H ) :   0.9627
B(  3-C ,  7-H ) :   0.9667

-----------------------------------------------------------------------------
         ABSORPTION SPECTRUM VIA TRANSITION ELECTRIC DIPOLE MOMENTS
-----------------------------------------------------------------------------
State   Energy    Wavelength  fosc         T2        TX        TY        TZ
        (cm-1)      (nm)                 (au**2)    (au)      (au)      (au)
-----------------------------------------------------------------------------
   1   28926.6    345.7   0.000057844   0.00066   0.02346   0.01038   0.00025

Dispersion correction           -0.025297561
FINAL SINGLE POINT ENERGY      -189.319782891671

DIPOLE MOMENT
-------------
                                X             Y             Z
Electronic contribution:     -2.62649      -1.37856      -1.16094
Nuclear contribution   :      3.19849       2.10887       1.79532
                        -----------------------------------------
Total Dipole Moment    :      0.57200       0.73031       0.63438
                        -----------------------------------------
Magnitude (a.u.)       :      1.12382
Magnitude (Debye)      :      2.85653

Rotational constants in cm-1:     1.066950     0.162960     0.155524
Rotational constants in MHz : 31986.347088  4885.429619  4662.494897

                             ****ORCA TERMINATED NORMALLY****
TOTAL RUN TIME: 0 days 0 hours 0 minutes 16 seconds 102 msec
