                         Program Version 5.0.3 -  RELEASE  -
|  1> ! HF-3c
|  2> !TightSCF
|  3> %scf
|  4>  ConvForced true
|  5>  convergence tight
|  6>  MaxIter 500
|  7> end
|  8>
|  9> %tddft
| 10>  nroots 1
| 11> end
| 12>
| 13> # 	29303
| 14> * xyz 0 1
| 15> 		C   -0.577678  -0.419580   0.009260
| 16> 		O   -0.560143  -1.669830  -0.016455
| 17> 		C    0.634289   0.435140   0.004710
| 18> 		C    1.809448  -0.113319   0.006213
| 19> 		H   -1.622468   0.125608   0.106463
| 20> 		H    0.778986   1.705351  -0.123285
| 21> 		H    1.802455  -1.335815   0.146366
| 22> 		H    2.725813   0.414875  -0.124792
| 23> *
| 24>
| 25>                          ****END OF INPUT****

CARTESIAN COORDINATES (ANGSTROEM)
---------------------------------
  C     -0.577678   -0.419580    0.009260
  O     -0.560143   -1.669830   -0.016455
  C      0.634289    0.435140    0.004710
  C      1.809448   -0.113319    0.006213
  H     -1.622468    0.125608    0.106463
  H      0.778986    1.705351   -0.123285
  H      1.802455   -1.335815    0.146366
  H      2.725813    0.414875   -0.124792

 Total Charge           Charge          ....    0
 Multiplicity           Mult            ....    1
 Number of Electrons    NEL             ....   30
 Basis Dimension        Dim             ....   24

ORBITAL ENERGIES
----------------

  NO   OCC          E(Eh)            E(eV)
   0   2.0000     -20.349919      -553.7495
   1   2.0000     -11.288010      -307.1624
   2   2.0000     -11.178952      -304.1948
   3   2.0000     -11.177787      -304.1631
   4   2.0000      -1.370352       -37.2892
   5   2.0000      -1.075379       -29.2626
   6   2.0000      -0.869363       -23.6566
   7   2.0000      -0.715102       -19.4589
   8   2.0000      -0.672940       -18.3116
   9   2.0000      -0.595615       -16.2075
  10   2.0000      -0.576658       -15.6917
  11   2.0000      -0.522766       -14.2252
  12   2.0000      -0.469620       -12.7790
  13   2.0000      -0.411095       -11.1865
  14   2.0000      -0.391087       -10.6420
  15   0.0000       0.135987         3.7004
  16   0.0000       0.319840         8.7033
  17   0.0000       0.433795        11.8042
  18   0.0000       0.509705        13.8698
  19   0.0000       0.562491        15.3062

MULLIKEN ATOMIC CHARGES
-----------------------
   0 C :    0.165047
   1 O :   -0.357086
   2 C :   -0.180693
   3 C :   -0.214097
   4 H :    0.137001
   5 H :    0.150481
   6 H :    0.159994
   7 H :    0.139353
Sum of atomic charges:   -0.0000000

LOEWDIN ATOMIC CHARGES
----------------------
   0 C :    0.152202
   1 O :   -0.275278
   2 C :   -0.150557
   3 C :   -0.124412
   4 H :    0.080660
   5 H :    0.113081
   6 H :    0.116183
   7 H :    0.088121

  Mayer bond orders larger than 0.100000
B(  0-C ,  1-O ) :   1.9008 B(  0-C ,  2-C ) :   1.0290 B(  0-C ,  4-H ) :   0.9221
B(  2-C ,  3-C ) :   1.9503 B(  2-C ,  5-H ) :   0.9443 B(  3-C ,  6-H ) :   0.9457
B(  3-C ,  7-H ) :   0.9653

-----------------------------------------------------------------------------
         ABSORPTION SPECTRUM VIA TRANSITION ELECTRIC DIPOLE MOMENTS
-----------------------------------------------------------------------------
State   Energy    Wavelength  fosc         T2        TX        TY        TZ
        (cm-1)      (nm)                 (au**2)    (au)      (au)      (au)
-----------------------------------------------------------------------------
   1   31744.2    315.0   0.000100701   0.00104  -0.02157   0.00172   0.02400

Dispersion correction           -0.025551668
FINAL SINGLE POINT ENERGY      -189.296187942463

DIPOLE MOMENT
-------------
                                X             Y             Z
Electronic contribution:     -1.97865      -1.64355       0.00019
Nuclear contribution   :      2.29516       2.64161       0.00529
                        -----------------------------------------
Total Dipole Moment    :      0.31651       0.99806       0.00548
                        -----------------------------------------
Magnitude (a.u.)       :      1.04706
Magnitude (Debye)      :      2.66142

Rotational constants in cm-1:     0.739096     0.209705     0.163578
Rotational constants in MHz : 22157.531608  6286.797354  4903.934860

                             ****ORCA TERMINATED NORMALLY****
TOTAL RUN TIME: 0 days 0 hours 0 minutes 16 seconds 105 msec
