                         Program Version 5.0.3 -  RELEASE  -
|  1> ! HF-3c
|  2> !TightSCF
|  3> %scf
|  4>  ConvForced true
|  5>  convergence tight
|  6>  MaxIter 500
|  7> end
|  8>
|  9> %tddft
| 10>  nroots 1
| 11> end
| 12>
| 13> # 	16339
| 14> * xyz 0 1
| 15> 		C   -1.118590  -0.369746  -0.174208
| 16> 		O   -2.181074  -0.195584  -0.839664
| 17> 		C    0.111866   0.431030  -0.323923
| 18> 		C    1.109918   0.078571   0.406359
| 19> 		H   -1.027798  -1.065004   0.477618
| 20> 		H   -0.013096   1.045590  -0.964056
| 21> 		H    1.026229  -0.582667   1.312630
| 22> 		H    2.114493   0.643250   0.020675
| 23> *
| 24>
| 25>                          ****END OF INPUT****

CARTESIAN COORDINATES (ANGSTROEM)
---------------------------------
  C     -1.118590   -0.369746   -0.174208
  O     -2.181074   -0.195584   -0.839664
  C      0.111866    0.431030   -0.323923
  C      1.109918    0.078571    0.406359
  H     -1.027798   -1.065004    0.477618
  H     -0.013096    1.045590   -0.964056
  H      1.026229   -0.582667    1.312630
  H      2.114493    0.643250    0.020675

 Total Charge           Charge          ....    0
 Multiplicity           Mult            ....    1
 Number of Electrons    NEL             ....   30
 Basis Dimension        Dim             ....   24

ORBITAL ENERGIES
----------------

  NO   OCC          E(Eh)            E(eV)
   0   2.0000     -20.355546      -553.9026
   1   2.0000     -11.284845      -307.0762
   2   2.0000     -11.207618      -304.9748
   3   2.0000     -11.201712      -304.8141
   4   2.0000      -1.363682       -37.1077
   5   2.0000      -1.120786       -30.4981
   6   2.0000      -0.894915       -24.3519
   7   2.0000      -0.835897       -22.7459
   8   2.0000      -0.674920       -18.3655
   9   2.0000      -0.644033       -17.5250
  10   2.0000      -0.594471       -16.1764
  11   2.0000      -0.543832       -14.7984
  12   2.0000      -0.525018       -14.2865
  13   2.0000      -0.420004       -11.4289
  14   2.0000      -0.401974       -10.9383
  15   0.0000       0.125417         3.4128
  16   0.0000       0.291523         7.9327
  17   0.0000       0.497273        13.5315
  18   0.0000       0.553208        15.0536
  19   0.0000       0.727291        19.7906

MULLIKEN ATOMIC CHARGES
-----------------------
   0 C :    0.143429
   1 O :   -0.332983
   2 C :   -0.219716
   3 C :   -0.195343
   4 H :    0.130930
   5 H :    0.155669
   6 H :    0.158165
   7 H :    0.159850
Sum of atomic charges:   -0.0000000

LOEWDIN ATOMIC CHARGES
----------------------
   0 C :    0.145900
   1 O :   -0.255447
   2 C :   -0.152125
   3 C :   -0.106306
   4 H :    0.058953
   5 H :    0.084444
   6 H :    0.108164
   7 H :    0.116416

  Mayer bond orders larger than 0.100000
B(  0-C ,  1-O ) :   1.8999 B(  0-C ,  2-C ) :   1.0320 B(  0-C ,  4-H ) :   0.9462
B(  2-C ,  3-C ) :   1.9417 B(  2-C ,  5-H ) :   0.9598 B(  3-C ,  6-H ) :   0.9579
B(  3-C ,  7-H ) :   0.9533

-----------------------------------------------------------------------------
         ABSORPTION SPECTRUM VIA TRANSITION ELECTRIC DIPOLE MOMENTS
-----------------------------------------------------------------------------
State   Energy    Wavelength  fosc         T2        TX        TY        TZ
        (cm-1)      (nm)                 (au**2)    (au)      (au)      (au)
-----------------------------------------------------------------------------
   1   29753.5    336.1   0.000016479   0.00018  -0.01000   0.00153  -0.00895

Dispersion correction           -0.026593811
FINAL SINGLE POINT ENERGY      -189.266629265461

DIPOLE MOMENT
-------------
                                X             Y             Z
Electronic contribution:     -2.89068      -0.23358      -1.08055
Nuclear contribution   :      4.05716       0.13034       1.70155
                        -----------------------------------------
Total Dipole Moment    :      1.16648      -0.10324       0.62100
                        -----------------------------------------
Magnitude (a.u.)       :      1.32551
Magnitude (Debye)      :      3.36918

Rotational constants in cm-1:     1.643245     0.157832     0.144270
Rotational constants in MHz : 49263.248567  4731.684006  4325.110050

                             ****ORCA TERMINATED NORMALLY****
TOTAL RUN TIME: 0 days 0 hours 0 minutes 13 seconds 834 msec
