                         Program Version 5.0.3 -  RELEASE  -
|  1> ! B3LYP cc-pVDZ
|  2> !TightSCF
|  3> %scf
|  4>  ConvForced true
|  5>  convergence tight
|  6>  MaxIter 500
|  7> end
|  8>
|  9> %tddft
| 10>  nroots 1
| 11> end
| 12>
| 13> # 	28823
| 14> * xyz 0 1
| 15> 		C   -0.621936  -0.485345   0.001642
| 16> 		O   -0.569003  -1.609637  -0.005873
| 17> 		C    0.628842   0.426039  -0.015259
| 18> 		C    1.877302  -0.122171   0.010176
| 19> 		H   -1.679994   0.225491   0.115319
| 20> 		H    0.428661   1.493157  -0.005520
| 21> 		H    1.967059  -1.168607   0.043925
| 22> 		H    2.791109   0.425014  -0.023439
| 23> *
| 24>
| 25>                          ****END OF INPUT****

CARTESIAN COORDINATES (ANGSTROEM)
---------------------------------
  C     -0.621936   -0.485345    0.001642
  O     -0.569003   -1.609637   -0.005873
  C      0.628842    0.426039   -0.015259
  C      1.877302   -0.122171    0.010176
  H     -1.679994    0.225491    0.115319
  H      0.428661    1.493157   -0.005520
  H      1.967059   -1.168607    0.043925
  H      2.791109    0.425014   -0.023439

 Total Charge           Charge          ....    0
 Multiplicity           Mult            ....    1
 Number of Electrons    NEL             ....   30
 Basis Dimension        Dim             ....   76

ORBITAL ENERGIES
----------------

  NO   OCC          E(Eh)            E(eV)
   0   2.0000     -19.152704      -521.1716
   1   2.0000     -10.287418      -279.9349
   2   2.0000     -10.207198      -277.7520
   3   2.0000     -10.206317      -277.7280
   4   2.0000      -1.106854       -30.1190
   5   2.0000      -0.781529       -21.2665
   6   2.0000      -0.641909       -17.4672
   7   2.0000      -0.533193       -14.5089
   8   2.0000      -0.504015       -13.7149
   9   2.0000      -0.462413       -12.5829
  10   2.0000      -0.434038       -11.8108
  11   2.0000      -0.429350       -11.6832
  12   2.0000      -0.390303       -10.6207
  13   2.0000      -0.284868        -7.7517
  14   2.0000      -0.256501        -6.9797
  15   0.0000      -0.059162        -1.6099
  16   0.0000       0.059587         1.6215
  17   0.0000       0.065940         1.7943
  18   0.0000       0.091877         2.5001
  19   0.0000       0.117402         3.1947

MULLIKEN ATOMIC CHARGES
-----------------------
   0 C :    0.121008
   1 O :   -0.091313
   2 C :   -0.132047
   3 C :    0.101500
   4 H :   -0.035640
   5 H :   -0.010526
   6 H :    0.019385
   7 H :    0.027633
Sum of atomic charges:   -0.0000000

LOEWDIN ATOMIC CHARGES
----------------------
   0 C :   -0.088819
   1 O :    0.093170
   2 C :   -0.075587
   3 C :    0.025908
   4 H :   -0.021043
   5 H :    0.020627
   6 H :    0.020262
   7 H :    0.025481

  Mayer bond orders larger than 0.100000
B(  0-C ,  1-O ) :   2.3112 B(  0-C ,  2-C ) :   0.9825 B(  0-C ,  4-H ) :   0.8559
B(  2-C ,  3-C ) :   1.9772 B(  2-C ,  5-H ) :   0.9500 B(  3-C ,  6-H ) :   0.9364
B(  3-C ,  7-H ) :   0.9527

-----------------------------------------------------------------------------
         ABSORPTION SPECTRUM VIA TRANSITION ELECTRIC DIPOLE MOMENTS
-----------------------------------------------------------------------------
State   Energy    Wavelength  fosc         T2        TX        TY        TZ
        (cm-1)      (nm)                 (au**2)    (au)      (au)      (au)
-----------------------------------------------------------------------------
   1   31383.9    318.6   0.000123740   0.00130  -0.00149  -0.00915  -0.03482

FINAL SINGLE POINT ENERGY      -191.641689371123

DIPOLE MOMENT
-------------
                                X             Y             Z
Electronic contribution:     -1.72557      -2.06435      -0.11559
Nuclear contribution   :      2.13501       2.70197       0.12241
                        -----------------------------------------
Total Dipole Moment    :      0.40944       0.63762       0.00682
                        -----------------------------------------
Magnitude (a.u.)       :      0.75779
Magnitude (Debye)      :      1.92614

Rotational constants in cm-1:     0.759110     0.205899     0.162031
Rotational constants in MHz : 22757.559212  6172.687714  4857.573311

                             ****ORCA TERMINATED NORMALLY****
TOTAL RUN TIME: 0 days 0 hours 3 minutes 27 seconds 47 msec
