                         Program Version 5.0.3 -  RELEASE  -
|  1> ! B3LYP cc-pVDZ
|  2> !TightSCF
|  3> %scf
|  4>  ConvForced true
|  5>  convergence tight
|  6>  MaxIter 500
|  7> end
|  8>
|  9> %tddft
| 10>  nroots 1
| 11> end
| 12>
| 13> # 	10464
| 14> * xyz 0 1
| 15> 		C   -1.169706  -0.296222  -0.041885
| 16> 		O   -1.370096  -1.353502  -0.554305
| 17> 		C    0.035155   0.488351  -0.168292
| 18> 		C    1.220782   0.019413   0.084922
| 19> 		H   -1.918357   0.113607   0.700629
| 20> 		H   -0.122688   1.490089  -0.372524
| 21> 		H    1.240884  -0.974212   0.318092
| 22> 		H    2.107738   0.533718   0.025184
| 23> *
| 24>
| 25>                          ****END OF INPUT****

CARTESIAN COORDINATES (ANGSTROEM)
---------------------------------
  C     -1.169706   -0.296222   -0.041885
  O     -1.370096   -1.353502   -0.554305
  C      0.035155    0.488351   -0.168292
  C      1.220782    0.019413    0.084922
  H     -1.918357    0.113607    0.700629
  H     -0.122688    1.490089   -0.372524
  H      1.240884   -0.974212    0.318092
  H      2.107738    0.533718    0.025184

 Total Charge           Charge          ....    0
 Multiplicity           Mult            ....    1
 Number of Electrons    NEL             ....   30
 Basis Dimension        Dim             ....   76

ORBITAL ENERGIES
----------------

  NO   OCC          E(Eh)            E(eV)
   0   2.0000     -19.139907      -520.8234
   1   2.0000     -10.273629      -279.5596
   2   2.0000     -10.193322      -277.3744
   3   2.0000     -10.191871      -277.3349
   4   2.0000      -1.058819       -28.8119
   5   2.0000      -0.812369       -22.1057
   6   2.0000      -0.666711       -18.1421
   7   2.0000      -0.553640       -15.0653
   8   2.0000      -0.517507       -14.0821
   9   2.0000      -0.460680       -12.5357
  10   2.0000      -0.447013       -12.1638
  11   2.0000      -0.398619       -10.8470
  12   2.0000      -0.381556       -10.3827
  13   2.0000      -0.294430        -8.0118
  14   2.0000      -0.254318        -6.9204
  15   0.0000      -0.045490        -1.2378
  16   0.0000       0.024776         0.6742
  17   0.0000       0.084189         2.2909
  18   0.0000       0.101756         2.7689
  19   0.0000       0.121283         3.3003

MULLIKEN ATOMIC CHARGES
-----------------------
   0 C :    0.151101
   1 O :   -0.172145
   2 C :   -0.077471
   3 C :    0.152911
   4 H :   -0.021817
   5 H :   -0.027618
   6 H :   -0.009782
   7 H :    0.004821
Sum of atomic charges:    0.0000000

LOEWDIN ATOMIC CHARGES
----------------------
   0 C :   -0.042261
   1 O :    0.020761
   2 C :   -0.052310
   3 C :    0.024043
   4 H :   -0.005575
   5 H :    0.020256
   6 H :    0.016556
   7 H :    0.018530

  Mayer bond orders larger than 0.100000
B(  0-C ,  1-O ) :   2.2339 B(  0-C ,  2-C ) :   1.0271 B(  0-C ,  4-H ) :   0.9057
B(  2-C ,  3-C ) :   2.0328 B(  2-C ,  5-H ) :   0.9375 B(  3-C ,  6-H ) :   0.9262
B(  3-C ,  7-H ) :   0.9454

-----------------------------------------------------------------------------
         ABSORPTION SPECTRUM VIA TRANSITION ELECTRIC DIPOLE MOMENTS
-----------------------------------------------------------------------------
State   Energy    Wavelength  fosc         T2        TX        TY        TZ
        (cm-1)      (nm)                 (au**2)    (au)      (au)      (au)
-----------------------------------------------------------------------------
   1   32013.3    312.4   0.000189069   0.00194  -0.03812   0.00109  -0.02213

FINAL SINGLE POINT ENERGY      -191.642127258844

DIPOLE MOMENT
-------------
                                X             Y             Z
Electronic contribution:     -2.06739      -1.48612      -0.92948
Nuclear contribution   :      2.52134       2.27693       1.27325
                        -----------------------------------------
Total Dipole Moment    :      0.45395       0.79081       0.34377
                        -----------------------------------------
Magnitude (a.u.)       :      0.97448
Magnitude (Debye)      :      2.47694

Rotational constants in cm-1:     0.899046     0.195235     0.168007
Rotational constants in MHz : 26952.712998  5852.987187  5036.720234

                             ****ORCA TERMINATED NORMALLY****
TOTAL RUN TIME: 0 days 0 hours 3 minutes 19 seconds 515 msec
