                         Program Version 5.0.3 -  RELEASE  -
|  1> ! B3LYP cc-pVDZ
|  2> !TightSCF
|  3> %scf
|  4>  ConvForced true
|  5>  convergence tight
|  6>  MaxIter 500
|  7> end
|  8>
|  9> %tddft
| 10>  nroots 1
| 11> end
| 12>
| 13> # 	18128
| 14> * xyz 0 1
| 15> 		C   -1.187372  -0.282941  -0.018869
| 16> 		O   -1.620041  -1.053898  -0.803693
| 17> 		C    0.050517   0.536360  -0.232375
| 18> 		C    1.167874   0.007292   0.106536
| 19> 		H   -1.627659  -0.278051   1.034796
| 20> 		H    0.000661   1.399748  -0.792917
| 21> 		H    1.124299  -1.018529   0.690034
| 22> 		H    2.126820   0.623813   0.050577
| 23> *
| 24>
| 25>                          ****END OF INPUT****

CARTESIAN COORDINATES (ANGSTROEM)
---------------------------------
  C     -1.187372   -0.282941   -0.018869
  O     -1.620041   -1.053898   -0.803693
  C      0.050517    0.536360   -0.232375
  C      1.167874    0.007292    0.106536
  H     -1.627659   -0.278051    1.034796
  H      0.000661    1.399748   -0.792917
  H      1.124299   -1.018529    0.690034
  H      2.126820    0.623813    0.050577

 Total Charge           Charge          ....    0
 Multiplicity           Mult            ....    1
 Number of Electrons    NEL             ....   30
 Basis Dimension        Dim             ....   76

ORBITAL ENERGIES
----------------

  NO   OCC          E(Eh)            E(eV)
   0   2.0000     -19.145751      -520.9824
   1   2.0000     -10.280868      -279.7566
   2   2.0000     -10.208340      -277.7831
   3   2.0000     -10.193189      -277.3708
   4   2.0000      -1.068774       -29.0828
   5   2.0000      -0.807487       -21.9728
   6   2.0000      -0.634045       -17.2532
   7   2.0000      -0.560491       -15.2517
   8   2.0000      -0.498466       -13.5640
   9   2.0000      -0.458571       -12.4784
  10   2.0000      -0.440976       -11.9996
  11   2.0000      -0.388112       -10.5611
  12   2.0000      -0.381561       -10.3828
  13   2.0000      -0.295674        -8.0457
  14   2.0000      -0.253792        -6.9060
  15   0.0000      -0.030321        -0.8251
  16   0.0000       0.003787         0.1030
  17   0.0000       0.077135         2.0989
  18   0.0000       0.089080         2.4240
  19   0.0000       0.096946         2.6380

MULLIKEN ATOMIC CHARGES
-----------------------
   0 C :    0.138506
   1 O :   -0.152657
   2 C :   -0.017816
   3 C :   -0.017585
   4 H :   -0.013940
   5 H :   -0.013108
   6 H :    0.036112
   7 H :    0.040489
Sum of atomic charges:    0.0000000

LOEWDIN ATOMIC CHARGES
----------------------
   0 C :   -0.034161
   1 O :    0.036895
   2 C :   -0.061078
   3 C :   -0.039889
   4 H :   -0.007608
   5 H :    0.019265
   6 H :    0.043866
   7 H :    0.042711

  Mayer bond orders larger than 0.100000
B(  0-C ,  1-O ) :   2.2647 B(  0-C ,  2-C ) :   0.9614 B(  0-C ,  4-H ) :   0.9051
B(  2-C ,  3-C ) :   2.0505 B(  2-C ,  5-H ) :   0.9403 B(  3-C ,  6-H ) :   0.9322
B(  3-C ,  7-H ) :   0.9358

-----------------------------------------------------------------------------
         ABSORPTION SPECTRUM VIA TRANSITION ELECTRIC DIPOLE MOMENTS
-----------------------------------------------------------------------------
State   Energy    Wavelength  fosc         T2        TX        TY        TZ
        (cm-1)      (nm)                 (au**2)    (au)      (au)      (au)
-----------------------------------------------------------------------------
   1   34098.6    293.3   0.000299449   0.00289  -0.00840  -0.03094   0.04316

FINAL SINGLE POINT ENERGY      -191.624558504115

DIPOLE MOMENT
-------------
                                X             Y             Z
Electronic contribution:     -2.64721      -0.93282      -1.37333
Nuclear contribution   :      3.10646       1.53985       1.82419
                        -----------------------------------------
Total Dipole Moment    :      0.45925       0.60703       0.45086
                        -----------------------------------------
Magnitude (a.u.)       :      0.88469
Magnitude (Debye)      :      2.24870

Rotational constants in cm-1:     0.971574     0.177054     0.168424
Rotational constants in MHz : 29127.068050  5307.952378  5049.234420

                             ****ORCA TERMINATED NORMALLY****
TOTAL RUN TIME: 0 days 0 hours 3 minutes 22 seconds 901 msec
