                         Program Version 5.0.3 -  RELEASE  -
|  1> ! HF-3c
|  2> !TightSCF
|  3> %scf
|  4>  ConvForced true
|  5>  convergence tight
|  6>  MaxIter 500
|  7> end
|  8>
|  9> %tddft
| 10>  nroots 1
| 11> end
| 12>
| 13> # 	1331
| 14> * xyz 0 1
| 15> 		C   -1.173542  -0.354263  -0.049848
| 16> 		O   -1.948919  -0.826618  -0.870390
| 17> 		C    0.018586   0.389147  -0.305357
| 18> 		C    1.172584   0.043885   0.230466
| 19> 		H   -1.333041  -0.649245   1.090996
| 20> 		H   -0.047322   1.300662  -1.065509
| 21> 		H    1.237268  -0.608142   0.926326
| 22> 		H    2.103451   0.635665   0.046667
| 23> *
| 24>
| 25>                          ****END OF INPUT****

CARTESIAN COORDINATES (ANGSTROEM)
---------------------------------
  C     -1.173542   -0.354263   -0.049848
  O     -1.948919   -0.826618   -0.870390
  C      0.018586    0.389147   -0.305357
  C      1.172584    0.043885    0.230466
  H     -1.333041   -0.649245    1.090996
  H     -0.047322    1.300662   -1.065509
  H      1.237268   -0.608142    0.926326
  H      2.103451    0.635665    0.046667

 Total Charge           Charge          ....    0
 Multiplicity           Mult            ....    1
 Number of Electrons    NEL             ....   30
 Basis Dimension        Dim             ....   24

ORBITAL ENERGIES
----------------

  NO   OCC          E(Eh)            E(eV)
   0   2.0000     -20.366486      -554.2002
   1   2.0000     -11.295516      -307.3666
   2   2.0000     -11.204044      -304.8775
   3   2.0000     -11.193985      -304.6038
   4   2.0000      -1.393314       -37.9140
   5   2.0000      -1.102202       -29.9924
   6   2.0000      -0.895960       -24.3803
   7   2.0000      -0.765454       -20.8291
   8   2.0000      -0.675644       -18.3852
   9   2.0000      -0.647346       -17.6152
  10   2.0000      -0.592257       -16.1161
  11   2.0000      -0.551310       -15.0019
  12   2.0000      -0.508586       -13.8393
  13   2.0000      -0.414503       -11.2792
  14   2.0000      -0.399765       -10.8781
  15   0.0000       0.140859         3.8330
  16   0.0000       0.266595         7.2544
  17   0.0000       0.524465        14.2714
  18   0.0000       0.565685        15.3931
  19   0.0000       0.657940        17.9035

MULLIKEN ATOMIC CHARGES
-----------------------
   0 C :    0.167900
   1 O :   -0.344870
   2 C :   -0.151751
   3 C :   -0.257729
   4 H :    0.133144
   5 H :    0.163035
   6 H :    0.137424
   7 H :    0.152848
Sum of atomic charges:   -0.0000000

LOEWDIN ATOMIC CHARGES
----------------------
   0 C :    0.146059
   1 O :   -0.254618
   2 C :   -0.108790
   3 C :   -0.156868
   4 H :    0.076768
   5 H :    0.115397
   6 H :    0.078295
   7 H :    0.103758

  Mayer bond orders larger than 0.100000
B(  0-C ,  1-O ) :   1.9175 B(  0-C ,  2-C ) :   1.0311 B(  0-C ,  4-H ) :   0.9121
B(  2-C ,  3-C ) :   1.9639 B(  2-C ,  5-H ) :   0.9420 B(  3-C ,  6-H ) :   0.9688
B(  3-C ,  7-H ) :   0.9606

-----------------------------------------------------------------------------
         ABSORPTION SPECTRUM VIA TRANSITION ELECTRIC DIPOLE MOMENTS
-----------------------------------------------------------------------------
State   Energy    Wavelength  fosc         T2        TX        TY        TZ
        (cm-1)      (nm)                 (au**2)    (au)      (au)      (au)
-----------------------------------------------------------------------------
   1   32369.9    308.9   0.000063233   0.00064  -0.01864  -0.01175   0.01254

Dispersion correction           -0.025499830
FINAL SINGLE POINT ENERGY      -189.307285396183

DIPOLE MOMENT
-------------
                                X             Y             Z
Electronic contribution:     -2.96637      -0.89971      -1.29469
Nuclear contribution   :      3.75866       1.40390       1.89271
                        -----------------------------------------
Total Dipole Moment    :      0.79229       0.50419       0.59802
                        -----------------------------------------
Magnitude (a.u.)       :      1.11336
Magnitude (Debye)      :      2.82993

Rotational constants in cm-1:     1.306467     0.159680     0.151595
Rotational constants in MHz : 39166.883197  4787.093425  4544.715136

                             ****ORCA TERMINATED NORMALLY****
TOTAL RUN TIME: 0 days 0 hours 0 minutes 16 seconds 15 msec
