                         Program Version 5.0.3 -  RELEASE  -
|  1> ! B3LYP cc-pVDZ
|  2> !TightSCF
|  3> %scf
|  4>  ConvForced true
|  5>  convergence tight
|  6>  MaxIter 500
|  7> end
|  8>
|  9> %tddft
| 10>  nroots 1
| 11> end
| 12>
| 13> # 	9917
| 14> * xyz 0 1
| 15> 		C   -1.249826  -0.372359   0.008681
| 16> 		O   -2.195476  -0.312909  -0.718317
| 17> 		C    0.100591   0.317534  -0.344920
| 18> 		C    1.147678   0.219285   0.266222
| 19> 		H   -1.252420  -1.198719   0.888978
| 20> 		H    0.069129   1.152739  -1.136547
| 21> 		H    1.321528  -0.689801   0.984438
| 22> 		H    2.059102   0.859684   0.014201
| 23> *
| 24>
| 25>                          ****END OF INPUT****

CARTESIAN COORDINATES (ANGSTROEM)
---------------------------------
  C     -1.249826   -0.372359    0.008681
  O     -2.195476   -0.312909   -0.718317
  C      0.100591    0.317534   -0.344920
  C      1.147678    0.219285    0.266222
  H     -1.252420   -1.198719    0.888978
  H      0.069129    1.152739   -1.136547
  H      1.321528   -0.689801    0.984438
  H      2.059102    0.859684    0.014201

 Total Charge           Charge          ....    0
 Multiplicity           Mult            ....    1
 Number of Electrons    NEL             ....   30
 Basis Dimension        Dim             ....   76

ORBITAL ENERGIES
----------------

  NO   OCC          E(Eh)            E(eV)
   0   2.0000     -19.148449      -521.0558
   1   2.0000     -10.291647      -280.0500
   2   2.0000     -10.206920      -277.7444
   3   2.0000     -10.199919      -277.5539
   4   2.0000      -1.062700       -28.9175
   5   2.0000      -0.816752       -22.2250
   6   2.0000      -0.624401       -16.9908
   7   2.0000      -0.548651       -14.9296
   8   2.0000      -0.477883       -13.0039
   9   2.0000      -0.472136       -12.8475
  10   2.0000      -0.427624       -11.6362
  11   2.0000      -0.407595       -11.0912
  12   2.0000      -0.361600        -9.8396
  13   2.0000      -0.310791        -8.4570
  14   2.0000      -0.257766        -7.0142
  15   0.0000      -0.053748        -1.4626
  16   0.0000       0.052171         1.4197
  17   0.0000       0.059581         1.6213
  18   0.0000       0.071965         1.9583
  19   0.0000       0.096217         2.6182

MULLIKEN ATOMIC CHARGES
-----------------------
   0 C :    0.136902
   1 O :   -0.162852
   2 C :   -0.095319
   3 C :    0.040125
   4 H :   -0.004833
   5 H :    0.015407
   6 H :    0.030076
   7 H :    0.040494
Sum of atomic charges:   -0.0000000

LOEWDIN ATOMIC CHARGES
----------------------
   0 C :   -0.033913
   1 O :    0.022597
   2 C :   -0.090643
   3 C :   -0.035819
   4 H :    0.000928
   5 H :    0.048186
   6 H :    0.041223
   7 H :    0.047440

  Mayer bond orders larger than 0.100000
B(  0-C ,  1-O ) :   2.2000 B(  0-C ,  2-C ) :   0.9897 B(  0-C ,  4-H ) :   0.8932
B(  2-C ,  3-C ) :   2.0224 B(  2-C ,  5-H ) :   0.9286 B(  3-C ,  6-H ) :   0.9210
B(  3-C ,  7-H ) :   0.9122

-----------------------------------------------------------------------------
         ABSORPTION SPECTRUM VIA TRANSITION ELECTRIC DIPOLE MOMENTS
-----------------------------------------------------------------------------
State   Energy    Wavelength  fosc         T2        TX        TY        TZ
        (cm-1)      (nm)                 (au**2)    (au)      (au)      (au)
-----------------------------------------------------------------------------
   1   31142.7    321.1   0.000892719   0.00944   0.03030   0.08723  -0.03016

FINAL SINGLE POINT ENERGY      -191.628977224369

DIPOLE MOMENT
-------------
                                X             Y             Z
Electronic contribution:     -3.35718      -0.22928      -1.07955
Nuclear contribution   :      4.24186       0.30690       1.47194
                        -----------------------------------------
Total Dipole Moment    :      0.88468       0.07762       0.39238
                        -----------------------------------------
Magnitude (a.u.)       :      0.97090
Magnitude (Debye)      :      2.46783

Rotational constants in cm-1:     1.522468     0.154153     0.140505
Rotational constants in MHz : 45642.450179  4621.390453  4212.227650

                             ****ORCA TERMINATED NORMALLY****
TOTAL RUN TIME: 0 days 0 hours 3 minutes 27 seconds 242 msec
