                         Program Version 5.0.3 -  RELEASE  -
|  1> ! B3LYP cc-pVDZ
|  2> !TightSCF
|  3> %scf
|  4>  ConvForced true
|  5>  convergence tight
|  6>  MaxIter 500
|  7> end
|  8>
|  9> %tddft
| 10>  nroots 1
| 11> end
| 12>
| 13> # 	8276
| 14> * xyz 0 1
| 15> 		C   -1.138025  -0.343204   0.036593
| 16> 		O   -2.104298  -0.616946   0.733350
| 17> 		C    0.001442   0.416673   0.283540
| 18> 		C    1.173519   0.125788  -0.228707
| 19> 		H   -1.263512  -0.754129  -0.943380
| 20> 		H   -0.084238   1.180152   1.141383
| 21> 		H    1.291265  -0.760481  -0.942430
| 22> 		H    2.085897   0.768667  -0.084787
| 23> *
| 24>
| 25>                          ****END OF INPUT****

CARTESIAN COORDINATES (ANGSTROEM)
---------------------------------
  C     -1.138025   -0.343204    0.036593
  O     -2.104298   -0.616946    0.733350
  C      0.001442    0.416673    0.283540
  C      1.173519    0.125788   -0.228707
  H     -1.263512   -0.754129   -0.943380
  H     -0.084238    1.180152    1.141383
  H      1.291265   -0.760481   -0.942430
  H      2.085897    0.768667   -0.084787

 Total Charge           Charge          ....    0
 Multiplicity           Mult            ....    1
 Number of Electrons    NEL             ....   30
 Basis Dimension        Dim             ....   76

ORBITAL ENERGIES
----------------

  NO   OCC          E(Eh)            E(eV)
   0   2.0000     -19.130627      -520.5708
   1   2.0000     -10.262509      -279.2571
   2   2.0000     -10.229150      -278.3493
   3   2.0000     -10.210818      -277.8505
   4   2.0000      -1.035607       -28.1803
   5   2.0000      -0.820311       -22.3218
   6   2.0000      -0.659344       -17.9417
   7   2.0000      -0.565317       -15.3830
   8   2.0000      -0.483350       -13.1526
   9   2.0000      -0.476326       -12.9615
  10   2.0000      -0.423139       -11.5142
  11   2.0000      -0.388507       -10.5718
  12   2.0000      -0.379114       -10.3162
  13   2.0000      -0.298615        -8.1257
  14   2.0000      -0.247339        -6.7304
  15   0.0000      -0.070041        -1.9059
  16   0.0000       0.043598         1.1864
  17   0.0000       0.068610         1.8670
  18   0.0000       0.075035         2.0418
  19   0.0000       0.126752         3.4491

MULLIKEN ATOMIC CHARGES
-----------------------
   0 C :    0.182808
   1 O :   -0.208953
   2 C :   -0.070760
   3 C :    0.021730
   4 H :   -0.042598
   5 H :    0.024516
   6 H :    0.042089
   7 H :    0.051168
Sum of atomic charges:    0.0000000

LOEWDIN ATOMIC CHARGES
----------------------
   0 C :   -0.048271
   1 O :   -0.012744
   2 C :   -0.075433
   3 C :    0.008046
   4 H :   -0.008831
   5 H :    0.051805
   6 H :    0.041568
   7 H :    0.043859

  Mayer bond orders larger than 0.100000
B(  0-C ,  1-O ) :   2.1616 B(  0-C ,  2-C ) :   1.1027 B(  0-C ,  4-H ) :   0.9389
B(  2-C ,  3-C ) :   1.9424 B(  2-C ,  5-H ) :   0.9231 B(  3-C ,  6-H ) :   0.9378
B(  3-C ,  7-H ) :   0.9358

-----------------------------------------------------------------------------
         ABSORPTION SPECTRUM VIA TRANSITION ELECTRIC DIPOLE MOMENTS
-----------------------------------------------------------------------------
State   Energy    Wavelength  fosc         T2        TX        TY        TZ
        (cm-1)      (nm)                 (au**2)    (au)      (au)      (au)
-----------------------------------------------------------------------------
   1   26205.2    381.6   0.000123546   0.00155   0.03718  -0.00696   0.01102

FINAL SINGLE POINT ENERGY      -191.670955093999

DIPOLE MOMENT
-------------
                                X             Y             Z
Electronic contribution:     -2.86920      -0.53959       1.10591
Nuclear contribution   :      3.96794       0.87130      -1.57318
                        -----------------------------------------
Total Dipole Moment    :      1.09874       0.33171      -0.46727
                        -----------------------------------------
Magnitude (a.u.)       :      1.23920
Magnitude (Debye)      :      3.14979

Rotational constants in cm-1:     1.559899     0.157822     0.147132
Rotational constants in MHz : 46764.596370  4731.385074  4410.894091

                             ****ORCA TERMINATED NORMALLY****
TOTAL RUN TIME: 0 days 0 hours 3 minutes 17 seconds 140 msec
