                         Program Version 5.0.3 -  RELEASE  -
|  1> ! B3LYP cc-pVDZ
|  2> !TightSCF
|  3> %scf
|  4>  ConvForced true
|  5>  convergence tight
|  6>  MaxIter 500
|  7> end
|  8>
|  9> %tddft
| 10>  nroots 1
| 11> end
| 12>
| 13> # 	9084
| 14> * xyz 0 1
| 15> 		C   -1.159709  -0.249216  -0.016385
| 16> 		O   -1.303792  -1.382393   0.541011
| 17> 		C    0.014426   0.453274   0.133337
| 18> 		C    1.208735  -0.033172  -0.131038
| 19> 		H   -1.980325   0.056411  -0.682605
| 20> 		H   -0.127298   1.565100   0.455308
| 21> 		H    1.263700  -1.091090  -0.278881
| 22> 		H    2.061137   0.624462  -0.061241
| 23> *
| 24>
| 25>                          ****END OF INPUT****

CARTESIAN COORDINATES (ANGSTROEM)
---------------------------------
  C     -1.159709   -0.249216   -0.016385
  O     -1.303792   -1.382393    0.541011
  C      0.014426    0.453274    0.133337
  C      1.208735   -0.033172   -0.131038
  H     -1.980325    0.056411   -0.682605
  H     -0.127298    1.565100    0.455308
  H      1.263700   -1.091090   -0.278881
  H      2.061137    0.624462   -0.061241

 Total Charge           Charge          ....    0
 Multiplicity           Mult            ....    1
 Number of Electrons    NEL             ....   30
 Basis Dimension        Dim             ....   76

ORBITAL ENERGIES
----------------

  NO   OCC          E(Eh)            E(eV)
   0   2.0000     -19.132465      -520.6208
   1   2.0000     -10.270903      -279.4855
   2   2.0000     -10.207688      -277.7653
   3   2.0000     -10.206768      -277.7403
   4   2.0000      -1.014795       -27.6140
   5   2.0000      -0.811160       -22.0728
   6   2.0000      -0.673070       -18.3152
   7   2.0000      -0.544375       -14.8132
   8   2.0000      -0.513359       -13.9692
   9   2.0000      -0.452616       -12.3163
  10   2.0000      -0.430780       -11.7221
  11   2.0000      -0.392363       -10.6767
  12   2.0000      -0.353545        -9.6204
  13   2.0000      -0.291530        -7.9329
  14   2.0000      -0.249427        -6.7873
  15   0.0000      -0.059850        -1.6286
  16   0.0000       0.010451         0.2844
  17   0.0000       0.070435         1.9166
  18   0.0000       0.097225         2.6456
  19   0.0000       0.107807         2.9336

MULLIKEN ATOMIC CHARGES
-----------------------
   0 C :    0.170373
   1 O :   -0.246599
   2 C :   -0.092100
   3 C :    0.097675
   4 H :    0.000375
   5 H :    0.019986
   6 H :    0.022029
   7 H :    0.028260
Sum of atomic charges:    0.0000000

LOEWDIN ATOMIC CHARGES
----------------------
   0 C :   -0.006479
   1 O :   -0.058995
   2 C :   -0.071072
   3 C :    0.013991
   4 H :    0.008768
   5 H :    0.049059
   6 H :    0.030882
   7 H :    0.033846

  Mayer bond orders larger than 0.100000
B(  0-C ,  1-O ) :   2.1201 B(  0-C ,  2-C ) :   1.0774 B(  0-C ,  4-H ) :   0.9368
B(  2-C ,  3-C ) :   2.0046 B(  2-C ,  5-H ) :   0.9176 B(  3-C ,  6-H ) :   0.9299
B(  3-C ,  7-H ) :   0.9364

-----------------------------------------------------------------------------
         ABSORPTION SPECTRUM VIA TRANSITION ELECTRIC DIPOLE MOMENTS
-----------------------------------------------------------------------------
State   Energy    Wavelength  fosc         T2        TX        TY        TZ
        (cm-1)      (nm)                 (au**2)    (au)      (au)      (au)
-----------------------------------------------------------------------------
   1   27627.4    362.0   0.000442089   0.00527   0.07236  -0.00148   0.00552

FINAL SINGLE POINT ENERGY      -191.657485758220

DIPOLE MOMENT
-------------
                                X             Y             Z
Electronic contribution:     -1.96039      -1.43502       0.66050
Nuclear contribution   :      2.39076       2.33314      -1.05619
                        -----------------------------------------
Total Dipole Moment    :      0.43037       0.89812      -0.39569
                        -----------------------------------------
Magnitude (a.u.)       :      1.07164
Magnitude (Debye)      :      2.72388

Rotational constants in cm-1:     0.811506     0.204428     0.171885
Rotational constants in MHz : 24328.346226  6128.599263  5152.981260

                             ****ORCA TERMINATED NORMALLY****
TOTAL RUN TIME: 0 days 0 hours 3 minutes 6 seconds 933 msec
