                         Program Version 5.0.3 -  RELEASE  -
|  1> ! B3LYP cc-pVDZ
|  2> !TightSCF
|  3> %scf
|  4>  ConvForced true
|  5>  convergence tight
|  6>  MaxIter 500
|  7> end
|  8>
|  9> %tddft
| 10>  nroots 1
| 11> end
| 12>
| 13> # 	24401
| 14> * xyz 0 1
| 15> 		C   -0.564025  -0.435946  -0.079633
| 16> 		O   -0.594686  -1.642495   0.034672
| 17> 		C    0.613041   0.399678   0.033038
| 18> 		C    1.865031  -0.103807  -0.015055
| 19> 		H   -1.528444   0.210175   0.058021
| 20> 		H    0.438040   1.545636   0.192368
| 21> 		H    1.975267  -1.294252  -0.018999
| 22> 		H    2.717948   0.544514  -0.040738
| 23> *
| 24>
| 25>                          ****END OF INPUT****

CARTESIAN COORDINATES (ANGSTROEM)
---------------------------------
  C     -0.564025   -0.435946   -0.079633
  O     -0.594686   -1.642495    0.034672
  C      0.613041    0.399678    0.033038
  C      1.865031   -0.103807   -0.015055
  H     -1.528444    0.210175    0.058021
  H      0.438040    1.545636    0.192368
  H      1.975267   -1.294252   -0.018999
  H      2.717948    0.544514   -0.040738

 Total Charge           Charge          ....    0
 Multiplicity           Mult            ....    1
 Number of Electrons    NEL             ....   30
 Basis Dimension        Dim             ....   76

ORBITAL ENERGIES
----------------

  NO   OCC          E(Eh)            E(eV)
   0   2.0000     -19.141333      -520.8622
   1   2.0000     -10.277320      -279.6601
   2   2.0000     -10.224470      -278.2220
   3   2.0000     -10.211929      -277.8807
   4   2.0000      -1.046868       -28.4867
   5   2.0000      -0.794186       -21.6109
   6   2.0000      -0.659169       -17.9369
   7   2.0000      -0.525495       -14.2995
   8   2.0000      -0.502298       -13.6682
   9   2.0000      -0.445360       -12.1189
  10   2.0000      -0.421518       -11.4701
  11   2.0000      -0.401286       -10.9195
  12   2.0000      -0.374444       -10.1891
  13   2.0000      -0.287251        -7.8165
  14   2.0000      -0.256017        -6.9666
  15   0.0000      -0.076824        -2.0905
  16   0.0000       0.053309         1.4506
  17   0.0000       0.059595         1.6217
  18   0.0000       0.077995         2.1224
  19   0.0000       0.119066         3.2399

MULLIKEN ATOMIC CHARGES
-----------------------
   0 C :    0.174643
   1 O :   -0.188325
   2 C :   -0.138854
   3 C :    0.050155
   4 H :   -0.019397
   5 H :    0.018267
   6 H :    0.070045
   7 H :    0.033466
Sum of atomic charges:   -0.0000000

LOEWDIN ATOMIC CHARGES
----------------------
   0 C :   -0.051864
   1 O :   -0.001716
   2 C :   -0.095621
   3 C :    0.023429
   4 H :   -0.002947
   5 H :    0.043751
   6 H :    0.058342
   7 H :    0.026625

  Mayer bond orders larger than 0.100000
B(  0-C ,  1-O ) :   2.1787 B(  0-C ,  2-C ) :   1.0774 B(  0-C ,  4-H ) :   0.9020
B(  2-C ,  3-C ) :   1.9409 B(  2-C ,  5-H ) :   0.9380 B(  3-C ,  6-H ) :   0.9272
B(  3-C ,  7-H ) :   0.9382

-----------------------------------------------------------------------------
         ABSORPTION SPECTRUM VIA TRANSITION ELECTRIC DIPOLE MOMENTS
-----------------------------------------------------------------------------
State   Energy    Wavelength  fosc         T2        TX        TY        TZ
        (cm-1)      (nm)                 (au**2)    (au)      (au)      (au)
-----------------------------------------------------------------------------
   1   26753.2    373.8   0.000234386   0.00288   0.01727  -0.02296  -0.04538

FINAL SINGLE POINT ENERGY      -191.671411302856

DIPOLE MOMENT
-------------
                                X             Y             Z
Electronic contribution:     -1.72023      -1.85750      -0.20195
Nuclear contribution   :      2.22170       2.73039       0.17895
                        -----------------------------------------
Total Dipole Moment    :      0.50146       0.87289      -0.02300
                        -----------------------------------------
Magnitude (a.u.)       :      1.00694
Magnitude (Debye)      :      2.55944

Rotational constants in cm-1:     0.755885     0.206928     0.162939
Rotational constants in MHz : 22660.869031  6203.553048  4884.774891

                             ****ORCA TERMINATED NORMALLY****
TOTAL RUN TIME: 0 days 0 hours 2 minutes 51 seconds 888 msec
