                         Program Version 5.0.3 -  RELEASE  -
|  1> ! B3LYP cc-pVDZ
|  2> !TightSCF
|  3> %scf
|  4>  ConvForced true
|  5>  convergence tight
|  6>  MaxIter 500
|  7> end
|  8>
|  9> %tddft
| 10>  nroots 1
| 11> end
| 12>
| 13> # 	14610
| 14> * xyz 0 1
| 15> 		C   -1.224794  -0.318607  -0.095768
| 16> 		O   -1.604491  -1.077186  -0.832699
| 17> 		C    0.012600   0.437484  -0.280653
| 18> 		C    1.218442   0.086121   0.188562
| 19> 		H   -1.614432  -0.276175   0.902799
| 20> 		H   -0.183513   1.517931  -0.576655
| 21> 		H    1.240898  -1.028385   0.645101
| 22> 		H    2.137008   0.649318   0.086612
| 23> *
| 24>
| 25>                          ****END OF INPUT****

CARTESIAN COORDINATES (ANGSTROEM)
---------------------------------
  C     -1.224794   -0.318607   -0.095768
  O     -1.604491   -1.077186   -0.832699
  C      0.012600    0.437484   -0.280653
  C      1.218442    0.086121    0.188562
  H     -1.614432   -0.276175    0.902799
  H     -0.183513    1.517931   -0.576655
  H      1.240898   -1.028385    0.645101
  H      2.137008    0.649318    0.086612

 Total Charge           Charge          ....    0
 Multiplicity           Mult            ....    1
 Number of Electrons    NEL             ....   30
 Basis Dimension        Dim             ....   76

ORBITAL ENERGIES
----------------

  NO   OCC          E(Eh)            E(eV)
   0   2.0000     -19.142249      -520.8871
   1   2.0000     -10.268651      -279.4242
   2   2.0000     -10.213477      -277.9228
   3   2.0000     -10.202632      -277.6277
   4   2.0000      -1.104087       -30.0437
   5   2.0000      -0.790745       -21.5173
   6   2.0000      -0.648943       -17.6586
   7   2.0000      -0.556511       -15.1434
   8   2.0000      -0.495379       -13.4800
   9   2.0000      -0.474192       -12.9034
  10   2.0000      -0.450332       -12.2542
  11   2.0000      -0.410352       -11.1662
  12   2.0000      -0.366623        -9.9763
  13   2.0000      -0.283210        -7.7065
  14   2.0000      -0.252925        -6.8825
  15   0.0000      -0.016409        -0.4465
  16   0.0000      -0.009465        -0.2575
  17   0.0000       0.077942         2.1209
  18   0.0000       0.082638         2.2487
  19   0.0000       0.113224         3.0810

MULLIKEN ATOMIC CHARGES
-----------------------
   0 C :    0.170963
   1 O :   -0.107793
   2 C :   -0.104693
   3 C :   -0.011057
   4 H :   -0.042841
   5 H :    0.022500
   6 H :    0.037605
   7 H :    0.035318
Sum of atomic charges:    0.0000000

LOEWDIN ATOMIC CHARGES
----------------------
   0 C :   -0.088192
   1 O :    0.100659
   2 C :   -0.066338
   3 C :   -0.040754
   4 H :   -0.017189
   5 H :    0.040283
   6 H :    0.043592
   7 H :    0.027938

  Mayer bond orders larger than 0.100000
B(  0-C ,  1-O ) :   2.3225 B(  0-C ,  2-C ) :   0.9791 B(  0-C ,  4-H ) :   0.9124
B(  2-C ,  3-C ) :   2.0397 B(  2-C ,  5-H ) :   0.9235 B(  3-C ,  6-H ) :   0.9366
B(  3-C ,  7-H ) :   0.9431

-----------------------------------------------------------------------------
         ABSORPTION SPECTRUM VIA TRANSITION ELECTRIC DIPOLE MOMENTS
-----------------------------------------------------------------------------
State   Energy    Wavelength  fosc         T2        TX        TY        TZ
        (cm-1)      (nm)                 (au**2)    (au)      (au)      (au)
-----------------------------------------------------------------------------
   1   37111.8    269.5   0.000588349   0.00522  -0.01524  -0.00293   0.07056

FINAL SINGLE POINT ENERGY      -191.597858997047

DIPOLE MOMENT
-------------
                                X             Y             Z
Electronic contribution:     -2.69572      -1.16964      -1.49198
Nuclear contribution   :      3.07153       1.72764       1.95537
                        -----------------------------------------
Total Dipole Moment    :      0.37580       0.55800       0.46340
                        -----------------------------------------
Magnitude (a.u.)       :      0.81690
Magnitude (Debye)      :      2.07640

Rotational constants in cm-1:     1.065291     0.171953     0.163136
Rotational constants in MHz : 31936.627263  5155.018852  4890.685193

                             ****ORCA TERMINATED NORMALLY****
TOTAL RUN TIME: 0 days 0 hours 3 minutes 25 seconds 600 msec
