                         Program Version 5.0.3 -  RELEASE  -
|  1> ! B3LYP cc-pVDZ
|  2> !TightSCF
|  3> %scf
|  4>  ConvForced true
|  5>  convergence tight
|  6>  MaxIter 500
|  7> end
|  8>
|  9> %tddft
| 10>  nroots 1
| 11> end
| 12>
| 13> # 	28937
| 14> * xyz 0 1
| 15> 		C   -0.568512  -0.375016  -0.077857
| 16> 		O   -0.535233  -1.673122   0.036945
| 17> 		C    0.588932   0.478066   0.048991
| 18> 		C    1.823805  -0.179183  -0.012012
| 19> 		H   -1.505139   0.320371   0.005999
| 20> 		H    0.263139   1.493136   0.060539
| 21> 		H    2.002715  -1.318625  -0.183127
| 22> 		H    2.688808   0.280520   0.024692
| 23> *
| 24>
| 25>                          ****END OF INPUT****

CARTESIAN COORDINATES (ANGSTROEM)
---------------------------------
  C     -0.568512   -0.375016   -0.077857
  O     -0.535233   -1.673122    0.036945
  C      0.588932    0.478066    0.048991
  C      1.823805   -0.179183   -0.012012
  H     -1.505139    0.320371    0.005999
  H      0.263139    1.493136    0.060539
  H      2.002715   -1.318625   -0.183127
  H      2.688808    0.280520    0.024692

 Total Charge           Charge          ....    0
 Multiplicity           Mult            ....    1
 Number of Electrons    NEL             ....   30
 Basis Dimension        Dim             ....   76

ORBITAL ENERGIES
----------------

  NO   OCC          E(Eh)            E(eV)
   0   2.0000     -19.135458      -520.7023
   1   2.0000     -10.277460      -279.6639
   2   2.0000     -10.227310      -278.2992
   3   2.0000     -10.215743      -277.9845
   4   2.0000      -0.993335       -27.0300
   5   2.0000      -0.795244       -21.6397
   6   2.0000      -0.678824       -18.4717
   7   2.0000      -0.540774       -14.7152
   8   2.0000      -0.506154       -13.7731
   9   2.0000      -0.442698       -12.0464
  10   2.0000      -0.405356       -11.0303
  11   2.0000      -0.382874       -10.4185
  12   2.0000      -0.373930       -10.1751
  13   2.0000      -0.278203        -7.5703
  14   2.0000      -0.251707        -6.8493
  15   0.0000      -0.090987        -2.4759
  16   0.0000       0.037763         1.0276
  17   0.0000       0.058148         1.5823
  18   0.0000       0.087011         2.3677
  19   0.0000       0.123749         3.3674

MULLIKEN ATOMIC CHARGES
-----------------------
   0 C :    0.166960
   1 O :   -0.262089
   2 C :   -0.072547
   3 C :    0.107397
   4 H :   -0.003116
   5 H :   -0.009323
   6 H :    0.077191
   7 H :   -0.004474
Sum of atomic charges:    0.0000000

LOEWDIN ATOMIC CHARGES
----------------------
   0 C :   -0.001101
   1 O :   -0.091929
   2 C :   -0.068324
   3 C :    0.074626
   4 H :    0.006376
   5 H :    0.026951
   6 H :    0.061309
   7 H :   -0.007909

  Mayer bond orders larger than 0.100000
B(  0-C ,  1-O ) :   2.0651 B(  0-C ,  2-C ) :   1.1360 B(  0-C ,  4-H ) :   0.9096
B(  1-O ,  3-C ) :   0.1273 B(  2-C ,  3-C ) :   1.8659 B(  2-C ,  5-H ) :   0.9564
B(  3-C ,  6-H ) :   0.9463 B(  3-C ,  7-H ) :   0.9534

-----------------------------------------------------------------------------
         ABSORPTION SPECTRUM VIA TRANSITION ELECTRIC DIPOLE MOMENTS
-----------------------------------------------------------------------------
State   Energy    Wavelength  fosc         T2        TX        TY        TZ
        (cm-1)      (nm)                 (au**2)    (au)      (au)      (au)
-----------------------------------------------------------------------------
   1   22654.1    441.4   0.000062003   0.00090  -0.00338   0.01153   0.02751

FINAL SINGLE POINT ENERGY      -191.660705069574

DIPOLE MOMENT
-------------
                                X             Y             Z
Electronic contribution:     -1.51833      -1.50301       0.01185
Nuclear contribution   :      2.08159       2.51047      -0.08617
                        -----------------------------------------
Total Dipole Moment    :      0.56326       1.00747      -0.07432
                        -----------------------------------------
Magnitude (a.u.)       :      1.15662
Magnitude (Debye)      :      2.93990

Rotational constants in cm-1:     0.637542     0.222282     0.165346
Rotational constants in MHz : 19113.013795  6663.849644  4956.940218

                             ****ORCA TERMINATED NORMALLY****
TOTAL RUN TIME: 0 days 0 hours 3 minutes 27 seconds 38 msec
