                         Program Version 5.0.3 -  RELEASE  -
|  1> ! B3LYP cc-pVDZ
|  2> !TightSCF
|  3> %scf
|  4>  ConvForced true
|  5>  convergence tight
|  6>  MaxIter 500
|  7> end
|  8>
|  9> %tddft
| 10>  nroots 1
| 11> end
| 12>
| 13> # 	13724
| 14> * xyz 0 1
| 15> 		C   -1.201224  -0.348524   0.027183
| 16> 		O   -1.271935  -1.552462  -0.246332
| 17> 		C   -0.004899   0.516626  -0.054520
| 18> 		C    1.205277  -0.001873   0.066426
| 19> 		H   -2.209563   0.439487   0.277139
| 20> 		H   -0.073649   1.510849  -0.068447
| 21> 		H    1.266986  -1.017612   0.171400
| 22> 		H    2.189152   0.486670  -0.145279
| 23> *
| 24>
| 25>                          ****END OF INPUT****

CARTESIAN COORDINATES (ANGSTROEM)
---------------------------------
  C     -1.201224   -0.348524    0.027183
  O     -1.271935   -1.552462   -0.246332
  C     -0.004899    0.516626   -0.054520
  C      1.205277   -0.001873    0.066426
  H     -2.209563    0.439487    0.277139
  H     -0.073649    1.510849   -0.068447
  H      1.266986   -1.017612    0.171400
  H      2.189152    0.486670   -0.145279

 Total Charge           Charge          ....    0
 Multiplicity           Mult            ....    1
 Number of Electrons    NEL             ....   30
 Basis Dimension        Dim             ....   76

ORBITAL ENERGIES
----------------

  NO   OCC          E(Eh)            E(eV)
   0   2.0000     -19.152713      -521.1718
   1   2.0000     -10.296315      -280.1770
   2   2.0000     -10.210502      -277.8419
   3   2.0000     -10.200806      -277.5781
   4   2.0000      -1.039869       -28.2963
   5   2.0000      -0.809762       -22.0347
   6   2.0000      -0.657222       -17.8839
   7   2.0000      -0.556738       -15.1496
   8   2.0000      -0.498903       -13.5758
   9   2.0000      -0.452563       -12.3149
  10   2.0000      -0.420217       -11.4347
  11   2.0000      -0.394149       -10.7253
  12   2.0000      -0.389087       -10.5876
  13   2.0000      -0.294773        -8.0212
  14   2.0000      -0.260670        -7.0932
  15   0.0000      -0.075199        -2.0463
  16   0.0000       0.045404         1.2355
  17   0.0000       0.054561         1.4847
  18   0.0000       0.085062         2.3147
  19   0.0000       0.125274         3.4089

MULLIKEN ATOMIC CHARGES
-----------------------
   0 C :    0.136342
   1 O :   -0.194077
   2 C :   -0.019616
   3 C :    0.085446
   4 H :   -0.013994
   5 H :   -0.045649
   6 H :    0.009519
   7 H :    0.042029
Sum of atomic charges:   -0.0000000

LOEWDIN ATOMIC CHARGES
----------------------
   0 C :   -0.018628
   1 O :   -0.017869
   2 C :   -0.065511
   3 C :    0.044537
   4 H :   -0.005015
   5 H :    0.007866
   6 H :    0.013289
   7 H :    0.041331

  Mayer bond orders larger than 0.100000
B(  0-C ,  1-O ) :   2.1618 B(  0-C ,  2-C ) :   1.0451 B(  0-C ,  4-H ) :   0.8685
B(  2-C ,  3-C ) :   1.9621 B(  2-C ,  5-H ) :   0.9476 B(  3-C ,  6-H ) :   0.9363
B(  3-C ,  7-H ) :   0.9504

-----------------------------------------------------------------------------
         ABSORPTION SPECTRUM VIA TRANSITION ELECTRIC DIPOLE MOMENTS
-----------------------------------------------------------------------------
State   Energy    Wavelength  fosc         T2        TX        TY        TZ
        (cm-1)      (nm)                 (au**2)    (au)      (au)      (au)
-----------------------------------------------------------------------------
   1   28007.0    357.1   0.000732243   0.00861  -0.08002   0.02119  -0.04189

FINAL SINGLE POINT ENERGY      -191.648651208754

DIPOLE MOMENT
-------------
                                X             Y             Z
Electronic contribution:     -1.76567      -1.88646      -0.29451
Nuclear contribution   :      2.37033       2.74747       0.43404
                        -----------------------------------------
Total Dipole Moment    :      0.60466       0.86101       0.13953
                        -----------------------------------------
Magnitude (a.u.)       :      1.06133
Magnitude (Debye)      :      2.69769

Rotational constants in cm-1:     0.770799     0.200705     0.160891
Rotational constants in MHz : 23107.969317  6016.985210  4823.384761

                             ****ORCA TERMINATED NORMALLY****
TOTAL RUN TIME: 0 days 0 hours 3 minutes 23 seconds 576 msec
