                         Program Version 5.0.3 -  RELEASE  -
|  1> ! B3LYP cc-pVDZ
|  2> !TightSCF
|  3> %scf
|  4>  ConvForced true
|  5>  convergence tight
|  6>  MaxIter 500
|  7> end
|  8>
|  9> %tddft
| 10>  nroots 1
| 11> end
| 12>
| 13> # 	22951
| 14> * xyz 0 1
| 15> 		C   -0.532203  -0.427608  -0.064263
| 16> 		O   -0.610982  -1.642408   0.037933
| 17> 		C    0.637786   0.367996   0.103970
| 18> 		C    1.846823  -0.101819  -0.043296
| 19> 		H   -1.532850   0.212416  -0.269027
| 20> 		H    0.568207   1.551100  -0.129430
| 21> 		H    1.848660  -1.009417  -0.249262
| 22> 		H    2.523066   0.485885   0.096527
| 23> *
| 24>
| 25>                          ****END OF INPUT****

CARTESIAN COORDINATES (ANGSTROEM)
---------------------------------
  C     -0.532203   -0.427608   -0.064263
  O     -0.610982   -1.642408    0.037933
  C      0.637786    0.367996    0.103970
  C      1.846823   -0.101819   -0.043296
  H     -1.532850    0.212416   -0.269027
  H      0.568207    1.551100   -0.129430
  H      1.848660   -1.009417   -0.249262
  H      2.523066    0.485885    0.096527

 Total Charge           Charge          ....    0
 Multiplicity           Mult            ....    1
 Number of Electrons    NEL             ....   30
 Basis Dimension        Dim             ....   76

ORBITAL ENERGIES
----------------

  NO   OCC          E(Eh)            E(eV)
   0   2.0000     -19.141393      -520.8638
   1   2.0000     -10.279023      -279.7064
   2   2.0000     -10.208265      -277.7810
   3   2.0000     -10.185098      -277.1506
   4   2.0000      -1.042678       -28.3727
   5   2.0000      -0.826401       -22.4875
   6   2.0000      -0.678521       -18.4635
   7   2.0000      -0.544733       -14.8229
   8   2.0000      -0.531815       -14.4714
   9   2.0000      -0.448649       -12.2084
  10   2.0000      -0.442765       -12.0482
  11   2.0000      -0.399476       -10.8703
  12   2.0000      -0.378234       -10.2923
  13   2.0000      -0.294758        -8.0208
  14   2.0000      -0.256892        -6.9904
  15   0.0000      -0.077335        -2.1044
  16   0.0000       0.050564         1.3759
  17   0.0000       0.062689         1.7059
  18   0.0000       0.099874         2.7177
  19   0.0000       0.131576         3.5804

MULLIKEN ATOMIC CHARGES
-----------------------
   0 C :    0.156693
   1 O :   -0.198000
   2 C :   -0.215001
   3 C :    0.383413
   4 H :   -0.018043
   5 H :    0.018907
   6 H :   -0.060384
   7 H :   -0.067584
Sum of atomic charges:    0.0000000

LOEWDIN ATOMIC CHARGES
----------------------
   0 C :   -0.045938
   1 O :   -0.013660
   2 C :   -0.070758
   3 C :    0.108909
   4 H :   -0.001847
   5 H :    0.052035
   6 H :   -0.009726
   7 H :   -0.019015

  Mayer bond orders larger than 0.100000
B(  0-C ,  1-O ) :   2.1610 B(  0-C ,  2-C ) :   1.0825 B(  0-C ,  4-H ) :   0.8993
B(  2-C ,  3-C ) :   1.9507 B(  2-C ,  5-H ) :   0.9263 B(  3-C ,  6-H ) :   0.9279
B(  3-C ,  7-H ) :   0.9105

-----------------------------------------------------------------------------
         ABSORPTION SPECTRUM VIA TRANSITION ELECTRIC DIPOLE MOMENTS
-----------------------------------------------------------------------------
State   Energy    Wavelength  fosc         T2        TX        TY        TZ
        (cm-1)      (nm)                 (au**2)    (au)      (au)      (au)
-----------------------------------------------------------------------------
   1   26881.7    372.0   0.001099636   0.01347  -0.10205  -0.03442   0.04323

FINAL SINGLE POINT ENERGY      -191.603977306096

DIPOLE MOMENT
-------------
                                X             Y             Z
Electronic contribution:     -1.45432      -2.06890       0.36963
Nuclear contribution   :      2.03765       2.95114      -0.51710
                        -----------------------------------------
Total Dipole Moment    :      0.58333       0.88224      -0.14748
                        -----------------------------------------
Magnitude (a.u.)       :      1.06788
Magnitude (Debye)      :      2.71434

Rotational constants in cm-1:     0.823741     0.208791     0.167852
Rotational constants in MHz : 24695.127718  6259.396103  5032.090111

                             ****ORCA TERMINATED NORMALLY****
TOTAL RUN TIME: 0 days 0 hours 3 minutes 22 seconds 64 msec
