                         Program Version 5.0.3 -  RELEASE  -
|  1> ! HF-3c
|  2> !TightSCF
|  3> %scf
|  4>  ConvForced true
|  5>  convergence tight
|  6>  MaxIter 500
|  7> end
|  8>
|  9> %tddft
| 10>  nroots 1
| 11> end
| 12>
| 13> # 	17953
| 14> * xyz 0 1
| 15> 		C   -1.200175  -0.252476  -0.051286
| 16> 		O   -1.854151  -0.806843  -0.932578
| 17> 		C    0.054537   0.504504  -0.258217
| 18> 		C    1.223606   0.025546   0.217615
| 19> 		H   -1.479250  -0.457154   0.994254
| 20> 		H    0.096675   1.240343  -0.992065
| 21> 		H    1.118060  -0.789343   0.924011
| 22> 		H    2.076234   0.560723   0.102561
| 23> *
| 24>
| 25>                          ****END OF INPUT****

CARTESIAN COORDINATES (ANGSTROEM)
---------------------------------
  C     -1.200175   -0.252476   -0.051286
  O     -1.854151   -0.806843   -0.932578
  C      0.054537    0.504504   -0.258217
  C      1.223606    0.025546    0.217615
  H     -1.479250   -0.457154    0.994254
  H      0.096675    1.240343   -0.992065
  H      1.118060   -0.789343    0.924011
  H      2.076234    0.560723    0.102561

 Total Charge           Charge          ....    0
 Multiplicity           Mult            ....    1
 Number of Electrons    NEL             ....   30
 Basis Dimension        Dim             ....   24

ORBITAL ENERGIES
----------------

  NO   OCC          E(Eh)            E(eV)
   0   2.0000     -20.372020      -554.3508
   1   2.0000     -11.298712      -307.4536
   2   2.0000     -11.197716      -304.7053
   3   2.0000     -11.192060      -304.5514
   4   2.0000      -1.394299       -37.9408
   5   2.0000      -1.092020       -29.7154
   6   2.0000      -0.891158       -24.2496
   7   2.0000      -0.785859       -21.3843
   8   2.0000      -0.685254       -18.6467
   9   2.0000      -0.651436       -17.7265
  10   2.0000      -0.594204       -16.1691
  11   2.0000      -0.564333       -15.3563
  12   2.0000      -0.509133       -13.8542
  13   2.0000      -0.420124       -11.4322
  14   2.0000      -0.402157       -10.9433
  15   0.0000       0.143887         3.9154
  16   0.0000       0.239008         6.5037
  17   0.0000       0.573279        15.5997
  18   0.0000       0.651432        17.7264
  19   0.0000       0.689718        18.7682

MULLIKEN ATOMIC CHARGES
-----------------------
   0 C :    0.160791
   1 O :   -0.337660
   2 C :   -0.166459
   3 C :   -0.244067
   4 H :    0.139450
   5 H :    0.154886
   6 H :    0.144220
   7 H :    0.148839
Sum of atomic charges:   -0.0000000

LOEWDIN ATOMIC CHARGES
----------------------
   0 C :    0.148439
   1 O :   -0.248543
   2 C :   -0.114758
   3 C :   -0.143452
   4 H :    0.075515
   5 H :    0.096660
   6 H :    0.094237
   7 H :    0.091903

  Mayer bond orders larger than 0.100000
B(  0-C ,  1-O ) :   1.9323 B(  0-C ,  2-C ) :   1.0066 B(  0-C ,  4-H ) :   0.9253
B(  2-C ,  3-C ) :   1.9703 B(  2-C ,  5-H ) :   0.9544 B(  3-C ,  6-H ) :   0.9659
B(  3-C ,  7-H ) :   0.9662

-----------------------------------------------------------------------------
         ABSORPTION SPECTRUM VIA TRANSITION ELECTRIC DIPOLE MOMENTS
-----------------------------------------------------------------------------
State   Energy    Wavelength  fosc         T2        TX        TY        TZ
        (cm-1)      (nm)                 (au**2)    (au)      (au)      (au)
-----------------------------------------------------------------------------
   1   32625.6    306.5   0.000061262   0.00062  -0.01377   0.01060  -0.01779

Dispersion correction           -0.025622586
FINAL SINGLE POINT ENERGY      -189.326823284437

DIPOLE MOMENT
-------------
                                X             Y             Z
Electronic contribution:     -2.81220      -0.71652      -1.27669
Nuclear contribution   :      3.48009       1.11421       1.95849
                        -----------------------------------------
Total Dipole Moment    :      0.66789       0.39769       0.68180
                        -----------------------------------------
Magnitude (a.u.)       :      1.03397
Magnitude (Debye)      :      2.62814

Rotational constants in cm-1:     1.154989     0.159088     0.154302
Rotational constants in MHz : 34625.685612  4769.352723  4625.845826

                             ****ORCA TERMINATED NORMALLY****
TOTAL RUN TIME: 0 days 0 hours 0 minutes 10 seconds 121 msec
