                         Program Version 5.0.3 -  RELEASE  -
|  1> ! HF-3c
|  2> !TightSCF
|  3> %scf
|  4>  ConvForced true
|  5>  convergence tight
|  6>  MaxIter 500
|  7> end
|  8>
|  9> %tddft
| 10>  nroots 1
| 11> end
| 12>
| 13> # 	15165
| 14> * xyz 0 1
| 15> 		C   -1.159053  -0.333023   0.030175
| 16> 		O   -1.360772  -1.390552   0.545651
| 17> 		C    0.024310   0.444815   0.191263
| 18> 		C    1.272997   0.026588  -0.086206
| 19> 		H   -1.958633   0.024987  -0.668994
| 20> 		H   -0.171819   1.591560   0.358414
| 21> 		H    1.315293  -1.115145  -0.331583
| 22> 		H    2.014868   0.696984   0.016348
| 23> *
| 24>
| 25>                          ****END OF INPUT****

CARTESIAN COORDINATES (ANGSTROEM)
---------------------------------
  C     -1.159053   -0.333023    0.030175
  O     -1.360772   -1.390552    0.545651
  C      0.024310    0.444815    0.191263
  C      1.272997    0.026588   -0.086206
  H     -1.958633    0.024987   -0.668994
  H     -0.171819    1.591560    0.358414
  H      1.315293   -1.115145   -0.331583
  H      2.014868    0.696984    0.016348

 Total Charge           Charge          ....    0
 Multiplicity           Mult            ....    1
 Number of Electrons    NEL             ....   30
 Basis Dimension        Dim             ....   24

ORBITAL ENERGIES
----------------

  NO   OCC          E(Eh)            E(eV)
   0   2.0000     -20.368121      -554.2447
   1   2.0000     -11.299787      -307.4828
   2   2.0000     -11.188154      -304.4451
   3   2.0000     -11.186059      -304.3881
   4   2.0000      -1.416003       -38.5314
   5   2.0000      -1.080968       -29.4146
   6   2.0000      -0.899040       -24.4641
   7   2.0000      -0.744284       -20.2530
   8   2.0000      -0.693003       -18.8576
   9   2.0000      -0.633028       -17.2256
  10   2.0000      -0.603833       -16.4311
  11   2.0000      -0.545577       -14.8459
  12   2.0000      -0.500782       -13.6270
  13   2.0000      -0.413997       -11.2654
  14   2.0000      -0.394579       -10.7370
  15   0.0000       0.152453         4.1484
  16   0.0000       0.264983         7.2106
  17   0.0000       0.534278        14.5384
  18   0.0000       0.592328        16.1181
  19   0.0000       0.623810        16.9747

MULLIKEN ATOMIC CHARGES
-----------------------
   0 C :    0.156551
   1 O :   -0.350276
   2 C :   -0.156346
   3 C :   -0.239403
   4 H :    0.137900
   5 H :    0.143586
   6 H :    0.161335
   7 H :    0.146653
Sum of atomic charges:   -0.0000000

LOEWDIN ATOMIC CHARGES
----------------------
   0 C :    0.136569
   1 O :   -0.251886
   2 C :   -0.119756
   3 C :   -0.143716
   4 H :    0.075210
   5 H :    0.098959
   6 H :    0.114959
   7 H :    0.089661

  Mayer bond orders larger than 0.100000
B(  0-C ,  1-O ) :   1.9126 B(  0-C ,  2-C ) :   1.0327 B(  0-C ,  4-H ) :   0.9175
B(  2-C ,  3-C ) :   1.9594 B(  2-C ,  5-H ) :   0.9466 B(  3-C ,  6-H ) :   0.9570
B(  3-C ,  7-H ) :   0.9667

-----------------------------------------------------------------------------
         ABSORPTION SPECTRUM VIA TRANSITION ELECTRIC DIPOLE MOMENTS
-----------------------------------------------------------------------------
State   Energy    Wavelength  fosc         T2        TX        TY        TZ
        (cm-1)      (nm)                 (au**2)    (au)      (au)      (au)
-----------------------------------------------------------------------------
   1   34116.1    293.1   0.000105782   0.00102  -0.02892  -0.01244   0.00542

Dispersion correction           -0.025612998
FINAL SINGLE POINT ENERGY      -189.304842686337

DIPOLE MOMENT
-------------
                                X             Y             Z
Electronic contribution:     -2.03892      -1.57945       0.77768
Nuclear contribution   :      2.37557       2.40589      -1.23246
                        -----------------------------------------
Total Dipole Moment    :      0.33665       0.82644      -0.45478
                        -----------------------------------------
Magnitude (a.u.)       :      1.00158
Magnitude (Debye)      :      2.54582

Rotational constants in cm-1:     0.875476     0.190736     0.164192
Rotational constants in MHz : 26246.099209  5718.113797  4922.342641

                             ****ORCA TERMINATED NORMALLY****
TOTAL RUN TIME: 0 days 0 hours 0 minutes 11 seconds 663 msec
