                         Program Version 5.0.3 -  RELEASE  -
|  1> ! B3LYP cc-pVDZ
|  2> !TightSCF
|  3> %scf
|  4>  ConvForced true
|  5>  convergence tight
|  6>  MaxIter 500
|  7> end
|  8>
|  9> %tddft
| 10>  nroots 1
| 11> end
| 12>
| 13> # 	25623
| 14> * xyz 0 1
| 15> 		C   -0.600583  -0.412913   0.032969
| 16> 		O   -0.544421  -1.646486  -0.024617
| 17> 		C    0.593497   0.432644  -0.029844
| 18> 		C    1.852064  -0.128825   0.033932
| 19> 		H   -1.605265   0.154158   0.227417
| 20> 		H    0.638159   1.443578  -0.257024
| 21> 		H    1.758406  -1.323660  -0.077387
| 22> 		H    2.819168   0.391456   0.044791
| 23> *
| 24>
| 25>                          ****END OF INPUT****

CARTESIAN COORDINATES (ANGSTROEM)
---------------------------------
  C     -0.600583   -0.412913    0.032969
  O     -0.544421   -1.646486   -0.024617
  C      0.593497    0.432644   -0.029844
  C      1.852064   -0.128825    0.033932
  H     -1.605265    0.154158    0.227417
  H      0.638159    1.443578   -0.257024
  H      1.758406   -1.323660   -0.077387
  H      2.819168    0.391456    0.044791

 Total Charge           Charge          ....    0
 Multiplicity           Mult            ....    1
 Number of Electrons    NEL             ....   30
 Basis Dimension        Dim             ....   76

ORBITAL ENERGIES
----------------

  NO   OCC          E(Eh)            E(eV)
   0   2.0000     -19.141557      -520.8683
   1   2.0000     -10.284898      -279.8663
   2   2.0000     -10.225636      -278.2537
   3   2.0000     -10.203683      -277.6563
   4   2.0000      -1.035619       -28.1806
   5   2.0000      -0.789533       -21.4843
   6   2.0000      -0.650776       -17.7085
   7   2.0000      -0.540466       -14.7068
   8   2.0000      -0.510108       -13.8807
   9   2.0000      -0.439284       -11.9535
  10   2.0000      -0.423122       -11.5137
  11   2.0000      -0.394677       -10.7397
  12   2.0000      -0.364350        -9.9145
  13   2.0000      -0.278336        -7.5739
  14   2.0000      -0.260928        -7.1002
  15   0.0000      -0.077980        -2.1220
  16   0.0000       0.044844         1.2203
  17   0.0000       0.072947         1.9850
  18   0.0000       0.082231         2.2376
  19   0.0000       0.117955         3.2097

MULLIKEN ATOMIC CHARGES
-----------------------
   0 C :    0.177806
   1 O :   -0.211279
   2 C :   -0.064944
   3 C :    0.005122
   4 H :    0.004821
   5 H :   -0.026127
   6 H :    0.070510
   7 H :    0.044092
Sum of atomic charges:    0.0000000

LOEWDIN ATOMIC CHARGES
----------------------
   0 C :   -0.022789
   1 O :   -0.027317
   2 C :   -0.083476
   3 C :    0.026949
   4 H :    0.007508
   5 H :    0.014073
   6 H :    0.054290
   7 H :    0.030762

  Mayer bond orders larger than 0.100000
B(  0-C ,  1-O ) :   2.1342 B(  0-C ,  2-C ) :   1.0493 B(  0-C ,  4-H ) :   0.9137
B(  2-C ,  3-C ) :   1.9261 B(  2-C ,  5-H ) :   0.9568 B(  3-C ,  6-H ) :   0.9218
B(  3-C ,  7-H ) :   0.9447

-----------------------------------------------------------------------------
         ABSORPTION SPECTRUM VIA TRANSITION ELECTRIC DIPOLE MOMENTS
-----------------------------------------------------------------------------
State   Energy    Wavelength  fosc         T2        TX        TY        TZ
        (cm-1)      (nm)                 (au**2)    (au)      (au)      (au)
-----------------------------------------------------------------------------
   1   27360.3    365.5   0.000138041   0.00166  -0.01727  -0.00723   0.03620

FINAL SINGLE POINT ENERGY      -191.663138506792

DIPOLE MOMENT
-------------
                                X             Y             Z
Electronic contribution:     -1.82684      -1.48339       0.02888
Nuclear contribution   :      2.23081       2.41320      -0.05795
                        -----------------------------------------
Total Dipole Moment    :      0.40397       0.92981      -0.02907
                        -----------------------------------------
Magnitude (a.u.)       :      1.01419
Magnitude (Debye)      :      2.57787

Rotational constants in cm-1:     0.722711     0.212364     0.164692
Rotational constants in MHz : 21666.332102  6366.498572  4937.332411

                             ****ORCA TERMINATED NORMALLY****
TOTAL RUN TIME: 0 days 0 hours 3 minutes 20 seconds 468 msec
