                         Program Version 5.0.3 -  RELEASE  -
|  1> ! HF-3c
|  2> !TightSCF
|  3> %scf
|  4>  ConvForced true
|  5>  convergence tight
|  6>  MaxIter 500
|  7> end
|  8>
|  9> %tddft
| 10>  nroots 1
| 11> end
| 12>
| 13> # 	25315
| 14> * xyz 0 1
| 15> 		C   -0.583043  -0.425559  -0.019910
| 16> 		O   -0.560177  -1.611328   0.012232
| 17> 		C    0.620364   0.395349   0.045544
| 18> 		C    1.829000  -0.122011   0.007848
| 19> 		H   -1.494940   0.047775  -0.123496
| 20> 		H    0.493832   1.557409  -0.171086
| 21> 		H    1.841200  -1.418104  -0.275934
| 22> 		H    2.783412   0.443992  -0.025181
| 23> *
| 24>
| 25>                          ****END OF INPUT****

CARTESIAN COORDINATES (ANGSTROEM)
---------------------------------
  C     -0.583043   -0.425559   -0.019910
  O     -0.560177   -1.611328    0.012232
  C      0.620364    0.395349    0.045544
  C      1.829000   -0.122011    0.007848
  H     -1.494940    0.047775   -0.123496
  H      0.493832    1.557409   -0.171086
  H      1.841200   -1.418104   -0.275934
  H      2.783412    0.443992   -0.025181

 Total Charge           Charge          ....    0
 Multiplicity           Mult            ....    1
 Number of Electrons    NEL             ....   30
 Basis Dimension        Dim             ....   24

ORBITAL ENERGIES
----------------

  NO   OCC          E(Eh)            E(eV)
   0   2.0000     -20.364690      -554.1514
   1   2.0000     -11.300223      -307.4947
   2   2.0000     -11.181392      -304.2612
   3   2.0000     -11.173681      -304.0513
   4   2.0000      -1.420030       -38.6410
   5   2.0000      -1.067660       -29.0525
   6   2.0000      -0.886431       -24.1210
   7   2.0000      -0.745909       -20.2972
   8   2.0000      -0.677069       -18.4240
   9   2.0000      -0.607732       -16.5372
  10   2.0000      -0.587669       -15.9913
  11   2.0000      -0.554479       -15.0881
  12   2.0000      -0.474618       -12.9150
  13   2.0000      -0.416919       -11.3449
  14   2.0000      -0.384377       -10.4594
  15   0.0000       0.139970         3.8088
  16   0.0000       0.318195         8.6585
  17   0.0000       0.443201        12.0601
  18   0.0000       0.547686        14.9033
  19   0.0000       0.612202        16.6589

MULLIKEN ATOMIC CHARGES
-----------------------
   0 C :    0.154918
   1 O :   -0.359861
   2 C :   -0.188129
   3 C :   -0.191476
   4 H :    0.137232
   5 H :    0.138982
   6 H :    0.165037
   7 H :    0.143298
Sum of atomic charges:    0.0000000

LOEWDIN ATOMIC CHARGES
----------------------
   0 C :    0.140932
   1 O :   -0.259077
   2 C :   -0.156658
   3 C :   -0.111292
   4 H :    0.066821
   5 H :    0.096127
   6 H :    0.128380
   7 H :    0.094767

  Mayer bond orders larger than 0.100000
B(  0-C ,  1-O ) :   1.8964 B(  0-C ,  2-C ) :   1.0287 B(  0-C ,  4-H ) :   0.9317
B(  2-C ,  3-C ) :   1.9436 B(  2-C ,  5-H ) :   0.9515 B(  3-C ,  6-H ) :   0.9411
B(  3-C ,  7-H ) :   0.9622

-----------------------------------------------------------------------------
         ABSORPTION SPECTRUM VIA TRANSITION ELECTRIC DIPOLE MOMENTS
-----------------------------------------------------------------------------
State   Energy    Wavelength  fosc         T2        TX        TY        TZ
        (cm-1)      (nm)                 (au**2)    (au)      (au)      (au)
-----------------------------------------------------------------------------
   1   34039.0    293.8   0.000087845   0.00085  -0.02498  -0.00371   0.01456

Dispersion correction           -0.025990414
FINAL SINGLE POINT ENERGY      -189.284827339902

DIPOLE MOMENT
-------------
                                X             Y             Z
Electronic contribution:     -1.86189      -1.55395       0.37986
Nuclear contribution   :      2.24164       2.38073      -0.55851
                        -----------------------------------------
Total Dipole Moment    :      0.37975       0.82678      -0.17865
                        -----------------------------------------
Magnitude (a.u.)       :      0.92719
Magnitude (Debye)      :      2.35674

Rotational constants in cm-1:     0.768108     0.215456     0.168780
Rotational constants in MHz : 23027.288110  6459.199264  5059.908587

                             ****ORCA TERMINATED NORMALLY****
TOTAL RUN TIME: 0 days 0 hours 0 minutes 11 seconds 500 msec
