                         Program Version 5.0.3 -  RELEASE  -
|  1> ! HF-3c
|  2> !TightSCF
|  3> %scf
|  4>  ConvForced true
|  5>  convergence tight
|  6>  MaxIter 500
|  7> end
|  8>
|  9> %tddft
| 10>  nroots 1
| 11> end
| 12>
| 13> # 	19475
| 14> * xyz 0 1
| 15> 		C   -1.215746  -0.300505  -0.059623
| 16> 		O   -2.055787  -0.652277  -0.853559
| 17> 		C    0.053588   0.363689  -0.309675
| 18> 		C    1.164240   0.181379   0.292315
| 19> 		H   -1.135618  -0.724232   0.904508
| 20> 		H    0.089623   1.043583  -1.199260
| 21> 		H    1.110126  -0.587216   1.007019
| 22> 		H    1.958897   0.662078   0.134153
| 23> *
| 24>
| 25>                          ****END OF INPUT****

CARTESIAN COORDINATES (ANGSTROEM)
---------------------------------
  C     -1.215746   -0.300505   -0.059623
  O     -2.055787   -0.652277   -0.853559
  C      0.053588    0.363689   -0.309675
  C      1.164240    0.181379    0.292315
  H     -1.135618   -0.724232    0.904508
  H      0.089623    1.043583   -1.199260
  H      1.110126   -0.587216    1.007019
  H      1.958897    0.662078    0.134153

 Total Charge           Charge          ....    0
 Multiplicity           Mult            ....    1
 Number of Electrons    NEL             ....   30
 Basis Dimension        Dim             ....   24

ORBITAL ENERGIES
----------------

  NO   OCC          E(Eh)            E(eV)
   0   2.0000     -20.392503      -554.9082
   1   2.0000     -11.311822      -307.8103
   2   2.0000     -11.205146      -304.9075
   3   2.0000     -11.204486      -304.8896
   4   2.0000      -1.417216       -38.5644
   5   2.0000      -1.124845       -30.6086
   6   2.0000      -0.920509       -25.0483
   7   2.0000      -0.792390       -21.5620
   8   2.0000      -0.699237       -19.0272
   9   2.0000      -0.681857       -18.5543
  10   2.0000      -0.610998       -16.6261
  11   2.0000      -0.557255       -15.1637
  12   2.0000      -0.539167       -14.6715
  13   2.0000      -0.427393       -11.6300
  14   2.0000      -0.420238       -11.4353
  15   0.0000       0.123068         3.3488
  16   0.0000       0.299451         8.1485
  17   0.0000       0.573108        15.5951
  18   0.0000       0.642195        17.4750
  19   0.0000       0.717491        19.5239

MULLIKEN ATOMIC CHARGES
-----------------------
   0 C :    0.163447
   1 O :   -0.329986
   2 C :   -0.147558
   3 C :   -0.273855
   4 H :    0.134209
   5 H :    0.153450
   6 H :    0.147988
   7 H :    0.152305
Sum of atomic charges:   -0.0000000

LOEWDIN ATOMIC CHARGES
----------------------
   0 C :    0.148193
   1 O :   -0.232892
   2 C :   -0.102897
   3 C :   -0.163008
   4 H :    0.066138
   5 H :    0.100284
   6 H :    0.095149
   7 H :    0.089033

  Mayer bond orders larger than 0.100000
B(  0-C ,  1-O ) :   1.9217 B(  0-C ,  2-C ) :   1.0203 B(  0-C ,  4-H ) :   0.9242
B(  2-C ,  3-C ) :   1.9659 B(  2-C ,  5-H ) :   0.9483 B(  3-C ,  6-H ) :   0.9589
B(  3-C ,  7-H ) :   0.9648

-----------------------------------------------------------------------------
         ABSORPTION SPECTRUM VIA TRANSITION ELECTRIC DIPOLE MOMENTS
-----------------------------------------------------------------------------
State   Energy    Wavelength  fosc         T2        TX        TY        TZ
        (cm-1)      (nm)                 (au**2)    (au)      (au)      (au)
-----------------------------------------------------------------------------
   1   31537.5    317.1   0.000096159   0.00100  -0.00757  -0.01666   0.02586

Dispersion correction           -0.026405089
FINAL SINGLE POINT ENERGY      -189.308342444322

DIPOLE MOMENT
-------------
                                X             Y             Z
Electronic contribution:     -3.16630      -0.59471      -1.16652
Nuclear contribution   :      3.93908       0.83738       1.70396
                        -----------------------------------------
Total Dipole Moment    :      0.77277       0.24267       0.53744
                        -----------------------------------------
Magnitude (a.u.)       :      0.97206
Magnitude (Debye)      :      2.47079

Rotational constants in cm-1:     1.653467     0.156460     0.146830
Rotational constants in MHz : 49569.703838  4690.566213  4401.857845

                             ****ORCA TERMINATED NORMALLY****
TOTAL RUN TIME: 0 days 0 hours 0 minutes 16 seconds 62 msec
