                         Program Version 5.0.3 -  RELEASE  -
|  1> ! HF-3c
|  2> !TightSCF
|  3> %scf
|  4>  ConvForced true
|  5>  convergence tight
|  6>  MaxIter 500
|  7> end
|  8>
|  9> %tddft
| 10>  nroots 1
| 11> end
| 12>
| 13> # 	10034
| 14> * xyz 0 1
| 15> 		C   -1.239413  -0.303820   0.017076
| 16> 		O   -1.959109  -0.689741   0.902276
| 17> 		C    0.000571   0.469748   0.314365
| 18> 		C    1.196807   0.091388  -0.170831
| 19> 		H   -1.313270  -0.519525  -0.910945
| 20> 		H   -0.055021   1.302322   1.037228
| 21> 		H    1.271067  -0.845474  -0.824045
| 22> 		H    2.130562   0.571751  -0.313605
| 23> *
| 24>
| 25>                          ****END OF INPUT****

CARTESIAN COORDINATES (ANGSTROEM)
---------------------------------
  C     -1.239413   -0.303820    0.017076
  O     -1.959109   -0.689741    0.902276
  C      0.000571    0.469748    0.314365
  C      1.196807    0.091388   -0.170831
  H     -1.313270   -0.519525   -0.910945
  H     -0.055021    1.302322    1.037228
  H      1.271067   -0.845474   -0.824045
  H      2.130562    0.571751   -0.313605

 Total Charge           Charge          ....    0
 Multiplicity           Mult            ....    1
 Number of Electrons    NEL             ....   30
 Basis Dimension        Dim             ....   24

ORBITAL ENERGIES
----------------

  NO   OCC          E(Eh)            E(eV)
   0   2.0000     -20.391932      -554.8927
   1   2.0000     -11.314772      -307.8906
   2   2.0000     -11.189093      -304.4707
   3   2.0000     -11.180645      -304.2408
   4   2.0000      -1.421358       -38.6771
   5   2.0000      -1.075350       -29.2618
   6   2.0000      -0.902289       -24.5525
   7   2.0000      -0.802490       -21.8369
   8   2.0000      -0.678872       -18.4730
   9   2.0000      -0.651560       -17.7298
  10   2.0000      -0.611628       -16.6432
  11   2.0000      -0.535932       -14.5834
  12   2.0000      -0.518956       -14.1215
  13   2.0000      -0.430614       -11.7176
  14   2.0000      -0.390440       -10.6244
  15   0.0000       0.138628         3.7723
  16   0.0000       0.260706         7.0942
  17   0.0000       0.532375        14.4867
  18   0.0000       0.619624        16.8608
  19   0.0000       0.688156        18.7257

MULLIKEN ATOMIC CHARGES
-----------------------
   0 C :    0.148205
   1 O :   -0.325883
   2 C :   -0.160630
   3 C :   -0.233830
   4 H :    0.145165
   5 H :    0.154766
   6 H :    0.126693
   7 H :    0.145514
Sum of atomic charges:    0.0000000

LOEWDIN ATOMIC CHARGES
----------------------
   0 C :    0.144465
   1 O :   -0.228217
   2 C :   -0.118843
   3 C :   -0.142170
   4 H :    0.066895
   5 H :    0.102308
   6 H :    0.083183
   7 H :    0.092379

  Mayer bond orders larger than 0.100000
B(  0-C ,  1-O ) :   1.9337 B(  0-C ,  2-C ) :   1.0001 B(  0-C ,  4-H ) :   0.9348
B(  2-C ,  3-C ) :   1.9789 B(  2-C ,  5-H ) :   0.9511 B(  3-C ,  6-H ) :   0.9657
B(  3-C ,  7-H ) :   0.9662

-----------------------------------------------------------------------------
         ABSORPTION SPECTRUM VIA TRANSITION ELECTRIC DIPOLE MOMENTS
-----------------------------------------------------------------------------
State   Energy    Wavelength  fosc         T2        TX        TY        TZ
        (cm-1)      (nm)                 (au**2)    (au)      (au)      (au)
-----------------------------------------------------------------------------
   1   32677.3    306.0   0.000231570   0.00233  -0.04123  -0.00568   0.02451

Dispersion correction           -0.025405259
FINAL SINGLE POINT ENERGY      -189.303549757442

DIPOLE MOMENT
-------------
                                X             Y             Z
Electronic contribution:     -3.16390      -0.68076       1.29369
Nuclear contribution   :      3.88115       0.96679      -1.96669
                        -----------------------------------------
Total Dipole Moment    :      0.71725       0.28603      -0.67300
                        -----------------------------------------
Magnitude (a.u.)       :      1.02430
Magnitude (Debye)      :      2.60356

Rotational constants in cm-1:     1.273471     0.158281     0.150827
Rotational constants in MHz : 38177.701774  4745.154130  4521.668626

                             ****ORCA TERMINATED NORMALLY****
TOTAL RUN TIME: 0 days 0 hours 0 minutes 11 seconds 32 msec
