                         Program Version 5.0.3 -  RELEASE  -
|  1> ! B3LYP cc-pVDZ
|  2> !TightSCF
|  3> %scf
|  4>  ConvForced true
|  5>  convergence tight
|  6>  MaxIter 500
|  7> end
|  8>
|  9> %tddft
| 10>  nroots 1
| 11> end
| 12>
| 13> # 	32418
| 14> * xyz 0 1
| 15> 		C   -0.644978  -0.423711  -0.020729
| 16> 		O   -0.551563  -1.621729   0.010300
| 17> 		C    0.658348   0.383706  -0.017438
| 18> 		C    1.855530  -0.124428   0.009066
| 19> 		H   -1.592267   0.185686   0.097340
| 20> 		H    0.407058   1.457329   0.113806
| 21> 		H    1.891711  -1.208315  -0.054385
| 22> 		H    2.711333   0.530993   0.032721
| 23> *
| 24>
| 25>                          ****END OF INPUT****

CARTESIAN COORDINATES (ANGSTROEM)
---------------------------------
  C     -0.644978   -0.423711   -0.020729
  O     -0.551563   -1.621729    0.010300
  C      0.658348    0.383706   -0.017438
  C      1.855530   -0.124428    0.009066
  H     -1.592267    0.185686    0.097340
  H      0.407058    1.457329    0.113806
  H      1.891711   -1.208315   -0.054385
  H      2.711333    0.530993    0.032721

 Total Charge           Charge          ....    0
 Multiplicity           Mult            ....    1
 Number of Electrons    NEL             ....   30
 Basis Dimension        Dim             ....   76

ORBITAL ENERGIES
----------------

  NO   OCC          E(Eh)            E(eV)
   0   2.0000     -19.143838      -520.9303
   1   2.0000     -10.281063      -279.7620
   2   2.0000     -10.200624      -277.5731
   3   2.0000     -10.197486      -277.4877
   4   2.0000      -1.055764       -28.7288
   5   2.0000      -0.792010       -21.5517
   6   2.0000      -0.651258       -17.7216
   7   2.0000      -0.536223       -14.5914
   8   2.0000      -0.504437       -13.7264
   9   2.0000      -0.448728       -12.2105
  10   2.0000      -0.433144       -11.7865
  11   2.0000      -0.402989       -10.9659
  12   2.0000      -0.373884       -10.1739
  13   2.0000      -0.289640        -7.8815
  14   2.0000      -0.256718        -6.9857
  15   0.0000      -0.063111        -1.7173
  16   0.0000       0.060183         1.6377
  17   0.0000       0.066421         1.8074
  18   0.0000       0.093865         2.5542
  19   0.0000       0.123539         3.3617

MULLIKEN ATOMIC CHARGES
-----------------------
   0 C :    0.168565
   1 O :   -0.177749
   2 C :   -0.143774
   3 C :    0.120395
   4 H :   -0.003093
   5 H :   -0.019952
   6 H :    0.027567
   7 H :    0.028041
Sum of atomic charges:    0.0000000

LOEWDIN ATOMIC CHARGES
----------------------
   0 C :   -0.029165
   1 O :    0.009926
   2 C :   -0.083201
   3 C :    0.010828
   4 H :    0.001333
   5 H :    0.021596
   6 H :    0.034601
   7 H :    0.034082

  Mayer bond orders larger than 0.100000
B(  0-C ,  1-O ) :   2.1994 B(  0-C ,  2-C ) :   1.0288 B(  0-C ,  4-H ) :   0.9055
B(  2-C ,  3-C ) :   2.0128 B(  2-C ,  5-H ) :   0.9407 B(  3-C ,  6-H ) :   0.9126
B(  3-C ,  7-H ) :   0.9331

-----------------------------------------------------------------------------
         ABSORPTION SPECTRUM VIA TRANSITION ELECTRIC DIPOLE MOMENTS
-----------------------------------------------------------------------------
State   Energy    Wavelength  fosc         T2        TX        TY        TZ
        (cm-1)      (nm)                 (au**2)    (au)      (au)      (au)
-----------------------------------------------------------------------------
   1   29139.7    343.2   0.000112644   0.00127  -0.01457  -0.01365  -0.02956

FINAL SINGLE POINT ENERGY      -191.667439619786

DIPOLE MOMENT
-------------
                                X             Y             Z
Electronic contribution:     -1.83635      -1.87259      -0.16267
Nuclear contribution   :      2.05140       2.69288       0.17750
                        -----------------------------------------
Total Dipole Moment    :      0.21505       0.82029       0.01483
                        -----------------------------------------
Magnitude (a.u.)       :      0.84814
Magnitude (Debye)      :      2.15581

Rotational constants in cm-1:     0.764237     0.210320     0.165054
Rotational constants in MHz : 22911.236168  6305.238287  4948.192595

                             ****ORCA TERMINATED NORMALLY****
TOTAL RUN TIME: 0 days 0 hours 3 minutes 23 seconds 490 msec
