                         Program Version 5.0.3 -  RELEASE  -
|  1> ! B3LYP cc-pVDZ
|  2> !TightSCF
|  3> %scf
|  4>  ConvForced true
|  5>  convergence tight
|  6>  MaxIter 500
|  7> end
|  8>
|  9> %tddft
| 10>  nroots 1
| 11> end
| 12>
| 13> # 	6208
| 14> * xyz 0 1
| 15> 		C   -1.188563  -0.318796   0.002666
| 16> 		O   -1.492260  -1.292975   0.644215
| 17> 		C   -0.006552   0.502004   0.211963
| 18> 		C    1.212344   0.030868  -0.187290
| 19> 		H   -1.799807  -0.026399  -0.834355
| 20> 		H   -0.160481   1.483347   0.770551
| 21> 		H    1.367009  -0.940297  -0.683387
| 22> 		H    2.141275   0.594545   0.090979
| 23> *
| 24>
| 25>                          ****END OF INPUT****

CARTESIAN COORDINATES (ANGSTROEM)
---------------------------------
  C     -1.188563   -0.318796    0.002666
  O     -1.492260   -1.292975    0.644215
  C     -0.006552    0.502004    0.211963
  C      1.212344    0.030868   -0.187290
  H     -1.799807   -0.026399   -0.834355
  H     -0.160481    1.483347    0.770551
  H      1.367009   -0.940297   -0.683387
  H      2.141275    0.594545    0.090979

 Total Charge           Charge          ....    0
 Multiplicity           Mult            ....    1
 Number of Electrons    NEL             ....   30
 Basis Dimension        Dim             ....   76

ORBITAL ENERGIES
----------------

  NO   OCC          E(Eh)            E(eV)
   0   2.0000     -19.142090      -520.8827
   1   2.0000     -10.274086      -279.5721
   2   2.0000     -10.214208      -277.9427
   3   2.0000     -10.213151      -277.9140
   4   2.0000      -1.052499       -28.6400
   5   2.0000      -0.791804       -21.5461
   6   2.0000      -0.655211       -17.8292
   7   2.0000      -0.554722       -15.0948
   8   2.0000      -0.494606       -13.4589
   9   2.0000      -0.454814       -12.3761
  10   2.0000      -0.443912       -12.0794
  11   2.0000      -0.389139       -10.5890
  12   2.0000      -0.374046       -10.1783
  13   2.0000      -0.281413        -7.6576
  14   2.0000      -0.254754        -6.9322
  15   0.0000      -0.036249        -0.9864
  16   0.0000      -0.012920        -0.3516
  17   0.0000       0.076057         2.0696
  18   0.0000       0.089248         2.4286
  19   0.0000       0.106891         2.9087

MULLIKEN ATOMIC CHARGES
-----------------------
   0 C :    0.189797
   1 O :   -0.180154
   2 C :   -0.108889
   3 C :    0.005328
   4 H :   -0.021248
   5 H :    0.038683
   6 H :    0.036043
   7 H :    0.040441
Sum of atomic charges:   -0.0000000

LOEWDIN ATOMIC CHARGES
----------------------
   0 C :   -0.031103
   1 O :    0.014353
   2 C :   -0.063749
   3 C :   -0.025330
   4 H :   -0.011151
   5 H :    0.049382
   6 H :    0.031279
   7 H :    0.036320

  Mayer bond orders larger than 0.100000
B(  0-C ,  1-O ) :   2.2413 B(  0-C ,  2-C ) :   0.9989 B(  0-C ,  4-H ) :   0.9208
B(  2-C ,  3-C ) :   2.0185 B(  2-C ,  5-H ) :   0.9302 B(  3-C ,  6-H ) :   0.9494
B(  3-C ,  7-H ) :   0.9488

-----------------------------------------------------------------------------
         ABSORPTION SPECTRUM VIA TRANSITION ELECTRIC DIPOLE MOMENTS
-----------------------------------------------------------------------------
State   Energy    Wavelength  fosc         T2        TX        TY        TZ
        (cm-1)      (nm)                 (au**2)    (au)      (au)      (au)
-----------------------------------------------------------------------------
   1   32926.0    303.7   0.000005128   0.00005   0.00518  -0.00253  -0.00425

FINAL SINGLE POINT ENERGY      -191.642432747786

DIPOLE MOMENT
-------------
                                X             Y             Z
Electronic contribution:     -2.48630      -1.43449       0.90007
Nuclear contribution   :      2.91584       2.16543      -1.27635
                        -----------------------------------------
Total Dipole Moment    :      0.42954       0.73095      -0.37628
                        -----------------------------------------
Magnitude (a.u.)       :      0.92756
Magnitude (Debye)      :      2.35768

Rotational constants in cm-1:     0.874609     0.179970     0.162774
Rotational constants in MHz : 26220.106312  5395.373383  4879.835249

                             ****ORCA TERMINATED NORMALLY****
TOTAL RUN TIME: 0 days 0 hours 3 minutes 6 seconds 335 msec
