                         Program Version 5.0.3 -  RELEASE  -
|  1> ! HF-3c
|  2> !TightSCF
|  3> %scf
|  4>  ConvForced true
|  5>  convergence tight
|  6>  MaxIter 500
|  7> end
|  8>
|  9> %tddft
| 10>  nroots 1
| 11> end
| 12>
| 13> # 	20438
| 14> * xyz 0 1
| 15> 		C   -0.547803  -0.437043  -0.027477
| 16> 		O   -0.571090  -1.605841   0.006578
| 17> 		C    0.590199   0.423037   0.026049
| 18> 		C    1.835740  -0.164148  -0.009430
| 19> 		H   -1.578710   0.046457   0.052674
| 20> 		H    0.497735   1.500515  -0.037310
| 21> 		H    1.887553  -1.216225   0.040671
| 22> 		H    2.838168   0.520134  -0.035682
| 23> *
| 24>
| 25>                          ****END OF INPUT****

CARTESIAN COORDINATES (ANGSTROEM)
---------------------------------
  C     -0.547803   -0.437043   -0.027477
  O     -0.571090   -1.605841    0.006578
  C      0.590199    0.423037    0.026049
  C      1.835740   -0.164148   -0.009430
  H     -1.578710    0.046457    0.052674
  H      0.497735    1.500515   -0.037310
  H      1.887553   -1.216225    0.040671
  H      2.838168    0.520134   -0.035682

 Total Charge           Charge          ....    0
 Multiplicity           Mult            ....    1
 Number of Electrons    NEL             ....   30
 Basis Dimension        Dim             ....   24

ORBITAL ENERGIES
----------------

  NO   OCC          E(Eh)            E(eV)
   0   2.0000     -20.360215      -554.0296
   1   2.0000     -11.298316      -307.4428
   2   2.0000     -11.195178      -304.6363
   3   2.0000     -11.182145      -304.2816
   4   2.0000      -1.426634       -38.8207
   5   2.0000      -1.073970       -29.2242
   6   2.0000      -0.883174       -24.0324
   7   2.0000      -0.737241       -20.0613
   8   2.0000      -0.711192       -19.3525
   9   2.0000      -0.613898       -16.7050
  10   2.0000      -0.573203       -15.5976
  11   2.0000      -0.558484       -15.1971
  12   2.0000      -0.537132       -14.6161
  13   2.0000      -0.401085       -10.9141
  14   2.0000      -0.383248       -10.4287
  15   0.0000       0.128499         3.4966
  16   0.0000       0.323819         8.8116
  17   0.0000       0.501706        13.6521
  18   0.0000       0.618423        16.8281
  19   0.0000       0.646736        17.5986

MULLIKEN ATOMIC CHARGES
-----------------------
   0 C :    0.171560
   1 O :   -0.371384
   2 C :   -0.195205
   3 C :   -0.186012
   4 H :    0.125574
   5 H :    0.145347
   6 H :    0.157337
   7 H :    0.152782
Sum of atomic charges:    0.0000000

LOEWDIN ATOMIC CHARGES
----------------------
   0 C :    0.142495
   1 O :   -0.266173
   2 C :   -0.155287
   3 C :   -0.088686
   4 H :    0.064270
   5 H :    0.093285
   6 H :    0.099630
   7 H :    0.110466

  Mayer bond orders larger than 0.100000
B(  0-C ,  1-O ) :   1.8869 B(  0-C ,  2-C ) :   1.0494 B(  0-C ,  4-H ) :   0.9187
B(  2-C ,  3-C ) :   1.9111 B(  2-C ,  5-H ) :   0.9613 B(  3-C ,  6-H ) :   0.9610
B(  3-C ,  7-H ) :   0.9616

-----------------------------------------------------------------------------
         ABSORPTION SPECTRUM VIA TRANSITION ELECTRIC DIPOLE MOMENTS
-----------------------------------------------------------------------------
State   Energy    Wavelength  fosc         T2        TX        TY        TZ
        (cm-1)      (nm)                 (au**2)    (au)      (au)      (au)
-----------------------------------------------------------------------------
   1   33649.2    297.2   0.000159184   0.00156  -0.03350  -0.00207   0.02076

Dispersion correction           -0.025925056
FINAL SINGLE POINT ENERGY      -189.314685634903

DIPOLE MOMENT
-------------
                                X             Y             Z
Electronic contribution:     -1.74934      -1.65319      -0.04555
Nuclear contribution   :      2.26216       2.58718       0.01951
                        -----------------------------------------
Total Dipole Moment    :      0.51282       0.93399      -0.02605
                        -----------------------------------------
Magnitude (a.u.)       :      1.06583
Magnitude (Debye)      :      2.70913

Rotational constants in cm-1:     0.772103     0.216003     0.168873
Rotational constants in MHz : 23147.068756  6475.618438  5062.673590

                             ****ORCA TERMINATED NORMALLY****
TOTAL RUN TIME: 0 days 0 hours 0 minutes 16 seconds 78 msec
