                         Program Version 5.0.3 -  RELEASE  -
|  1> ! B3LYP cc-pVDZ
|  2> !TightSCF
|  3> %scf
|  4>  ConvForced true
|  5>  convergence tight
|  6>  MaxIter 500
|  7> end
|  8>
|  9> %tddft
| 10>  nroots 1
| 11> end
| 12>
| 13> # 	30669
| 14> * xyz 0 1
| 15> 		C   -0.618777  -0.439129   0.000774
| 16> 		O   -0.548727  -1.608092   0.006604
| 17> 		C    0.619154   0.399715  -0.067818
| 18> 		C    1.845431  -0.113608   0.010230
| 19> 		H   -1.548544   0.216253   0.165357
| 20> 		H    0.392513   1.406909   0.255022
| 21> 		H    1.915655  -1.408856  -0.020680
| 22> 		H    2.879227   0.399273   0.191565
| 23> *
| 24>
| 25>                          ****END OF INPUT****

CARTESIAN COORDINATES (ANGSTROEM)
---------------------------------
  C     -0.618777   -0.439129    0.000774
  O     -0.548727   -1.608092    0.006604
  C      0.619154    0.399715   -0.067818
  C      1.845431   -0.113608    0.010230
  H     -1.548544    0.216253    0.165357
  H      0.392513    1.406909    0.255022
  H      1.915655   -1.408856   -0.020680
  H      2.879227    0.399273    0.191565

 Total Charge           Charge          ....    0
 Multiplicity           Mult            ....    1
 Number of Electrons    NEL             ....   30
 Basis Dimension        Dim             ....   76

ORBITAL ENERGIES
----------------

  NO   OCC          E(Eh)            E(eV)
   0   2.0000     -19.143214      -520.9133
   1   2.0000     -10.278577      -279.6943
   2   2.0000     -10.232274      -278.4343
   3   2.0000     -10.198812      -277.5238
   4   2.0000      -1.073302       -29.2060
   5   2.0000      -0.786133       -21.3918
   6   2.0000      -0.646284       -17.5863
   7   2.0000      -0.528009       -14.3679
   8   2.0000      -0.497473       -13.5369
   9   2.0000      -0.450034       -12.2460
  10   2.0000      -0.429908       -11.6984
  11   2.0000      -0.413979       -11.2649
  12   2.0000      -0.349351        -9.5063
  13   2.0000      -0.287788        -7.8311
  14   2.0000      -0.258426        -7.0321
  15   0.0000      -0.064661        -1.7595
  16   0.0000       0.055702         1.5157
  17   0.0000       0.057143         1.5549
  18   0.0000       0.067016         1.8236
  19   0.0000       0.118523         3.2252

MULLIKEN ATOMIC CHARGES
-----------------------
   0 C :    0.157322
   1 O :   -0.148694
   2 C :   -0.074704
   3 C :   -0.044632
   4 H :   -0.015602
   5 H :   -0.008590
   6 H :    0.071744
   7 H :    0.063155
Sum of atomic charges:    0.0000000

LOEWDIN ATOMIC CHARGES
----------------------
   0 C :   -0.059386
   1 O :    0.043119
   2 C :   -0.105007
   3 C :   -0.005919
   4 H :   -0.002631
   5 H :    0.023457
   6 H :    0.059990
   7 H :    0.046377

  Mayer bond orders larger than 0.100000
B(  0-C ,  1-O ) :   2.2436 B(  0-C ,  2-C ) :   1.0354 B(  0-C ,  4-H ) :   0.8990
B(  2-C ,  3-C ) :   1.9454 B(  2-C ,  5-H ) :   0.9407 B(  3-C ,  6-H ) :   0.9165
B(  3-C ,  7-H ) :   0.9426

-----------------------------------------------------------------------------
         ABSORPTION SPECTRUM VIA TRANSITION ELECTRIC DIPOLE MOMENTS
-----------------------------------------------------------------------------
State   Energy    Wavelength  fosc         T2        TX        TY        TZ
        (cm-1)      (nm)                 (au**2)    (au)      (au)      (au)
-----------------------------------------------------------------------------
   1   29950.3    333.9   0.000789157   0.00867   0.08087   0.03299   0.03234

FINAL SINGLE POINT ENERGY      -191.639262204480

DIPOLE MOMENT
-------------
                                X             Y             Z
Electronic contribution:     -1.96198      -1.59585      -0.42964
Nuclear contribution   :      2.25941       2.36272       0.55351
                        -----------------------------------------
Total Dipole Moment    :      0.29743       0.76687       0.12387
                        -----------------------------------------
Magnitude (a.u.)       :      0.83180
Magnitude (Debye)      :      2.11427

Rotational constants in cm-1:     0.744251     0.213112     0.166286
Rotational constants in MHz : 22312.082217  6388.949795  4985.142554

                             ****ORCA TERMINATED NORMALLY****
TOTAL RUN TIME: 0 days 0 hours 3 minutes 15 seconds 14 msec
