                         Program Version 5.0.3 -  RELEASE  -
|  1> ! HF-3c
|  2> !TightSCF
|  3> %scf
|  4>  ConvForced true
|  5>  convergence tight
|  6>  MaxIter 500
|  7> end
|  8>
|  9> %tddft
| 10>  nroots 1
| 11> end
| 12>
| 13> # 	13791
| 14> * xyz 0 1
| 15> 		C   -1.144988  -0.266337   0.049990
| 16> 		O   -1.826391  -0.874974  -0.817726
| 17> 		C    0.006816   0.583093  -0.258516
| 18> 		C    1.218244   0.027524   0.095629
| 19> 		H   -1.442058  -0.306637   1.122142
| 20> 		H   -0.247707   1.229939  -0.856794
| 21> 		H    1.153332  -0.933435   0.846671
| 22> 		H    2.304710   0.594285  -0.197742
| 23> *
| 24>
| 25>                          ****END OF INPUT****

CARTESIAN COORDINATES (ANGSTROEM)
---------------------------------
  C     -1.144988   -0.266337    0.049990
  O     -1.826391   -0.874974   -0.817726
  C      0.006816    0.583093   -0.258516
  C      1.218244    0.027524    0.095629
  H     -1.442058   -0.306637    1.122142
  H     -0.247707    1.229939   -0.856794
  H      1.153332   -0.933435    0.846671
  H      2.304710    0.594285   -0.197742

 Total Charge           Charge          ....    0
 Multiplicity           Mult            ....    1
 Number of Electrons    NEL             ....   30
 Basis Dimension        Dim             ....   24

ORBITAL ENERGIES
----------------

  NO   OCC          E(Eh)            E(eV)
   0   2.0000     -20.348819      -553.7195
   1   2.0000     -11.279032      -306.9181
   2   2.0000     -11.194263      -304.6114
   3   2.0000     -11.184866      -304.3557
   4   2.0000      -1.362696       -37.0808
   5   2.0000      -1.078118       -29.3371
   6   2.0000      -0.863617       -23.5002
   7   2.0000      -0.788678       -21.4610
   8   2.0000      -0.660206       -17.9651
   9   2.0000      -0.613059       -16.6822
  10   2.0000      -0.581980       -15.8365
  11   2.0000      -0.528480       -14.3807
  12   2.0000      -0.481937       -13.1142
  13   2.0000      -0.406622       -11.0647
  14   2.0000      -0.385995       -10.5035
  15   0.0000       0.158095         4.3020
  16   0.0000       0.221989         6.0406
  17   0.0000       0.464783        12.6474
  18   0.0000       0.512804        13.9541
  19   0.0000       0.640489        17.4286

MULLIKEN ATOMIC CHARGES
-----------------------
   0 C :    0.161625
   1 O :   -0.345429
   2 C :   -0.227571
   3 C :   -0.171283
   4 H :    0.134231
   5 H :    0.149219
   6 H :    0.145044
   7 H :    0.154165
Sum of atomic charges:    0.0000000

LOEWDIN ATOMIC CHARGES
----------------------
   0 C :    0.155862
   1 O :   -0.266833
   2 C :   -0.168384
   3 C :   -0.096847
   4 H :    0.073183
   5 H :    0.083608
   6 H :    0.104792
   7 H :    0.114620

  Mayer bond orders larger than 0.100000
B(  0-C ,  1-O ) :   1.9287 B(  0-C ,  2-C ) :   1.0073 B(  0-C ,  4-H ) :   0.9257
B(  2-C ,  3-C ) :   1.9576 B(  2-C ,  5-H ) :   0.9600 B(  3-C ,  6-H ) :   0.9571
B(  3-C ,  7-H ) :   0.9525

-----------------------------------------------------------------------------
         ABSORPTION SPECTRUM VIA TRANSITION ELECTRIC DIPOLE MOMENTS
-----------------------------------------------------------------------------
State   Energy    Wavelength  fosc         T2        TX        TY        TZ
        (cm-1)      (nm)                 (au**2)    (au)      (au)      (au)
-----------------------------------------------------------------------------
   1   32096.0    311.6   0.000065558   0.00067   0.02233  -0.01259  -0.00389

Dispersion correction           -0.025445262
FINAL SINGLE POINT ENERGY      -189.258188161514

DIPOLE MOMENT
-------------
                                X             Y             Z
Electronic contribution:     -2.50252      -0.79010      -1.02603
Nuclear contribution   :      3.41115       1.15836       1.75401
                        -----------------------------------------
Total Dipole Moment    :      0.90863       0.36826       0.72799
                        -----------------------------------------
Magnitude (a.u.)       :      1.22114
Magnitude (Debye)      :      3.10390

Rotational constants in cm-1:     0.998537     0.163621     0.159033
Rotational constants in MHz : 29935.381996  4905.239393  4767.679096

                             ****ORCA TERMINATED NORMALLY****
TOTAL RUN TIME: 0 days 0 hours 0 minutes 12 seconds 1 msec
