                         Program Version 5.0.3 -  RELEASE  -
|  1> ! HF-3c
|  2> !TightSCF
|  3> %scf
|  4>  ConvForced true
|  5>  convergence tight
|  6>  MaxIter 500
|  7> end
|  8>
|  9> %tddft
| 10>  nroots 1
| 11> end
| 12>
| 13> # 	3950
| 14> * xyz 0 1
| 15> 		C   -1.178509  -0.345686  -0.014735
| 16> 		O   -1.790769  -0.912508   0.838723
| 17> 		C   -0.048037   0.509078   0.240799
| 18> 		C    1.202273   0.069397  -0.182003
| 19> 		H   -1.411720  -0.442424  -1.032394
| 20> 		H   -0.109093   1.236654   0.888904
| 21> 		H    1.157099  -0.848598  -0.946533
| 22> 		H    2.165504   0.748661   0.153835
| 23> *
| 24>
| 25>                          ****END OF INPUT****

CARTESIAN COORDINATES (ANGSTROEM)
---------------------------------
  C     -1.178509   -0.345686   -0.014735
  O     -1.790769   -0.912508    0.838723
  C     -0.048037    0.509078    0.240799
  C      1.202273    0.069397   -0.182003
  H     -1.411720   -0.442424   -1.032394
  H     -0.109093    1.236654    0.888904
  H      1.157099   -0.848598   -0.946533
  H      2.165504    0.748661    0.153835

 Total Charge           Charge          ....    0
 Multiplicity           Mult            ....    1
 Number of Electrons    NEL             ....   30
 Basis Dimension        Dim             ....   24

ORBITAL ENERGIES
----------------

  NO   OCC          E(Eh)            E(eV)
   0   2.0000     -20.374602      -554.4211
   1   2.0000     -11.303287      -307.5781
   2   2.0000     -11.183713      -304.3243
   3   2.0000     -11.175113      -304.0903
   4   2.0000      -1.417638       -38.5759
   5   2.0000      -1.074032       -29.2259
   6   2.0000      -0.871698       -23.7201
   7   2.0000      -0.787874       -21.4391
   8   2.0000      -0.684658       -18.6305
   9   2.0000      -0.627346       -17.0710
  10   2.0000      -0.585106       -15.9215
  11   2.0000      -0.540837       -14.7169
  12   2.0000      -0.512360       -13.9420
  13   2.0000      -0.415764       -11.3135
  14   2.0000      -0.381207       -10.3732
  15   0.0000       0.158609         4.3160
  16   0.0000       0.240774         6.5518
  17   0.0000       0.475524        12.9397
  18   0.0000       0.578872        15.7519
  19   0.0000       0.690406        18.7869

MULLIKEN ATOMIC CHARGES
-----------------------
   0 C :    0.162423
   1 O :   -0.345647
   2 C :   -0.208322
   3 C :   -0.187972
   4 H :    0.135558
   5 H :    0.146505
   6 H :    0.142944
   7 H :    0.154510
Sum of atomic charges:    0.0000000

LOEWDIN ATOMIC CHARGES
----------------------
   0 C :    0.149692
   1 O :   -0.246655
   2 C :   -0.159918
   3 C :   -0.110454
   4 H :    0.066452
   5 H :    0.086113
   6 H :    0.101427
   7 H :    0.113344

  Mayer bond orders larger than 0.100000
B(  0-C ,  1-O ) :   1.9263 B(  0-C ,  2-C ) :   1.0133 B(  0-C ,  4-H ) :   0.9244
B(  2-C ,  3-C ) :   1.9537 B(  2-C ,  5-H ) :   0.9592 B(  3-C ,  6-H ) :   0.9609
B(  3-C ,  7-H ) :   0.9563

-----------------------------------------------------------------------------
         ABSORPTION SPECTRUM VIA TRANSITION ELECTRIC DIPOLE MOMENTS
-----------------------------------------------------------------------------
State   Energy    Wavelength  fosc         T2        TX        TY        TZ
        (cm-1)      (nm)                 (au**2)    (au)      (au)      (au)
-----------------------------------------------------------------------------
   1   35136.7    284.6   0.000071777   0.00067  -0.02487   0.00718   0.00148

Dispersion correction           -0.025713109
FINAL SINGLE POINT ENERGY      -189.275814969991

DIPOLE MOMENT
-------------
                                X             Y             Z
Electronic contribution:     -2.65735      -0.97939       1.06351
Nuclear contribution   :      3.48677       1.38402      -1.73979
                        -----------------------------------------
Total Dipole Moment    :      0.82942       0.40463      -0.67628
                        -----------------------------------------
Magnitude (a.u.)       :      1.14413
Magnitude (Debye)      :      2.90814

Rotational constants in cm-1:     1.095470     0.165456     0.160230
Rotational constants in MHz : 32841.374545  4960.243078  4803.570816

                             ****ORCA TERMINATED NORMALLY****
TOTAL RUN TIME: 0 days 0 hours 0 minutes 16 seconds 127 msec
