                         Program Version 5.0.3 -  RELEASE  -
|  1> ! HF-3c
|  2> !TightSCF
|  3> %scf
|  4>  ConvForced true
|  5>  convergence tight
|  6>  MaxIter 500
|  7> end
|  8>
|  9> %tddft
| 10>  nroots 1
| 11> end
| 12>
| 13> # 	15099
| 14> * xyz 0 1
| 15> 		C   -1.155821  -0.461240  -0.055336
| 16> 		O   -2.192192  -0.269172  -0.677702
| 17> 		C   -0.020165   0.396719  -0.379339
| 18> 		C    1.212061   0.133548   0.255304
| 19> 		H   -1.077522  -0.981693   0.783796
| 20> 		H   -0.020686   1.175487  -1.096996
| 21> 		H    1.234134  -0.726694   1.132365
| 22> 		H    1.981508   0.748250   0.111797
| 23> *
| 24>
| 25>                          ****END OF INPUT****

CARTESIAN COORDINATES (ANGSTROEM)
---------------------------------
  C     -1.155821   -0.461240   -0.055336
  O     -2.192192   -0.269172   -0.677702
  C     -0.020165    0.396719   -0.379339
  C      1.212061    0.133548    0.255304
  H     -1.077522   -0.981693    0.783796
  H     -0.020686    1.175487   -1.096996
  H      1.234134   -0.726694    1.132365
  H      1.981508    0.748250    0.111797

 Total Charge           Charge          ....    0
 Multiplicity           Mult            ....    1
 Number of Electrons    NEL             ....   30
 Basis Dimension        Dim             ....   24

ORBITAL ENERGIES
----------------

  NO   OCC          E(Eh)            E(eV)
   0   2.0000     -20.364489      -554.1459
   1   2.0000     -11.300208      -307.4943
   2   2.0000     -11.187369      -304.4238
   3   2.0000     -11.183819      -304.3272
   4   2.0000      -1.396893       -38.0114
   5   2.0000      -1.068829       -29.0843
   6   2.0000      -0.892779       -24.2938
   7   2.0000      -0.800570       -21.7846
   8   2.0000      -0.665521       -18.1097
   9   2.0000      -0.651239       -17.7211
  10   2.0000      -0.575423       -15.6580
  11   2.0000      -0.541265       -14.7286
  12   2.0000      -0.530622       -14.4390
  13   2.0000      -0.423961       -11.5366
  14   2.0000      -0.372299       -10.1308
  15   0.0000       0.115885         3.1534
  16   0.0000       0.283159         7.7051
  17   0.0000       0.506992        13.7959
  18   0.0000       0.624297        16.9880
  19   0.0000       0.682912        18.5830

MULLIKEN ATOMIC CHARGES
-----------------------
   0 C :    0.134181
   1 O :   -0.336005
   2 C :   -0.162435
   3 C :   -0.214640
   4 H :    0.142948
   5 H :    0.155236
   6 H :    0.143713
   7 H :    0.137002
Sum of atomic charges:    0.0000000

LOEWDIN ATOMIC CHARGES
----------------------
   0 C :    0.133070
   1 O :   -0.247298
   2 C :   -0.119066
   3 C :   -0.120462
   4 H :    0.070498
   5 H :    0.098443
   6 H :    0.104465
   7 H :    0.080349

  Mayer bond orders larger than 0.100000
B(  0-C ,  1-O ) :   1.8851 B(  0-C ,  2-C ) :   1.0567 B(  0-C ,  4-H ) :   0.9362
B(  2-C ,  3-C ) :   1.9147 B(  2-C ,  5-H ) :   0.9603 B(  3-C ,  6-H ) :   0.9635
B(  3-C ,  7-H ) :   0.9719

-----------------------------------------------------------------------------
         ABSORPTION SPECTRUM VIA TRANSITION ELECTRIC DIPOLE MOMENTS
-----------------------------------------------------------------------------
State   Energy    Wavelength  fosc         T2        TX        TY        TZ
        (cm-1)      (nm)                 (au**2)    (au)      (au)      (au)
-----------------------------------------------------------------------------
   1   30547.5    327.4   0.000100656   0.00108   0.02398   0.02257  -0.00066

Dispersion correction           -0.025747695
FINAL SINGLE POINT ENERGY      -189.305447436241

DIPOLE MOMENT
-------------
                                X             Y             Z
Electronic contribution:     -3.12071      -0.48174      -1.09836
Nuclear contribution   :      4.13845       0.41715       1.67372
                        -----------------------------------------
Total Dipole Moment    :      1.01774      -0.06459       0.57536
                        -----------------------------------------
Magnitude (a.u.)       :      1.17090
Magnitude (Debye)      :      2.97619

Rotational constants in cm-1:     1.474112     0.158161     0.143056
Rotational constants in MHz : 44192.777435  4741.537466  4288.724504

                             ****ORCA TERMINATED NORMALLY****
TOTAL RUN TIME: 0 days 0 hours 0 minutes 11 seconds 888 msec
