                         Program Version 5.0.3 -  RELEASE  -
|  1> ! B3LYP cc-pVDZ
|  2> !TightSCF
|  3> %scf
|  4>  ConvForced true
|  5>  convergence tight
|  6>  MaxIter 500
|  7> end
|  8>
|  9> %tddft
| 10>  nroots 1
| 11> end
| 12>
| 13> # 	8391
| 14> * xyz 0 1
| 15> 		C   -1.198162  -0.236989  -0.013130
| 16> 		O   -1.847948  -0.715931  -0.938175
| 17> 		C    0.017181   0.495988  -0.222208
| 18> 		C    1.187178  -0.004952   0.202721
| 19> 		H   -1.368665  -0.511219   1.009025
| 20> 		H    0.026150   1.347612  -1.046327
| 21> 		H    1.154689  -0.890469   0.950074
| 22> 		H    2.113359   0.559921   0.068653
| 23> *
| 24>
| 25>                          ****END OF INPUT****

CARTESIAN COORDINATES (ANGSTROEM)
---------------------------------
  C     -1.198162   -0.236989   -0.013130
  O     -1.847948   -0.715931   -0.938175
  C      0.017181    0.495988   -0.222208
  C      1.187178   -0.004952    0.202721
  H     -1.368665   -0.511219    1.009025
  H      0.026150    1.347612   -1.046327
  H      1.154689   -0.890469    0.950074
  H      2.113359    0.559921    0.068653

 Total Charge           Charge          ....    0
 Multiplicity           Mult            ....    1
 Number of Electrons    NEL             ....   30
 Basis Dimension        Dim             ....   76

ORBITAL ENERGIES
----------------

  NO   OCC          E(Eh)            E(eV)
   0   2.0000     -19.141932      -520.8785
   1   2.0000     -10.275181      -279.6019
   2   2.0000     -10.218755      -278.0664
   3   2.0000     -10.212761      -277.9034
   4   2.0000      -1.040664       -28.3179
   5   2.0000      -0.803107       -21.8537
   6   2.0000      -0.654266       -17.8035
   7   2.0000      -0.562228       -15.2990
   8   2.0000      -0.478302       -13.0153
   9   2.0000      -0.466403       -12.6915
  10   2.0000      -0.432331       -11.7643
  11   2.0000      -0.388818       -10.5803
  12   2.0000      -0.368849       -10.0369
  13   2.0000      -0.289456        -7.8765
  14   2.0000      -0.257669        -7.0115
  15   0.0000      -0.061388        -1.6704
  16   0.0000       0.013991         0.3807
  17   0.0000       0.068336         1.8595
  18   0.0000       0.079164         2.1542
  19   0.0000       0.116690         3.1753

MULLIKEN ATOMIC CHARGES
-----------------------
   0 C :    0.198713
   1 O :   -0.201521
   2 C :   -0.103732
   3 C :    0.002476
   4 H :   -0.018757
   5 H :    0.041477
   6 H :    0.039454
   7 H :    0.041890
Sum of atomic charges:   -0.0000000

LOEWDIN ATOMIC CHARGES
----------------------
   0 C :   -0.023852
   1 O :   -0.006307
   2 C :   -0.068798
   3 C :   -0.022928
   4 H :   -0.006754
   5 H :    0.054290
   6 H :    0.040339
   7 H :    0.034011

  Mayer bond orders larger than 0.100000
B(  0-C ,  1-O ) :   2.1786 B(  0-C ,  2-C ) :   1.0479 B(  0-C ,  4-H ) :   0.9223
B(  2-C ,  3-C ) :   1.9765 B(  2-C ,  5-H ) :   0.9244 B(  3-C ,  6-H ) :   0.9417
B(  3-C ,  7-H ) :   0.9411

-----------------------------------------------------------------------------
         ABSORPTION SPECTRUM VIA TRANSITION ELECTRIC DIPOLE MOMENTS
-----------------------------------------------------------------------------
State   Energy    Wavelength  fosc         T2        TX        TY        TZ
        (cm-1)      (nm)                 (au**2)    (au)      (au)      (au)
-----------------------------------------------------------------------------
   1   29691.3    336.8   0.001614854   0.01791   0.12848   0.01577   0.03391

FINAL SINGLE POINT ENERGY      -191.652692937966

DIPOLE MOMENT
-------------
                                X             Y             Z
Electronic contribution:     -2.90429      -0.58017      -1.25683
Nuclear contribution   :      3.63051       0.99439       1.87538
                        -----------------------------------------
Total Dipole Moment    :      0.72622       0.41421       0.61856
                        -----------------------------------------
Magnitude (a.u.)       :      1.03999
Magnitude (Debye)      :      2.64345

Rotational constants in cm-1:     1.106619     0.165442     0.159393
Rotational constants in MHz : 33175.597465  4959.818537  4778.481757

                             ****ORCA TERMINATED NORMALLY****
TOTAL RUN TIME: 0 days 0 hours 3 minutes 22 seconds 847 msec
