                         Program Version 5.0.3 -  RELEASE  -
|  1> ! HF-3c
|  2> !TightSCF
|  3> %scf
|  4>  ConvForced true
|  5>  convergence tight
|  6>  MaxIter 500
|  7> end
|  8>
|  9> %tddft
| 10>  nroots 1
| 11> end
| 12>
| 13> # 	23564
| 14> * xyz 0 1
| 15> 		C   -0.592024  -0.381506  -0.051107
| 16> 		O   -0.560226  -1.656306   0.035184
| 17> 		C    0.626710   0.376154   0.028729
| 18> 		C    1.822399  -0.100280  -0.048424
| 19> 		H   -1.481483   0.108242  -0.049303
| 20> 		H    0.584174   1.602206   0.123446
| 21> 		H    1.866223  -1.269694  -0.093875
| 22> 		H    2.769478   0.362582   0.330851
| 23> *
| 24>
| 25>                          ****END OF INPUT****

CARTESIAN COORDINATES (ANGSTROEM)
---------------------------------
  C     -0.592024   -0.381506   -0.051107
  O     -0.560226   -1.656306    0.035184
  C      0.626710    0.376154    0.028729
  C      1.822399   -0.100280   -0.048424
  H     -1.481483    0.108242   -0.049303
  H      0.584174    1.602206    0.123446
  H      1.866223   -1.269694   -0.093875
  H      2.769478    0.362582    0.330851

 Total Charge           Charge          ....    0
 Multiplicity           Mult            ....    1
 Number of Electrons    NEL             ....   30
 Basis Dimension        Dim             ....   24

ORBITAL ENERGIES
----------------

  NO   OCC          E(Eh)            E(eV)
   0   2.0000     -20.351804      -553.8007
   1   2.0000     -11.288620      -307.1790
   2   2.0000     -11.188012      -304.4413
   3   2.0000     -11.183351      -304.3145
   4   2.0000      -1.360162       -37.0119
   5   2.0000      -1.082901       -29.4672
   6   2.0000      -0.905887       -24.6504
   7   2.0000      -0.744450       -20.2575
   8   2.0000      -0.684392       -18.6233
   9   2.0000      -0.608619       -16.5614
  10   2.0000      -0.582256       -15.8440
  11   2.0000      -0.523034       -14.2325
  12   2.0000      -0.479336       -13.0434
  13   2.0000      -0.428311       -11.6549
  14   2.0000      -0.388261       -10.5651
  15   0.0000       0.116622         3.1734
  16   0.0000       0.312776         8.5111
  17   0.0000       0.481062        13.0904
  18   0.0000       0.582492        15.8504
  19   0.0000       0.622310        16.9339

MULLIKEN ATOMIC CHARGES
-----------------------
   0 C :    0.123200
   1 O :   -0.331048
   2 C :   -0.170623
   3 C :   -0.212838
   4 H :    0.146226
   5 H :    0.140779
   6 H :    0.154058
   7 H :    0.150246
Sum of atomic charges:   -0.0000000

LOEWDIN ATOMIC CHARGES
----------------------
   0 C :    0.132600
   1 O :   -0.257718
   2 C :   -0.134399
   3 C :   -0.124351
   4 H :    0.076107
   5 H :    0.099443
   6 H :    0.106699
   7 H :    0.101621

  Mayer bond orders larger than 0.100000
B(  0-C ,  1-O ) :   1.8804 B(  0-C ,  2-C ) :   1.0604 B(  0-C ,  4-H ) :   0.9415
B(  2-C ,  3-C ) :   1.9382 B(  2-C ,  5-H ) :   0.9457 B(  3-C ,  6-H ) :   0.9488
B(  3-C ,  7-H ) :   0.9607

-----------------------------------------------------------------------------
         ABSORPTION SPECTRUM VIA TRANSITION ELECTRIC DIPOLE MOMENTS
-----------------------------------------------------------------------------
State   Energy    Wavelength  fosc         T2        TX        TY        TZ
        (cm-1)      (nm)                 (au**2)    (au)      (au)      (au)
-----------------------------------------------------------------------------
   1   28346.7    352.8   0.000015411   0.00018  -0.00196  -0.00668   0.01143

Dispersion correction           -0.025889328
FINAL SINGLE POINT ENERGY      -189.318540769978

DIPOLE MOMENT
-------------
                                X             Y             Z
Electronic contribution:     -2.02637      -1.59986      -0.25086
Nuclear contribution   :      2.34915       2.54077       0.29065
                        -----------------------------------------
Total Dipole Moment    :      0.32277       0.94090       0.03979
                        -----------------------------------------
Magnitude (a.u.)       :      0.99552
Magnitude (Debye)      :      2.53041

Rotational constants in cm-1:     0.750143     0.212720     0.166464
Rotational constants in MHz : 22488.720551  6377.198159  4990.471476

                             ****ORCA TERMINATED NORMALLY****
TOTAL RUN TIME: 0 days 0 hours 0 minutes 11 seconds 436 msec
