                         Program Version 5.0.3 -  RELEASE  -
|  1> ! HF-3c
|  2> !TightSCF
|  3> %scf
|  4>  ConvForced true
|  5>  convergence tight
|  6>  MaxIter 500
|  7> end
|  8>
|  9> %tddft
| 10>  nroots 1
| 11> end
| 12>
| 13> # 	23252
| 14> * xyz 0 1
| 15> 		C   -0.539906  -0.423510   0.012246
| 16> 		O   -0.586289  -1.681941  -0.006498
| 17> 		C    0.609892   0.471073   0.008242
| 18> 		C    1.836749  -0.130944   0.035410
| 19> 		H   -1.578637   0.269610  -0.079687
| 20> 		H    0.423040   1.570186  -0.125033
| 21> 		H    2.016696  -1.302820  -0.182764
| 22> 		H    2.708186   0.437577  -0.187211
| 23> *
| 24>
| 25>                          ****END OF INPUT****

CARTESIAN COORDINATES (ANGSTROEM)
---------------------------------
  C     -0.539906   -0.423510    0.012246
  O     -0.586289   -1.681941   -0.006498
  C      0.609892    0.471073    0.008242
  C      1.836749   -0.130944    0.035410
  H     -1.578637    0.269610   -0.079687
  H      0.423040    1.570186   -0.125033
  H      2.016696   -1.302820   -0.182764
  H      2.708186    0.437577   -0.187211

 Total Charge           Charge          ....    0
 Multiplicity           Mult            ....    1
 Number of Electrons    NEL             ....   30
 Basis Dimension        Dim             ....   24

ORBITAL ENERGIES
----------------

  NO   OCC          E(Eh)            E(eV)
   0   2.0000     -20.337754      -553.4184
   1   2.0000     -11.274917      -306.8061
   2   2.0000     -11.193223      -304.5831
   3   2.0000     -11.187818      -304.4360
   4   2.0000      -1.353266       -36.8242
   5   2.0000      -1.070505       -29.1299
   6   2.0000      -0.880397       -23.9568
   7   2.0000      -0.715924       -19.4813
   8   2.0000      -0.678316       -18.4579
   9   2.0000      -0.597545       -16.2600
  10   2.0000      -0.559390       -15.2218
  11   2.0000      -0.521534       -14.1917
  12   2.0000      -0.512303       -13.9405
  13   2.0000      -0.392480       -10.6799
  14   2.0000      -0.378672       -10.3042
  15   0.0000       0.117132         3.1873
  16   0.0000       0.299876         8.1600
  17   0.0000       0.477684        12.9984
  18   0.0000       0.542705        14.7678
  19   0.0000       0.586916        15.9708

MULLIKEN ATOMIC CHARGES
-----------------------
   0 C :    0.172146
   1 O :   -0.364370
   2 C :   -0.188234
   3 C :   -0.192447
   4 H :    0.117319
   5 H :    0.149908
   6 H :    0.169138
   7 H :    0.136541
Sum of atomic charges:   -0.0000000

LOEWDIN ATOMIC CHARGES
----------------------
   0 C :    0.153172
   1 O :   -0.285508
   2 C :   -0.146083
   3 C :   -0.098074
   4 H :    0.068689
   5 H :    0.100140
   6 H :    0.122824
   7 H :    0.084840

  Mayer bond orders larger than 0.100000
B(  0-C ,  1-O ) :   1.8860 B(  0-C ,  2-C ) :   1.0549 B(  0-C ,  4-H ) :   0.9137
B(  2-C ,  3-C ) :   1.9102 B(  2-C ,  5-H ) :   0.9566 B(  3-C ,  6-H ) :   0.9532
B(  3-C ,  7-H ) :   0.9672

-----------------------------------------------------------------------------
         ABSORPTION SPECTRUM VIA TRANSITION ELECTRIC DIPOLE MOMENTS
-----------------------------------------------------------------------------
State   Energy    Wavelength  fosc         T2        TX        TY        TZ
        (cm-1)      (nm)                 (au**2)    (au)      (au)      (au)
-----------------------------------------------------------------------------
   1   30084.8    332.4   0.000022469   0.00025   0.00737  -0.00132   0.01378

Dispersion correction           -0.025270870
FINAL SINGLE POINT ENERGY      -189.315710899228

DIPOLE MOMENT
-------------
                                X             Y             Z
Electronic contribution:     -1.72287      -1.70689       0.40889
Nuclear contribution   :      2.18951       2.69902      -0.53846
                        -----------------------------------------
Total Dipole Moment    :      0.46664       0.99213      -0.12958
                        -----------------------------------------
Magnitude (a.u.)       :      1.10403
Magnitude (Debye)      :      2.80621

Rotational constants in cm-1:     0.692678     0.209042     0.160916
Rotational constants in MHz : 20765.949608  6266.923538  4824.149206

                             ****ORCA TERMINATED NORMALLY****
TOTAL RUN TIME: 0 days 0 hours 0 minutes 12 seconds 175 msec
