                         Program Version 5.0.3 -  RELEASE  -
|  1> ! B3LYP cc-pVDZ
|  2> !TightSCF
|  3> %scf
|  4>  ConvForced true
|  5>  convergence tight
|  6>  MaxIter 500
|  7> end
|  8>
|  9> %tddft
| 10>  nroots 1
| 11> end
| 12>
| 13> # 	11605
| 14> * xyz 0 1
| 15> 		C   -1.238168  -0.338396   0.047005
| 16> 		O   -1.332953  -1.316274   0.643651
| 17> 		C    0.044858   0.501116   0.075336
| 18> 		C    1.222182  -0.020831  -0.158211
| 19> 		H   -1.986089  -0.001866  -0.734299
| 20> 		H   -0.054629   1.546170   0.603078
| 21> 		H    1.353592  -1.075698  -0.315752
| 22> 		H    2.016165   0.688008  -0.136547
| 23> *
| 24>
| 25>                          ****END OF INPUT****

CARTESIAN COORDINATES (ANGSTROEM)
---------------------------------
  C     -1.238168   -0.338396    0.047005
  O     -1.332953   -1.316274    0.643651
  C      0.044858    0.501116    0.075336
  C      1.222182   -0.020831   -0.158211
  H     -1.986089   -0.001866   -0.734299
  H     -0.054629    1.546170    0.603078
  H      1.353592   -1.075698   -0.315752
  H      2.016165    0.688008   -0.136547

 Total Charge           Charge          ....    0
 Multiplicity           Mult            ....    1
 Number of Electrons    NEL             ....   30
 Basis Dimension        Dim             ....   76

ORBITAL ENERGIES
----------------

  NO   OCC          E(Eh)            E(eV)
   0   2.0000     -19.146421      -521.0006
   1   2.0000     -10.278201      -279.6841
   2   2.0000     -10.202772      -277.6315
   3   2.0000     -10.194541      -277.4076
   4   2.0000      -1.088594       -29.6221
   5   2.0000      -0.790659       -21.5149
   6   2.0000      -0.641492       -17.4559
   7   2.0000      -0.542079       -14.7507
   8   2.0000      -0.501773       -13.6539
   9   2.0000      -0.457880       -12.4595
  10   2.0000      -0.445791       -12.1306
  11   2.0000      -0.403771       -10.9872
  12   2.0000      -0.382937       -10.4202
  13   2.0000      -0.288722        -7.8565
  14   2.0000      -0.249491        -6.7890
  15   0.0000      -0.030769        -0.8373
  16   0.0000       0.009225         0.2510
  17   0.0000       0.078403         2.1335
  18   0.0000       0.095233         2.5914
  19   0.0000       0.102414         2.7868

MULLIKEN ATOMIC CHARGES
-----------------------
   0 C :    0.156222
   1 O :   -0.125731
   2 C :   -0.172852
   3 C :    0.092422
   4 H :   -0.019877
   5 H :    0.032126
   6 H :    0.019581
   7 H :    0.018109
Sum of atomic charges:    0.0000000

LOEWDIN ATOMIC CHARGES
----------------------
   0 C :   -0.061161
   1 O :    0.068122
   2 C :   -0.078503
   3 C :   -0.018589
   4 H :   -0.011675
   5 H :    0.045175
   6 H :    0.027431
   7 H :    0.029201

  Mayer bond orders larger than 0.100000
B(  0-C ,  1-O ) :   2.2960 B(  0-C ,  2-C ) :   0.9592 B(  0-C ,  4-H ) :   0.8987
B(  2-C ,  3-C ) :   2.0482 B(  2-C ,  5-H ) :   0.9265 B(  3-C ,  6-H ) :   0.9426
B(  3-C ,  7-H ) :   0.9345

-----------------------------------------------------------------------------
         ABSORPTION SPECTRUM VIA TRANSITION ELECTRIC DIPOLE MOMENTS
-----------------------------------------------------------------------------
State   Energy    Wavelength  fosc         T2        TX        TY        TZ
        (cm-1)      (nm)                 (au**2)    (au)      (au)      (au)
-----------------------------------------------------------------------------
   1   34449.0    290.3   0.001417944   0.01355   0.11505  -0.00122   0.01767

FINAL SINGLE POINT ENERGY      -191.625004276770

DIPOLE MOMENT
-------------
                                X             Y             Z
Electronic contribution:     -2.27041      -1.66811       0.86708
Nuclear contribution   :      2.54693       2.28794      -1.16146
                        -----------------------------------------
Total Dipole Moment    :      0.27652       0.61982      -0.29438
                        -----------------------------------------
Magnitude (a.u.)       :      0.73980
Magnitude (Debye)      :      1.88042

Rotational constants in cm-1:     0.843321     0.192096     0.166047
Rotational constants in MHz : 25282.115777  5758.891246  4977.952728

                             ****ORCA TERMINATED NORMALLY****
TOTAL RUN TIME: 0 days 0 hours 3 minutes 20 seconds 317 msec
