                         Program Version 5.0.3 -  RELEASE  -
|  1> ! B3LYP cc-pVDZ
|  2> !TightSCF
|  3> %scf
|  4>  ConvForced true
|  5>  convergence tight
|  6>  MaxIter 500
|  7> end
|  8>
|  9> %tddft
| 10>  nroots 1
| 11> end
| 12>
| 13> # 	7276
| 14> * xyz 0 1
| 15> 		C   -1.147633  -0.428230   0.061052
| 16> 		O   -1.959203  -0.636885   1.015210
| 17> 		C    0.093019   0.388848   0.262347
| 18> 		C    1.182330   0.140311  -0.358665
| 19> 		H   -1.377336  -0.766456  -0.997371
| 20> 		H    0.165760   1.331024   1.059444
| 21> 		H    1.122944  -0.701091  -0.749899
| 22> 		H    1.897492   0.662379  -0.276194
| 23> *
| 24>
| 25>                          ****END OF INPUT****

CARTESIAN COORDINATES (ANGSTROEM)
---------------------------------
  C     -1.147633   -0.428230    0.061052
  O     -1.959203   -0.636885    1.015210
  C      0.093019    0.388848    0.262347
  C      1.182330    0.140311   -0.358665
  H     -1.377336   -0.766456   -0.997371
  H      0.165760    1.331024    1.059444
  H      1.122944   -0.701091   -0.749899
  H      1.897492    0.662379   -0.276194

 Total Charge           Charge          ....    0
 Multiplicity           Mult            ....    1
 Number of Electrons    NEL             ....   30
 Basis Dimension        Dim             ....   76

ORBITAL ENERGIES
----------------

  NO   OCC          E(Eh)            E(eV)
   0   2.0000     -19.144360      -520.9445
   1   2.0000     -10.288780      -279.9719
   2   2.0000     -10.213423      -277.9214
   3   2.0000     -10.170987      -276.7666
   4   2.0000      -1.018125       -27.7046
   5   2.0000      -0.828200       -22.5365
   6   2.0000      -0.662153       -18.0181
   7   2.0000      -0.563882       -15.3440
   8   2.0000      -0.522915       -14.2292
   9   2.0000      -0.472053       -12.8452
  10   2.0000      -0.423404       -11.5214
  11   2.0000      -0.387078       -10.5329
  12   2.0000      -0.368108       -10.0167
  13   2.0000      -0.297749        -8.1022
  14   2.0000      -0.258926        -7.0457
  15   0.0000      -0.069485        -1.8908
  16   0.0000       0.025987         0.7071
  17   0.0000       0.067569         1.8387
  18   0.0000       0.091193         2.4815
  19   0.0000       0.131781         3.5860

MULLIKEN ATOMIC CHARGES
-----------------------
   0 C :    0.175976
   1 O :   -0.228473
   2 C :   -0.223620
   3 C :    0.387869
   4 H :    0.017124
   5 H :    0.034017
   6 H :   -0.070660
   7 H :   -0.092234
Sum of atomic charges:   -0.0000000

LOEWDIN ATOMIC CHARGES
----------------------
   0 C :    0.004998
   1 O :   -0.046519
   2 C :   -0.037808
   3 C :    0.048966
   4 H :    0.011069
   5 H :    0.057069
   6 H :   -0.007656
   7 H :   -0.030119

  Mayer bond orders larger than 0.100000
B(  0-C ,  1-O ) :   2.1198 B(  0-C ,  2-C ) :   1.0273 B(  0-C ,  4-H ) :   0.9185
B(  2-C ,  3-C ) :   1.9797 B(  2-C ,  5-H ) :   0.9342 B(  3-C ,  6-H ) :   0.9177
B(  3-C ,  7-H ) :   0.9011

-----------------------------------------------------------------------------
         ABSORPTION SPECTRUM VIA TRANSITION ELECTRIC DIPOLE MOMENTS
-----------------------------------------------------------------------------
State   Energy    Wavelength  fosc         T2        TX        TY        TZ
        (cm-1)      (nm)                 (au**2)    (au)      (au)      (au)
-----------------------------------------------------------------------------
   1   27506.7    363.5   0.001163346   0.01392   0.11471   0.02762  -0.00163

FINAL SINGLE POINT ENERGY      -191.587125402494

DIPOLE MOMENT
-------------
                                X             Y             Z
Electronic contribution:     -2.67750      -0.80699       1.21161
Nuclear contribution   :      3.54884       1.05158      -1.88713
                        -----------------------------------------
Total Dipole Moment    :      0.87134       0.24459      -0.67552
                        -----------------------------------------
Magnitude (a.u.)       :      1.12933
Magnitude (Debye)      :      2.87053

Rotational constants in cm-1:     1.393390     0.156782     0.146024
Rotational constants in MHz : 41772.794117  4700.192536  4377.678433

                             ****ORCA TERMINATED NORMALLY****
TOTAL RUN TIME: 0 days 0 hours 3 minutes 27 seconds 820 msec
