                         Program Version 5.0.3 -  RELEASE  -
|  1> ! B3LYP cc-pVDZ
|  2> !TightSCF
|  3> %scf
|  4>  ConvForced true
|  5>  convergence tight
|  6>  MaxIter 500
|  7> end
|  8>
|  9> %tddft
| 10>  nroots 1
| 11> end
| 12>
| 13> # 	18069
| 14> * xyz 0 1
| 15> 		C   -1.181812  -0.285628   0.032474
| 16> 		O   -1.646917  -1.038603  -0.802413
| 17> 		C    0.018719   0.515774  -0.246287
| 18> 		C    1.202858  -0.006717   0.072002
| 19> 		H   -1.745738  -0.178891   1.050074
| 20> 		H   -0.065198   1.388866  -0.894121
| 21> 		H    1.237754  -1.000932   0.750705
| 22> 		H    2.119895   0.566834  -0.002088
| 23> *
| 24>
| 25>                          ****END OF INPUT****

CARTESIAN COORDINATES (ANGSTROEM)
---------------------------------
  C     -1.181812   -0.285628    0.032474
  O     -1.646917   -1.038603   -0.802413
  C      0.018719    0.515774   -0.246287
  C      1.202858   -0.006717    0.072002
  H     -1.745738   -0.178891    1.050074
  H     -0.065198    1.388866   -0.894121
  H      1.237754   -1.000932    0.750705
  H      2.119895    0.566834   -0.002088

 Total Charge           Charge          ....    0
 Multiplicity           Mult            ....    1
 Number of Electrons    NEL             ....   30
 Basis Dimension        Dim             ....   76

ORBITAL ENERGIES
----------------

  NO   OCC          E(Eh)            E(eV)
   0   2.0000     -19.144569      -520.9502
   1   2.0000     -10.285095      -279.8717
   2   2.0000     -10.213720      -277.9295
   3   2.0000     -10.207808      -277.7686
   4   2.0000      -1.049094       -28.5473
   5   2.0000      -0.797951       -21.7133
   6   2.0000      -0.642069       -17.4716
   7   2.0000      -0.553332       -15.0569
   8   2.0000      -0.493190       -13.4204
   9   2.0000      -0.457200       -12.4410
  10   2.0000      -0.437842       -11.9143
  11   2.0000      -0.381845       -10.3905
  12   2.0000      -0.372861       -10.1461
  13   2.0000      -0.289895        -7.8885
  14   2.0000      -0.254303        -6.9199
  15   0.0000      -0.040114        -1.0916
  16   0.0000      -0.009654        -0.2627
  17   0.0000       0.075996         2.0680
  18   0.0000       0.087249         2.3742
  19   0.0000       0.089313         2.4303

MULLIKEN ATOMIC CHARGES
-----------------------
   0 C :    0.142405
   1 O :   -0.183048
   2 C :   -0.047445
   3 C :   -0.015519
   4 H :    0.001010
   5 H :    0.025576
   6 H :    0.044142
   7 H :    0.032879
Sum of atomic charges:   -0.0000000

LOEWDIN ATOMIC CHARGES
----------------------
   0 C :   -0.020559
   1 O :    0.003100
   2 C :   -0.062400
   3 C :   -0.034596
   4 H :    0.001375
   5 H :    0.039841
   6 H :    0.045914
   7 H :    0.027326

  Mayer bond orders larger than 0.100000
B(  0-C ,  1-O ) :   2.2176 B(  0-C ,  2-C ) :   0.9812 B(  0-C ,  4-H ) :   0.9092
B(  2-C ,  3-C ) :   2.0196 B(  2-C ,  5-H ) :   0.9364 B(  3-C ,  6-H ) :   0.9429
B(  3-C ,  7-H ) :   0.9444

-----------------------------------------------------------------------------
         ABSORPTION SPECTRUM VIA TRANSITION ELECTRIC DIPOLE MOMENTS
-----------------------------------------------------------------------------
State   Energy    Wavelength  fosc         T2        TX        TY        TZ
        (cm-1)      (nm)                 (au**2)    (au)      (au)      (au)
-----------------------------------------------------------------------------
   1   32127.1    311.3   0.000925173   0.00948  -0.09691   0.00715  -0.00614

FINAL SINGLE POINT ENERGY      -191.639365252859

DIPOLE MOMENT
-------------
                                X             Y             Z
Electronic contribution:     -2.55485      -0.96200      -1.25751
Nuclear contribution   :      3.06052       1.59629       1.75267
                        -----------------------------------------
Total Dipole Moment    :      0.50567       0.63429       0.49516
                        -----------------------------------------
Magnitude (a.u.)       :      0.95037
Magnitude (Debye)      :      2.41565

Rotational constants in cm-1:     0.921802     0.174194     0.166694
Rotational constants in MHz : 27634.929081  5222.200107  4997.356389

                             ****ORCA TERMINATED NORMALLY****
TOTAL RUN TIME: 0 days 0 hours 3 minutes 20 seconds 905 msec
