                         Program Version 5.0.3 -  RELEASE  -
|  1> ! HF-3c
|  2> !TightSCF
|  3> %scf
|  4>  ConvForced true
|  5>  convergence tight
|  6>  MaxIter 500
|  7> end
|  8>
|  9> %tddft
| 10>  nroots 1
| 11> end
| 12>
| 13> # 	8446
| 14> * xyz 0 1
| 15> 		C   -1.223389  -0.345722  -0.011612
| 16> 		O   -1.554118  -1.099640  -0.823214
| 17> 		C    0.019240   0.503462  -0.165066
| 18> 		C    1.191032   0.070237   0.144504
| 19> 		H   -1.856835  -0.299064   0.856968
| 20> 		H    0.048328   1.568286  -0.638081
| 21> 		H    1.276537  -1.026255   0.577197
| 22> 		H    2.077587   0.625748   0.079366
| 23> *
| 24>
| 25>                          ****END OF INPUT****

CARTESIAN COORDINATES (ANGSTROEM)
---------------------------------
  C     -1.223389   -0.345722   -0.011612
  O     -1.554118   -1.099640   -0.823214
  C      0.019240    0.503462   -0.165066
  C      1.191032    0.070237    0.144504
  H     -1.856835   -0.299064    0.856968
  H      0.048328    1.568286   -0.638081
  H      1.276537   -1.026255    0.577197
  H      2.077587    0.625748    0.079366

 Total Charge           Charge          ....    0
 Multiplicity           Mult            ....    1
 Number of Electrons    NEL             ....   30
 Basis Dimension        Dim             ....   24

ORBITAL ENERGIES
----------------

  NO   OCC          E(Eh)            E(eV)
   0   2.0000     -20.393771      -554.9427
   1   2.0000     -11.318372      -307.9885
   2   2.0000     -11.186906      -304.4112
   3   2.0000     -11.175845      -304.1102
   4   2.0000      -1.455084       -39.5948
   5   2.0000      -1.082474       -29.4556
   6   2.0000      -0.872774       -23.7494
   7   2.0000      -0.767692       -20.8900
   8   2.0000      -0.692926       -18.8555
   9   2.0000      -0.646274       -17.5860
  10   2.0000      -0.614758       -16.7284
  11   2.0000      -0.545524       -14.8445
  12   2.0000      -0.505446       -13.7539
  13   2.0000      -0.417386       -11.3576
  14   2.0000      -0.410140       -11.1605
  15   0.0000       0.204587         5.5671
  16   0.0000       0.234948         6.3932
  17   0.0000       0.516210        14.0468
  18   0.0000       0.557141        15.1606
  19   0.0000       0.653369        17.7791

MULLIKEN ATOMIC CHARGES
-----------------------
   0 C :    0.176856
   1 O :   -0.346264
   2 C :   -0.164161
   3 C :   -0.241976
   4 H :    0.143503
   5 H :    0.155975
   6 H :    0.136357
   7 H :    0.139710
Sum of atomic charges:   -0.0000000

LOEWDIN ATOMIC CHARGES
----------------------
   0 C :    0.147938
   1 O :   -0.231974
   2 C :   -0.125394
   3 C :   -0.155403
   4 H :    0.074447
   5 H :    0.109330
   6 H :    0.093966
   7 H :    0.087090

  Mayer bond orders larger than 0.100000
B(  0-C ,  1-O ) :   1.9530 B(  0-C ,  2-C ) :   0.9702 B(  0-C ,  4-H ) :   0.9195
B(  2-C ,  3-C ) :   2.0124 B(  2-C ,  5-H ) :   0.9416 B(  3-C ,  6-H ) :   0.9596
B(  3-C ,  7-H ) :   0.9641

-----------------------------------------------------------------------------
         ABSORPTION SPECTRUM VIA TRANSITION ELECTRIC DIPOLE MOMENTS
-----------------------------------------------------------------------------
State   Energy    Wavelength  fosc         T2        TX        TY        TZ
        (cm-1)      (nm)                 (au**2)    (au)      (au)      (au)
-----------------------------------------------------------------------------
   1   37354.9    267.7   0.000075335   0.00066   0.01938   0.01537  -0.00722

Dispersion correction           -0.025190082
FINAL SINGLE POINT ENERGY      -189.292115406900

DIPOLE MOMENT
-------------
                                X             Y             Z
Electronic contribution:     -2.62773      -1.16043      -1.07303
Nuclear contribution   :      3.00385       1.73815       1.66088
                        -----------------------------------------
Total Dipole Moment    :      0.37612       0.57772       0.58785
                        -----------------------------------------
Magnitude (a.u.)       :      0.90598
Magnitude (Debye)      :      2.30283

Rotational constants in cm-1:     0.982922     0.175275     0.164873
Rotational constants in MHz : 29467.248505  5254.618860  4942.768784

                             ****ORCA TERMINATED NORMALLY****
TOTAL RUN TIME: 0 days 0 hours 0 minutes 12 seconds 910 msec
