                         Program Version 5.0.3 -  RELEASE  -
|  1> ! B3LYP cc-pVDZ
|  2> !TightSCF
|  3> %scf
|  4>  ConvForced true
|  5>  convergence tight
|  6>  MaxIter 500
|  7> end
|  8>
|  9> %tddft
| 10>  nroots 1
| 11> end
| 12>
| 13> # 	24878
| 14> * xyz 0 1
| 15> 		C   -0.593879  -0.421620   0.013424
| 16> 		O   -0.602253  -1.684186  -0.019161
| 17> 		C    0.595287   0.404090   0.013104
| 18> 		C    1.914414  -0.077263  -0.029960
| 19> 		H   -1.482962   0.346222   0.191955
| 20> 		H    0.398705   1.472640  -0.247202
| 21> 		H    2.017245  -1.203810   0.231335
| 22> 		H    2.739629   0.525701   0.160489
| 23> *
| 24>
| 25>                          ****END OF INPUT****

CARTESIAN COORDINATES (ANGSTROEM)
---------------------------------
  C     -0.593879   -0.421620    0.013424
  O     -0.602253   -1.684186   -0.019161
  C      0.595287    0.404090    0.013104
  C      1.914414   -0.077263   -0.029960
  H     -1.482962    0.346222    0.191955
  H      0.398705    1.472640   -0.247202
  H      2.017245   -1.203810    0.231335
  H      2.739629    0.525701    0.160489

 Total Charge           Charge          ....    0
 Multiplicity           Mult            ....    1
 Number of Electrons    NEL             ....   30
 Basis Dimension        Dim             ....   76

ORBITAL ENERGIES
----------------

  NO   OCC          E(Eh)            E(eV)
   0   2.0000     -19.145625      -520.9790
   1   2.0000     -10.285696      -279.8880
   2   2.0000     -10.228486      -278.3312
   3   2.0000     -10.217598      -278.0350
   4   2.0000      -1.020817       -27.7778
   5   2.0000      -0.789737       -21.4898
   6   2.0000      -0.671859       -18.2822
   7   2.0000      -0.533636       -14.5210
   8   2.0000      -0.498169       -13.5559
   9   2.0000      -0.441023       -12.0009
  10   2.0000      -0.419517       -11.4156
  11   2.0000      -0.389879       -10.6091
  12   2.0000      -0.372522       -10.1368
  13   2.0000      -0.283691        -7.7196
  14   2.0000      -0.259803        -7.0696
  15   0.0000      -0.092629        -2.5206
  16   0.0000       0.040961         1.1146
  17   0.0000       0.062559         1.7023
  18   0.0000       0.083297         2.2666
  19   0.0000       0.116742         3.1767

MULLIKEN ATOMIC CHARGES
-----------------------
   0 C :    0.172195
   1 O :   -0.224133
   2 C :   -0.115908
   3 C :    0.052147
   4 H :    0.000302
   5 H :    0.013834
   6 H :    0.066648
   7 H :    0.034915
Sum of atomic charges:   -0.0000000

LOEWDIN ATOMIC CHARGES
----------------------
   0 C :   -0.025764
   1 O :   -0.045546
   2 C :   -0.079391
   3 C :    0.038136
   4 H :    0.008406
   5 H :    0.034194
   6 H :    0.052017
   7 H :    0.017948

  Mayer bond orders larger than 0.100000
B(  0-C ,  1-O ) :   2.1244 B(  0-C ,  2-C ) :   1.1026 B(  0-C ,  4-H ) :   0.8962
B(  1-O ,  3-C ) :   0.1097 B(  2-C ,  3-C ) :   1.9028 B(  2-C ,  5-H ) :   0.9417
B(  3-C ,  6-H ) :   0.9415 B(  3-C ,  7-H ) :   0.9462

-----------------------------------------------------------------------------
         ABSORPTION SPECTRUM VIA TRANSITION ELECTRIC DIPOLE MOMENTS
-----------------------------------------------------------------------------
State   Energy    Wavelength  fosc         T2        TX        TY        TZ
        (cm-1)      (nm)                 (au**2)    (au)      (au)      (au)
-----------------------------------------------------------------------------
   1   24308.3    411.4   0.000303914   0.00412  -0.05434   0.00637   0.03350

FINAL SINGLE POINT ENERGY      -191.671590461312

DIPOLE MOMENT
-------------
                                X             Y             Z
Electronic contribution:     -1.76945      -1.89221      -0.25113
Nuclear contribution   :      2.28905       2.85528       0.31606
                        -----------------------------------------
Total Dipole Moment    :      0.51960       0.96307       0.06492
                        -----------------------------------------
Magnitude (a.u.)       :      1.09622
Magnitude (Debye)      :      2.78637

Rotational constants in cm-1:     0.718489     0.198910     0.156359
Rotational constants in MHz : 21539.773038  5963.171057  4687.522654

                             ****ORCA TERMINATED NORMALLY****
TOTAL RUN TIME: 0 days 0 hours 3 minutes 22 seconds 119 msec
