                         Program Version 5.0.3 -  RELEASE  -
|  1> ! B3LYP cc-pVDZ
|  2> !TightSCF
|  3> %scf
|  4>  ConvForced true
|  5>  convergence tight
|  6>  MaxIter 500
|  7> end
|  8>
|  9> %tddft
| 10>  nroots 1
| 11> end
| 12>
| 13> # 	25939
| 14> * xyz 0 1
| 15> 		C   -0.620708  -0.465190   0.082701
| 16> 		O   -0.581383  -1.641001  -0.047470
| 17> 		C    0.586501   0.434719   0.023506
| 18> 		C    1.908848  -0.109744  -0.008186
| 19> 		H   -1.640631   0.276579  -0.143338
| 20> 		H    0.499359   1.448794  -0.393189
| 21> 		H    2.182985  -1.174552   0.231611
| 22> 		H    2.782802   0.451083  -0.136046
| 23> *
| 24>
| 25>                          ****END OF INPUT****

CARTESIAN COORDINATES (ANGSTROEM)
---------------------------------
  C     -0.620708   -0.465190    0.082701
  O     -0.581383   -1.641001   -0.047470
  C      0.586501    0.434719    0.023506
  C      1.908848   -0.109744   -0.008186
  H     -1.640631    0.276579   -0.143338
  H      0.499359    1.448794   -0.393189
  H      2.182985   -1.174552    0.231611
  H      2.782802    0.451083   -0.136046

 Total Charge           Charge          ....    0
 Multiplicity           Mult            ....    1
 Number of Electrons    NEL             ....   30
 Basis Dimension        Dim             ....   76

ORBITAL ENERGIES
----------------

  NO   OCC          E(Eh)            E(eV)
   0   2.0000     -19.151516      -521.1392
   1   2.0000     -10.292614      -280.0763
   2   2.0000     -10.224930      -278.2345
   3   2.0000     -10.219375      -278.0833
   4   2.0000      -1.069774       -29.1100
   5   2.0000      -0.774700       -21.0807
   6   2.0000      -0.652674       -17.7602
   7   2.0000      -0.536785       -14.6067
   8   2.0000      -0.492988       -13.4149
   9   2.0000      -0.453047       -12.3280
  10   2.0000      -0.416702       -11.3390
  11   2.0000      -0.410573       -11.1722
  12   2.0000      -0.384433       -10.4609
  13   2.0000      -0.280270        -7.6265
  14   2.0000      -0.256794        -6.9877
  15   0.0000      -0.077997        -2.1224
  16   0.0000       0.029874         0.8129
  17   0.0000       0.060847         1.6557
  18   0.0000       0.085421         2.3244
  19   0.0000       0.112993         3.0747

MULLIKEN ATOMIC CHARGES
-----------------------
   0 C :    0.139470
   1 O :   -0.144117
   2 C :   -0.113182
   3 C :    0.035863
   4 H :   -0.020255
   5 H :    0.021685
   6 H :    0.053416
   7 H :    0.027120
Sum of atomic charges:   -0.0000000

LOEWDIN ATOMIC CHARGES
----------------------
   0 C :   -0.065031
   1 O :    0.035937
   2 C :   -0.085909
   3 C :    0.037046
   4 H :   -0.009974
   5 H :    0.033468
   6 H :    0.038466
   7 H :    0.015997

  Mayer bond orders larger than 0.100000
B(  0-C ,  1-O ) :   2.2318 B(  0-C ,  2-C ) :   1.0177 B(  0-C ,  4-H ) :   0.8691
B(  2-C ,  3-C ) :   1.9214 B(  2-C ,  5-H ) :   0.9435 B(  3-C ,  6-H ) :   0.9587
B(  3-C ,  7-H ) :   0.9565

-----------------------------------------------------------------------------
         ABSORPTION SPECTRUM VIA TRANSITION ELECTRIC DIPOLE MOMENTS
-----------------------------------------------------------------------------
State   Energy    Wavelength  fosc         T2        TX        TY        TZ
        (cm-1)      (nm)                 (au**2)    (au)      (au)      (au)
-----------------------------------------------------------------------------
   1   27812.0    359.6   0.000763770   0.00904  -0.07522  -0.04822   0.03254

FINAL SINGLE POINT ENERGY      -191.649596783487

DIPOLE MOMENT
-------------
                                X             Y             Z
Electronic contribution:     -1.90079      -1.98675       0.39012
Nuclear contribution   :      2.43238       2.72529      -0.41261
                        -----------------------------------------
Total Dipole Moment    :      0.53158       0.73854      -0.02249
                        -----------------------------------------
Magnitude (a.u.)       :      0.91024
Magnitude (Debye)      :      2.31364

Rotational constants in cm-1:     0.709126     0.200122     0.157167
Rotational constants in MHz : 21259.057783  5999.497130  4711.736530

                             ****ORCA TERMINATED NORMALLY****
TOTAL RUN TIME: 0 days 0 hours 3 minutes 23 seconds 234 msec
