                         Program Version 5.0.3 -  RELEASE  -
|  1> ! HF-3c
|  2> !TightSCF
|  3> %scf
|  4>  ConvForced true
|  5>  convergence tight
|  6>  MaxIter 500
|  7> end
|  8>
|  9> %tddft
| 10>  nroots 1
| 11> end
| 12>
| 13> # 	8400
| 14> * xyz 0 1
| 15> 		C   -1.103977  -0.309564   0.012764
| 16> 		O   -1.128806  -1.531865   0.049763
| 17> 		C   -0.001705   0.567025   0.027755
| 18> 		C    1.285815  -0.053693   0.046649
| 19> 		H   -2.126506   0.296836  -0.050234
| 20> 		H   -0.193960   1.609018   0.199541
| 21> 		H    1.330360  -1.195230  -0.094749
| 22> 		H    2.014858   0.601407  -0.259513
| 23> *
| 24>
| 25>                          ****END OF INPUT****

CARTESIAN COORDINATES (ANGSTROEM)
---------------------------------
  C     -1.103977   -0.309564    0.012764
  O     -1.128806   -1.531865    0.049763
  C     -0.001705    0.567025    0.027755
  C      1.285815   -0.053693    0.046649
  H     -2.126506    0.296836   -0.050234
  H     -0.193960    1.609018    0.199541
  H      1.330360   -1.195230   -0.094749
  H      2.014858    0.601407   -0.259513

 Total Charge           Charge          ....    0
 Multiplicity           Mult            ....    1
 Number of Electrons    NEL             ....   30
 Basis Dimension        Dim             ....   24

ORBITAL ENERGIES
----------------

  NO   OCC          E(Eh)            E(eV)
   0   2.0000     -20.342328      -553.5429
   1   2.0000     -11.281771      -306.9926
   2   2.0000     -11.197976      -304.7124
   3   2.0000     -11.184568      -304.3476
   4   2.0000      -1.380428       -37.5634
   5   2.0000      -1.072525       -29.1849
   6   2.0000      -0.899778       -24.4842
   7   2.0000      -0.724997       -19.7282
   8   2.0000      -0.700739       -19.0681
   9   2.0000      -0.600776       -16.3479
  10   2.0000      -0.574049       -15.6207
  11   2.0000      -0.546983       -14.8842
  12   2.0000      -0.529559       -14.4100
  13   2.0000      -0.397829       -10.8255
  14   2.0000      -0.367064        -9.9883
  15   0.0000       0.101564         2.7637
  16   0.0000       0.304049         8.2736
  17   0.0000       0.546567        14.8728
  18   0.0000       0.585567        15.9341
  19   0.0000       0.648640        17.6504

MULLIKEN ATOMIC CHARGES
-----------------------
   0 C :    0.163324
   1 O :   -0.370429
   2 C :   -0.184424
   3 C :   -0.195440
   4 H :    0.118591
   5 H :    0.146293
   6 H :    0.175305
   7 H :    0.146780
Sum of atomic charges:   -0.0000000

LOEWDIN ATOMIC CHARGES
----------------------
   0 C :    0.143227
   1 O :   -0.282611
   2 C :   -0.141807
   3 C :   -0.091065
   4 H :    0.064065
   5 H :    0.093119
   6 H :    0.123856
   7 H :    0.091214

  Mayer bond orders larger than 0.100000
B(  0-C ,  1-O ) :   1.8648 B(  0-C ,  2-C ) :   1.0856 B(  0-C ,  4-H ) :   0.9164
B(  2-C ,  3-C ) :   1.8730 B(  2-C ,  5-H ) :   0.9623 B(  3-C ,  6-H ) :   0.9543
B(  3-C ,  7-H ) :   0.9685

-----------------------------------------------------------------------------
         ABSORPTION SPECTRUM VIA TRANSITION ELECTRIC DIPOLE MOMENTS
-----------------------------------------------------------------------------
State   Energy    Wavelength  fosc         T2        TX        TY        TZ
        (cm-1)      (nm)                 (au**2)    (au)      (au)      (au)
-----------------------------------------------------------------------------
   1   30316.2    329.9   0.000086922   0.00094  -0.02211  -0.00385  -0.02099

Dispersion correction           -0.025990276
FINAL SINGLE POINT ENERGY      -189.311477045309

DIPOLE MOMENT
-------------
                                X             Y             Z
Electronic contribution:     -1.49121      -1.65734       0.21686
Nuclear contribution   :      1.94351       2.60187      -0.30152
                        -----------------------------------------
Total Dipole Moment    :      0.45230       0.94454      -0.08466
                        -----------------------------------------
Magnitude (a.u.)       :      1.05066
Magnitude (Debye)      :      2.67057

Rotational constants in cm-1:     0.700229     0.218771     0.167170
Rotational constants in MHz : 20992.322828  6558.588879  5011.633632

                             ****ORCA TERMINATED NORMALLY****
TOTAL RUN TIME: 0 days 0 hours 0 minutes 8 seconds 559 msec
