                         Program Version 5.0.3 -  RELEASE  -
|  1> ! B3LYP cc-pVDZ
|  2> !TightSCF
|  3> %scf
|  4>  ConvForced true
|  5>  convergence tight
|  6>  MaxIter 500
|  7> end
|  8>
|  9> %tddft
| 10>  nroots 1
| 11> end
| 12>
| 13> # 	23710
| 14> * xyz 0 1
| 15> 		C   -0.543429  -0.424556   0.060071
| 16> 		O   -0.639519  -1.663140  -0.021507
| 17> 		C    0.695803   0.356445  -0.039780
| 18> 		C    1.817594  -0.062995   0.026262
| 19> 		H   -1.443048   0.228867  -0.184744
| 20> 		H    0.389944   1.471661   0.107053
| 21> 		H    2.060612  -1.116212   0.064606
| 22> 		H    2.657624   0.651626  -0.205569
| 23> *
| 24>
| 25>                          ****END OF INPUT****

CARTESIAN COORDINATES (ANGSTROEM)
---------------------------------
  C     -0.543429   -0.424556    0.060071
  O     -0.639519   -1.663140   -0.021507
  C      0.695803    0.356445   -0.039780
  C      1.817594   -0.062995    0.026262
  H     -1.443048    0.228867   -0.184744
  H      0.389944    1.471661    0.107053
  H      2.060612   -1.116212    0.064606
  H      2.657624    0.651626   -0.205569

 Total Charge           Charge          ....    0
 Multiplicity           Mult            ....    1
 Number of Electrons    NEL             ....   30
 Basis Dimension        Dim             ....   76

ORBITAL ENERGIES
----------------

  NO   OCC          E(Eh)            E(eV)
   0   2.0000     -19.142775      -520.9014
   1   2.0000     -10.276867      -279.6478
   2   2.0000     -10.200278      -277.5637
   3   2.0000     -10.196037      -277.4483
   4   2.0000      -1.029087       -28.0029
   5   2.0000      -0.827406       -22.5149
   6   2.0000      -0.665443       -18.1076
   7   2.0000      -0.532007       -14.4766
   8   2.0000      -0.508348       -13.8329
   9   2.0000      -0.456558       -12.4236
  10   2.0000      -0.423118       -11.5136
  11   2.0000      -0.398344       -10.8395
  12   2.0000      -0.360280        -9.8037
  13   2.0000      -0.308963        -8.4073
  14   2.0000      -0.255160        -6.9433
  15   0.0000      -0.071427        -1.9436
  16   0.0000       0.042032         1.1437
  17   0.0000       0.075949         2.0667
  18   0.0000       0.090739         2.4691
  19   0.0000       0.122564         3.3351

MULLIKEN ATOMIC CHARGES
-----------------------
   0 C :    0.163156
   1 O :   -0.210642
   2 C :   -0.135046
   3 C :    0.126682
   4 H :   -0.010083
   5 H :    0.003770
   6 H :    0.026420
   7 H :    0.035743
Sum of atomic charges:    0.0000000

LOEWDIN ATOMIC CHARGES
----------------------
   0 C :   -0.015980
   1 O :   -0.028717
   2 C :   -0.104012
   3 C :    0.011338
   4 H :    0.000883
   5 H :    0.046513
   6 H :    0.038892
   7 H :    0.051083

  Mayer bond orders larger than 0.100000
B(  0-C ,  1-O ) :   2.1675 B(  0-C ,  2-C ) :   1.0708 B(  0-C ,  4-H ) :   0.9058
B(  2-C ,  3-C ) :   2.0339 B(  2-C ,  5-H ) :   0.9224 B(  3-C ,  6-H ) :   0.9158
B(  3-C ,  7-H ) :   0.9090

-----------------------------------------------------------------------------
         ABSORPTION SPECTRUM VIA TRANSITION ELECTRIC DIPOLE MOMENTS
-----------------------------------------------------------------------------
State   Energy    Wavelength  fosc         T2        TX        TY        TZ
        (cm-1)      (nm)                 (au**2)    (au)      (au)      (au)
-----------------------------------------------------------------------------
   1   26614.7    375.7   0.000625292   0.00773  -0.06572  -0.00734  -0.05798

FINAL SINGLE POINT ENERGY      -191.642293133010

DIPOLE MOMENT
-------------
                                X             Y             Z
Electronic contribution:     -1.79748      -2.04597       0.22634
Nuclear contribution   :      2.27835       2.94513      -0.20509
                        -----------------------------------------
Total Dipole Moment    :      0.48086       0.89916       0.02124
                        -----------------------------------------
Magnitude (a.u.)       :      1.01989
Magnitude (Debye)      :      2.59235

Rotational constants in cm-1:     0.851220     0.201854     0.163704
Rotational constants in MHz : 25518.944136  6051.437074  4907.716285

                             ****ORCA TERMINATED NORMALLY****
TOTAL RUN TIME: 0 days 0 hours 3 minutes 23 seconds 27 msec
