                         Program Version 5.0.3 -  RELEASE  -
|  1> ! B3LYP cc-pVDZ
|  2> !TightSCF
|  3> %scf
|  4>  ConvForced true
|  5>  convergence tight
|  6>  MaxIter 500
|  7> end
|  8>
|  9> %tddft
| 10>  nroots 1
| 11> end
| 12>
| 13> # 	10259
| 14> * xyz 0 1
| 15> 		C   -1.184103  -0.267792   0.004504
| 16> 		O   -2.156399  -0.342196   0.731149
| 17> 		C    0.104244   0.369290   0.416578
| 18> 		C    1.167030   0.134077  -0.295975
| 19> 		H   -1.108850  -0.970561  -0.850935
| 20> 		H    0.078060   1.199810   1.233878
| 21> 		H    1.181085  -0.608163  -1.063998
| 22> 		H    1.905854   0.544277  -0.165444
| 23> *
| 24>
| 25>                          ****END OF INPUT****

CARTESIAN COORDINATES (ANGSTROEM)
---------------------------------
  C     -1.184103   -0.267792    0.004504
  O     -2.156399   -0.342196    0.731149
  C      0.104244    0.369290    0.416578
  C      1.167030    0.134077   -0.295975
  H     -1.108850   -0.970561   -0.850935
  H      0.078060    1.199810    1.233878
  H      1.181085   -0.608163   -1.063998
  H      1.905854    0.544277   -0.165444

 Total Charge           Charge          ....    0
 Multiplicity           Mult            ....    1
 Number of Electrons    NEL             ....   30
 Basis Dimension        Dim             ....   76

ORBITAL ENERGIES
----------------

  NO   OCC          E(Eh)            E(eV)
   0   2.0000     -19.138028      -520.7722
   1   2.0000     -10.274945      -279.5955
   2   2.0000     -10.210772      -277.8492
   3   2.0000     -10.188430      -277.2413
   4   2.0000      -1.042499       -28.3678
   5   2.0000      -0.817017       -22.2322
   6   2.0000      -0.663800       -18.0629
   7   2.0000      -0.568955       -15.4821
   8   2.0000      -0.495552       -13.4847
   9   2.0000      -0.478323       -13.0158
  10   2.0000      -0.420459       -11.4413
  11   2.0000      -0.397698       -10.8219
  12   2.0000      -0.390455       -10.6248
  13   2.0000      -0.298224        -8.1151
  14   2.0000      -0.253593        -6.9006
  15   0.0000      -0.063063        -1.7160
  16   0.0000       0.043493         1.1835
  17   0.0000       0.069675         1.8959
  18   0.0000       0.091686         2.4949
  19   0.0000       0.123907         3.3717

MULLIKEN ATOMIC CHARGES
-----------------------
   0 C :    0.179246
   1 O :   -0.197829
   2 C :   -0.166348
   3 C :    0.281188
   4 H :   -0.020288
   5 H :    0.023445
   6 H :    0.008260
   7 H :   -0.107673
Sum of atomic charges:   -0.0000000

LOEWDIN ATOMIC CHARGES
----------------------
   0 C :   -0.034444
   1 O :   -0.003657
   2 C :   -0.041108
   3 C :    0.054885
   4 H :   -0.003791
   5 H :    0.048442
   6 H :    0.034730
   7 H :   -0.055058

  Mayer bond orders larger than 0.100000
B(  0-C ,  1-O ) :   2.1568 B(  0-C ,  2-C ) :   1.0595 B(  0-C ,  4-H ) :   0.9210
B(  2-C ,  3-C ) :   1.9596 B(  2-C ,  5-H ) :   0.9418 B(  3-C ,  6-H ) :   0.9413
B(  3-C ,  7-H ) :   0.8995

-----------------------------------------------------------------------------
         ABSORPTION SPECTRUM VIA TRANSITION ELECTRIC DIPOLE MOMENTS
-----------------------------------------------------------------------------
State   Energy    Wavelength  fosc         T2        TX        TY        TZ
        (cm-1)      (nm)                 (au**2)    (au)      (au)      (au)
-----------------------------------------------------------------------------
   1   28491.5    351.0   0.000291477   0.00337   0.00818  -0.04743  -0.03242

FINAL SINGLE POINT ENERGY      -191.610737668268

DIPOLE MOMENT
-------------
                                X             Y             Z
Electronic contribution:     -2.98703      -0.16284       1.12282
Nuclear contribution   :      4.00591       0.31664      -1.61307
                        -----------------------------------------
Total Dipole Moment    :      1.01889       0.15380      -0.49025
                        -----------------------------------------
Magnitude (a.u.)       :      1.14111
Magnitude (Debye)      :      2.90047

Rotational constants in cm-1:     1.504152     0.159612     0.145282
Rotational constants in MHz : 45093.333092  4785.042190  4355.444006

                             ****ORCA TERMINATED NORMALLY****
TOTAL RUN TIME: 0 days 0 hours 3 minutes 22 seconds 289 msec
