                         Program Version 5.0.3 -  RELEASE  -
|  1> ! B3LYP cc-pVDZ
|  2> !TightSCF
|  3> %scf
|  4>  ConvForced true
|  5>  convergence tight
|  6>  MaxIter 500
|  7> end
|  8>
|  9> %tddft
| 10>  nroots 1
| 11> end
| 12>
| 13> # 	29102
| 14> * xyz 0 1
| 15> 		C   -0.611452  -0.384569   0.007967
| 16> 		O   -0.543212  -1.607844  -0.006260
| 17> 		C    0.660069   0.385312   0.022093
| 18> 		C    1.793689  -0.143481   0.005147
| 19> 		H   -1.622419  -0.250200  -0.056038
| 20> 		H    0.595017   1.557775  -0.153674
| 21> 		H    1.903315  -1.230305  -0.050556
| 22> 		H    2.766646   0.367778  -0.068726
| 23> *
| 24>
| 25>                          ****END OF INPUT****

CARTESIAN COORDINATES (ANGSTROEM)
---------------------------------
  C     -0.611452   -0.384569    0.007967
  O     -0.543212   -1.607844   -0.006260
  C      0.660069    0.385312    0.022093
  C      1.793689   -0.143481    0.005147
  H     -1.622419   -0.250200   -0.056038
  H      0.595017    1.557775   -0.153674
  H      1.903315   -1.230305   -0.050556
  H      2.766646    0.367778   -0.068726

 Total Charge           Charge          ....    0
 Multiplicity           Mult            ....    1
 Number of Electrons    NEL             ....   30
 Basis Dimension        Dim             ....   76

ORBITAL ENERGIES
----------------

  NO   OCC          E(Eh)            E(eV)
   0   2.0000     -19.127414      -520.4834
   1   2.0000     -10.265984      -279.3516
   2   2.0000     -10.206372      -277.7295
   3   2.0000     -10.198806      -277.5236
   4   2.0000      -1.041090       -28.3295
   5   2.0000      -0.806250       -21.9392
   6   2.0000      -0.646355       -17.5882
   7   2.0000      -0.558949       -15.2098
   8   2.0000      -0.510592       -13.8939
   9   2.0000      -0.456501       -12.4220
  10   2.0000      -0.419919       -11.4266
  11   2.0000      -0.396837       -10.7985
  12   2.0000      -0.353501        -9.6193
  13   2.0000      -0.296478        -8.0676
  14   2.0000      -0.246132        -6.6976
  15   0.0000      -0.061697        -1.6789
  16   0.0000       0.058034         1.5792
  17   0.0000       0.069912         1.9024
  18   0.0000       0.102814         2.7977
  19   0.0000       0.111298         3.0286

MULLIKEN ATOMIC CHARGES
-----------------------
   0 C :    0.218977
   1 O :   -0.217280
   2 C :   -0.131667
   3 C :    0.101723
   4 H :   -0.034833
   5 H :    0.005845
   6 H :    0.025933
   7 H :    0.031302
Sum of atomic charges:   -0.0000000

LOEWDIN ATOMIC CHARGES
----------------------
   0 C :   -0.005318
   1 O :   -0.020324
   2 C :   -0.094422
   3 C :    0.012530
   4 H :   -0.006102
   5 H :    0.041468
   6 H :    0.033623
   7 H :    0.038545

  Mayer bond orders larger than 0.100000
B(  0-C ,  1-O ) :   2.1278 B(  0-C ,  2-C ) :   0.9863 B(  0-C ,  4-H ) :   0.9842
B(  2-C ,  3-C ) :   2.0275 B(  2-C ,  5-H ) :   0.9282 B(  3-C ,  6-H ) :   0.9138
B(  3-C ,  7-H ) :   0.9351

-----------------------------------------------------------------------------
         ABSORPTION SPECTRUM VIA TRANSITION ELECTRIC DIPOLE MOMENTS
-----------------------------------------------------------------------------
State   Energy    Wavelength  fosc         T2        TX        TY        TZ
        (cm-1)      (nm)                 (au**2)    (au)      (au)      (au)
-----------------------------------------------------------------------------
   1   26550.9    376.6   0.000180203   0.00223  -0.02085  -0.01178   0.04075

FINAL SINGLE POINT ENERGY      -191.643952468702

DIPOLE MOMENT
-------------
                                X             Y             Z
Electronic contribution:     -1.99587      -1.38425       0.24145
Nuclear contribution   :      2.25962       2.20746      -0.30815
                        -----------------------------------------
Total Dipole Moment    :      0.26375       0.82321      -0.06670
                        -----------------------------------------
Magnitude (a.u.)       :      0.86700
Magnitude (Debye)      :      2.20374

Rotational constants in cm-1:     0.796078     0.217526     0.170989
Rotational constants in MHz : 23865.813026  6521.269898  5126.110472

                             ****ORCA TERMINATED NORMALLY****
TOTAL RUN TIME: 0 days 0 hours 3 minutes 19 seconds 489 msec
