                         Program Version 5.0.3 -  RELEASE  -
|  1> ! B3LYP cc-pVDZ
|  2> !TightSCF
|  3> %scf
|  4>  ConvForced true
|  5>  convergence tight
|  6>  MaxIter 500
|  7> end
|  8>
|  9> %tddft
| 10>  nroots 1
| 11> end
| 12>
| 13> # 	17145
| 14> * xyz 0 1
| 15> 		C   -1.175978  -0.285199   0.001756
| 16> 		O   -1.219189  -1.548214   0.099468
| 17> 		C   -0.011088   0.552855   0.084422
| 18> 		C    1.236168  -0.013429  -0.077649
| 19> 		H   -2.202039   0.195588  -0.059125
| 20> 		H   -0.162574   1.683631   0.135805
| 21> 		H    1.278677  -1.109197  -0.141414
| 22> 		H    2.194358   0.555226  -0.000236
| 23> *
| 24>
| 25>                          ****END OF INPUT****

CARTESIAN COORDINATES (ANGSTROEM)
---------------------------------
  C     -1.175978   -0.285199    0.001756
  O     -1.219189   -1.548214    0.099468
  C     -0.011088    0.552855    0.084422
  C      1.236168   -0.013429   -0.077649
  H     -2.202039    0.195588   -0.059125
  H     -0.162574    1.683631    0.135805
  H      1.278677   -1.109197   -0.141414
  H      2.194358    0.555226   -0.000236

 Total Charge           Charge          ....    0
 Multiplicity           Mult            ....    1
 Number of Electrons    NEL             ....   30
 Basis Dimension        Dim             ....   76

ORBITAL ENERGIES
----------------

  NO   OCC          E(Eh)            E(eV)
   0   2.0000     -19.133263      -520.6426
   1   2.0000     -10.275408      -279.6081
   2   2.0000     -10.228774      -278.3391
   3   2.0000     -10.219569      -278.0886
   4   2.0000      -1.012400       -27.5488
   5   2.0000      -0.795359       -21.6428
   6   2.0000      -0.661656       -18.0046
   7   2.0000      -0.537586       -14.6285
   8   2.0000      -0.504804       -13.7364
   9   2.0000      -0.441021       -12.0008
  10   2.0000      -0.415930       -11.3180
  11   2.0000      -0.383488       -10.4352
  12   2.0000      -0.381075       -10.3696
  13   2.0000      -0.283897        -7.7252
  14   2.0000      -0.251757        -6.8507
  15   0.0000      -0.083466        -2.2712
  16   0.0000       0.050395         1.3713
  17   0.0000       0.059567         1.6209
  18   0.0000       0.088042         2.3958
  19   0.0000       0.117085         3.1860

MULLIKEN ATOMIC CHARGES
-----------------------
   0 C :    0.182665
   1 O :   -0.241839
   2 C :   -0.112871
   3 C :    0.059620
   4 H :   -0.006781
   5 H :    0.018001
   6 H :    0.052024
   7 H :    0.049180
Sum of atomic charges:   -0.0000000

LOEWDIN ATOMIC CHARGES
----------------------
   0 C :   -0.016732
   1 O :   -0.064449
   2 C :   -0.084738
   3 C :    0.044024
   4 H :    0.004536
   5 H :    0.042349
   6 H :    0.036973
   7 H :    0.038037

  Mayer bond orders larger than 0.100000
B(  0-C ,  1-O ) :   2.1007 B(  0-C ,  2-C ) :   1.0934 B(  0-C ,  4-H ) :   0.9279
B(  1-O ,  3-C ) :   0.1086 B(  2-C ,  3-C ) :   1.9101 B(  2-C ,  5-H ) :   0.9435
B(  3-C ,  6-H ) :   0.9326 B(  3-C ,  7-H ) :   0.9484

-----------------------------------------------------------------------------
         ABSORPTION SPECTRUM VIA TRANSITION ELECTRIC DIPOLE MOMENTS
-----------------------------------------------------------------------------
State   Energy    Wavelength  fosc         T2        TX        TY        TZ
        (cm-1)      (nm)                 (au**2)    (au)      (au)      (au)
-----------------------------------------------------------------------------
   1   24230.0    412.7   0.000148570   0.00202   0.03150   0.00375  -0.03182

FINAL SINGLE POINT ENERGY      -191.689547184525

DIPOLE MOMENT
-------------
                                X             Y             Z
Electronic contribution:     -1.67886      -1.60388       0.09799
Nuclear contribution   :      2.21794       2.58999      -0.16891
                        -----------------------------------------
Total Dipole Moment    :      0.53908       0.98611      -0.07092
                        -----------------------------------------
Magnitude (a.u.)       :      1.12608
Magnitude (Debye)      :      2.86226

Rotational constants in cm-1:     0.725456     0.206028     0.161065
Rotational constants in MHz : 21748.621935  6176.559455  4828.614174

                             ****ORCA TERMINATED NORMALLY****
TOTAL RUN TIME: 0 days 0 hours 3 minutes 21 seconds 552 msec
