                         Program Version 5.0.3 -  RELEASE  -
|  1> ! HF-3c
|  2> !TightSCF
|  3> %scf
|  4>  ConvForced true
|  5>  convergence tight
|  6>  MaxIter 500
|  7> end
|  8>
|  9> %tddft
| 10>  nroots 1
| 11> end
| 12>
| 13> # 	13927
| 14> * xyz 0 1
| 15> 		C   -1.201516  -0.328765  -0.016295
| 16> 		O   -1.460926  -1.297075   0.749024
| 17> 		C    0.038105   0.470143   0.214910
| 18> 		C    1.274007   0.087240  -0.156791
| 19> 		H   -1.894979  -0.079941  -0.808402
| 20> 		H   -0.217777   1.312642   0.667109
| 21> 		H    1.220497  -0.842410  -0.607445
| 22> 		H    2.260858   0.625303  -0.000032
| 23> *
| 24>
| 25>                          ****END OF INPUT****

CARTESIAN COORDINATES (ANGSTROEM)
---------------------------------
  C     -1.201516   -0.328765   -0.016295
  O     -1.460926   -1.297075    0.749024
  C      0.038105    0.470143    0.214910
  C      1.274007    0.087240   -0.156791
  H     -1.894979   -0.079941   -0.808402
  H     -0.217777    1.312642    0.667109
  H      1.220497   -0.842410   -0.607445
  H      2.260858    0.625303   -0.000032

 Total Charge           Charge          ....    0
 Multiplicity           Mult            ....    1
 Number of Electrons    NEL             ....   30
 Basis Dimension        Dim             ....   24

ORBITAL ENERGIES
----------------

  NO   OCC          E(Eh)            E(eV)
   0   2.0000     -20.362277      -554.0857
   1   2.0000     -11.288685      -307.1807
   2   2.0000     -11.194903      -304.6288
   3   2.0000     -11.188774      -304.4620
   4   2.0000      -1.372314       -37.3426
   5   2.0000      -1.081250       -29.4223
   6   2.0000      -0.895543       -24.3690
   7   2.0000      -0.780282       -21.2326
   8   2.0000      -0.691362       -18.8129
   9   2.0000      -0.630155       -17.1474
  10   2.0000      -0.598375       -16.2826
  11   2.0000      -0.552842       -15.0436
  12   2.0000      -0.483304       -13.1514
  13   2.0000      -0.421255       -11.4629
  14   2.0000      -0.401340       -10.9210
  15   0.0000       0.169372         4.6088
  16   0.0000       0.209396         5.6980
  17   0.0000       0.526677        14.3316
  18   0.0000       0.635043        17.2804
  19   0.0000       0.709693        19.3117

MULLIKEN ATOMIC CHARGES
-----------------------
   0 C :    0.146289
   1 O :   -0.329857
   2 C :   -0.173647
   3 C :   -0.235360
   4 H :    0.147984
   5 H :    0.143441
   6 H :    0.143027
   7 H :    0.158124
Sum of atomic charges:   -0.0000000

LOEWDIN ATOMIC CHARGES
----------------------
   0 C :    0.143088
   1 O :   -0.249999
   2 C :   -0.119038
   3 C :   -0.140619
   4 H :    0.083096
   5 H :    0.084513
   6 H :    0.089249
   7 H :    0.109711

  Mayer bond orders larger than 0.100000
B(  0-C ,  1-O ) :   1.9412 B(  0-C ,  2-C ) :   0.9980 B(  0-C ,  4-H ) :   0.9286
B(  2-C ,  3-C ) :   1.9903 B(  2-C ,  5-H ) :   0.9552 B(  3-C ,  6-H ) :   0.9661
B(  3-C ,  7-H ) :   0.9608

-----------------------------------------------------------------------------
         ABSORPTION SPECTRUM VIA TRANSITION ELECTRIC DIPOLE MOMENTS
-----------------------------------------------------------------------------
State   Energy    Wavelength  fosc         T2        TX        TY        TZ
        (cm-1)      (nm)                 (au**2)    (au)      (au)      (au)
-----------------------------------------------------------------------------
   1   31265.9    319.8   0.000000183   0.00000  -0.00030   0.00096   0.00096

Dispersion correction           -0.025328310
FINAL SINGLE POINT ENERGY      -189.320159716857

DIPOLE MOMENT
-------------
                                X             Y             Z
Electronic contribution:     -2.28039      -1.35554       0.88944
Nuclear contribution   :      2.65110       2.07483      -1.47974
                        -----------------------------------------
Total Dipole Moment    :      0.37071       0.71929      -0.59030
                        -----------------------------------------
Magnitude (a.u.)       :      1.00162
Magnitude (Debye)      :      2.54593

Rotational constants in cm-1:     0.911953     0.172621     0.158570
Rotational constants in MHz : 27339.663125  5175.043839  4753.800428

                             ****ORCA TERMINATED NORMALLY****
TOTAL RUN TIME: 0 days 0 hours 0 minutes 12 seconds 395 msec
