                         Program Version 5.0.3 -  RELEASE  -
|  1> ! B3LYP cc-pVDZ
|  2> !TightSCF
|  3> %scf
|  4>  ConvForced true
|  5>  convergence tight
|  6>  MaxIter 500
|  7> end
|  8>
|  9> %tddft
| 10>  nroots 1
| 11> end
| 12>
| 13> # 	7055
| 14> * xyz 0 1
| 15> 		C   -1.187130  -0.320175   0.066885
| 16> 		O   -1.948406  -0.651118   0.926946
| 17> 		C    0.021842   0.534108   0.222075
| 18> 		C    1.226710  -0.029485  -0.119924
| 19> 		H   -1.578094  -0.779149  -0.958025
| 20> 		H    0.006124   1.452917   0.751505
| 21> 		H    1.393999  -0.825014  -0.720525
| 22> 		H    2.077719   0.614208  -0.116896
| 23> *
| 24>
| 25>                          ****END OF INPUT****

CARTESIAN COORDINATES (ANGSTROEM)
---------------------------------
  C     -1.187130   -0.320175    0.066885
  O     -1.948406   -0.651118    0.926946
  C      0.021842    0.534108    0.222075
  C      1.226710   -0.029485   -0.119924
  H     -1.578094   -0.779149   -0.958025
  H      0.006124    1.452917    0.751505
  H      1.393999   -0.825014   -0.720525
  H      2.077719    0.614208   -0.116896

 Total Charge           Charge          ....    0
 Multiplicity           Mult            ....    1
 Number of Electrons    NEL             ....   30
 Basis Dimension        Dim             ....   76

ORBITAL ENERGIES
----------------

  NO   OCC          E(Eh)            E(eV)
   0   2.0000     -19.137488      -520.7575
   1   2.0000     -10.281780      -279.7815
   2   2.0000     -10.217767      -278.0396
   3   2.0000     -10.207173      -277.7513
   4   2.0000      -1.056260       -28.7423
   5   2.0000      -0.798173       -21.7194
   6   2.0000      -0.649816       -17.6824
   7   2.0000      -0.566017       -15.4021
   8   2.0000      -0.489507       -13.3202
   9   2.0000      -0.467245       -12.7144
  10   2.0000      -0.435152       -11.8411
  11   2.0000      -0.399609       -10.8739
  12   2.0000      -0.382064       -10.3965
  13   2.0000      -0.288705        -7.8561
  14   2.0000      -0.247558        -6.7364
  15   0.0000      -0.056449        -1.5361
  16   0.0000       0.006142         0.1671
  17   0.0000       0.084771         2.3067
  18   0.0000       0.088028         2.3954
  19   0.0000       0.109926         2.9912

MULLIKEN ATOMIC CHARGES
-----------------------
   0 C :    0.134267
   1 O :   -0.170882
   2 C :   -0.052928
   3 C :    0.060791
   4 H :   -0.011962
   5 H :    0.013845
   6 H :    0.002366
   7 H :    0.024504
Sum of atomic charges:   -0.0000000

LOEWDIN ATOMIC CHARGES
----------------------
   0 C :   -0.047872
   1 O :    0.012352
   2 C :   -0.037606
   3 C :    0.008400
   4 H :   -0.000770
   5 H :    0.030906
   6 H :    0.006095
   7 H :    0.028495

  Mayer bond orders larger than 0.100000
B(  0-C ,  1-O ) :   2.2148 B(  0-C ,  2-C ) :   0.9850 B(  0-C ,  4-H ) :   0.9170
B(  2-C ,  3-C ) :   1.9900 B(  2-C ,  5-H ) :   0.9419 B(  3-C ,  6-H ) :   0.9620
B(  3-C ,  7-H ) :   0.9528

-----------------------------------------------------------------------------
         ABSORPTION SPECTRUM VIA TRANSITION ELECTRIC DIPOLE MOMENTS
-----------------------------------------------------------------------------
State   Energy    Wavelength  fosc         T2        TX        TY        TZ
        (cm-1)      (nm)                 (au**2)    (au)      (au)      (au)
-----------------------------------------------------------------------------
   1   29560.4    338.3   0.000883969   0.00984   0.09215  -0.01585  -0.03320

FINAL SINGLE POINT ENERGY      -191.642678636120

DIPOLE MOMENT
-------------
                                X             Y             Z
Electronic contribution:     -2.87267      -0.56425       1.47429
Nuclear contribution   :      3.67001       0.94451      -2.02800
                        -----------------------------------------
Total Dipole Moment    :      0.79734       0.38026      -0.55371
                        -----------------------------------------
Magnitude (a.u.)       :      1.04257
Magnitude (Debye)      :      2.65000

Rotational constants in cm-1:     1.179874     0.157901     0.150887
Rotational constants in MHz : 35371.743504  4733.761645  4523.492914

                             ****ORCA TERMINATED NORMALLY****
TOTAL RUN TIME: 0 days 0 hours 3 minutes 15 seconds 27 msec
