                         Program Version 5.0.3 -  RELEASE  -
|  1> ! HF-3c
|  2> !TightSCF
|  3> %scf
|  4>  ConvForced true
|  5>  convergence tight
|  6>  MaxIter 500
|  7> end
|  8>
|  9> %tddft
| 10>  nroots 1
| 11> end
| 12>
| 13> # 	6600
| 14> * xyz 0 1
| 15> 		C   -1.262253  -0.323221   0.019764
| 16> 		O   -1.317050  -1.567136   0.091310
| 17> 		C   -0.043541   0.460186   0.057428
| 18> 		C    1.187227   0.009551   0.070898
| 19> 		H   -2.142616   0.164250  -0.291361
| 20> 		H   -0.011608   1.623843   0.220340
| 21> 		H    1.525142  -1.013287  -0.332104
| 22> 		H    2.088461   0.646895   0.126156
| 23> *
| 24>
| 25>                          ****END OF INPUT****

CARTESIAN COORDINATES (ANGSTROEM)
---------------------------------
  C     -1.262253   -0.323221    0.019764
  O     -1.317050   -1.567136    0.091310
  C     -0.043541    0.460186    0.057428
  C      1.187227    0.009551    0.070898
  H     -2.142616    0.164250   -0.291361
  H     -0.011608    1.623843    0.220340
  H      1.525142   -1.013287   -0.332104
  H      2.088461    0.646895    0.126156

 Total Charge           Charge          ....    0
 Multiplicity           Mult            ....    1
 Number of Electrons    NEL             ....   30
 Basis Dimension        Dim             ....   24

ORBITAL ENERGIES
----------------

  NO   OCC          E(Eh)            E(eV)
   0   2.0000     -20.358765      -553.9901
   1   2.0000     -11.292835      -307.2937
   2   2.0000     -11.190314      -304.5039
   3   2.0000     -11.188964      -304.4672
   4   2.0000      -1.377152       -37.4742
   5   2.0000      -1.080008       -29.3885
   6   2.0000      -0.899556       -24.4782
   7   2.0000      -0.750016       -20.4090
   8   2.0000      -0.691961       -18.8292
   9   2.0000      -0.612327       -16.6623
  10   2.0000      -0.587972       -15.9995
  11   2.0000      -0.524722       -14.2784
  12   2.0000      -0.497939       -13.5496
  13   2.0000      -0.422277       -11.4907
  14   2.0000      -0.391170       -10.6443
  15   0.0000       0.121861         3.3160
  16   0.0000       0.305084         8.3017
  17   0.0000       0.507981        13.8229
  18   0.0000       0.579881        15.7794
  19   0.0000       0.641227        17.4487

MULLIKEN ATOMIC CHARGES
-----------------------
   0 C :    0.138082
   1 O :   -0.335002
   2 C :   -0.181984
   3 C :   -0.199910
   4 H :    0.142103
   5 H :    0.149969
   6 H :    0.148290
   7 H :    0.138453
Sum of atomic charges:   -0.0000000

LOEWDIN ATOMIC CHARGES
----------------------
   0 C :    0.136267
   1 O :   -0.252692
   2 C :   -0.142942
   3 C :   -0.108895
   4 H :    0.074587
   5 H :    0.104622
   6 H :    0.099704
   7 H :    0.089346

  Mayer bond orders larger than 0.100000
B(  0-C ,  1-O ) :   1.8922 B(  0-C ,  2-C ) :   1.0487 B(  0-C ,  4-H ) :   0.9356
B(  2-C ,  3-C ) :   1.9386 B(  2-C ,  5-H ) :   0.9474 B(  3-C ,  6-H ) :   0.9586
B(  3-C ,  7-H ) :   0.9644

-----------------------------------------------------------------------------
         ABSORPTION SPECTRUM VIA TRANSITION ELECTRIC DIPOLE MOMENTS
-----------------------------------------------------------------------------
State   Energy    Wavelength  fosc         T2        TX        TY        TZ
        (cm-1)      (nm)                 (au**2)    (au)      (au)      (au)
-----------------------------------------------------------------------------
   1   29572.1    338.2   0.000064361   0.00072   0.02449  -0.00467   0.00974

Dispersion correction           -0.025167226
FINAL SINGLE POINT ENERGY      -189.330444303857

DIPOLE MOMENT
-------------
                                X             Y             Z
Electronic contribution:     -2.31348      -1.79637       0.32188
Nuclear contribution   :      2.76252       2.78095      -0.45743
                        -----------------------------------------
Total Dipole Moment    :      0.44905       0.98457      -0.13555
                        -----------------------------------------
Magnitude (a.u.)       :      1.09060
Magnitude (Debye)      :      2.77208

Rotational constants in cm-1:     0.803733     0.196637     0.158998
Rotational constants in MHz : 24095.311336  5895.015506  4766.639388

                             ****ORCA TERMINATED NORMALLY****
TOTAL RUN TIME: 0 days 0 hours 0 minutes 13 seconds 57 msec
