                         Program Version 5.0.3 -  RELEASE  -
|  1> ! B3LYP cc-pVDZ
|  2> !TightSCF
|  3> %scf
|  4>  ConvForced true
|  5>  convergence tight
|  6>  MaxIter 500
|  7> end
|  8>
|  9> %tddft
| 10>  nroots 1
| 11> end
| 12>
| 13> # 	32494
| 14> * xyz 0 1
| 15> 		C   -0.589653  -0.398823  -0.025972
| 16> 		O   -0.577383  -1.647726   0.014701
| 17> 		C    0.622974   0.371648   0.042929
| 18> 		C    1.862723  -0.084331  -0.022324
| 19> 		H   -1.557335   0.020702  -0.137574
| 20> 		H    0.498279   1.560857   0.005978
| 21> 		H    1.786469  -1.217581  -0.017070
| 22> 		H    2.791884   0.345959  -0.018837
| 23> *
| 24>
| 25>                          ****END OF INPUT****

CARTESIAN COORDINATES (ANGSTROEM)
---------------------------------
  C     -0.589653   -0.398823   -0.025972
  O     -0.577383   -1.647726    0.014701
  C      0.622974    0.371648    0.042929
  C      1.862723   -0.084331   -0.022324
  H     -1.557335    0.020702   -0.137574
  H      0.498279    1.560857    0.005978
  H      1.786469   -1.217581   -0.017070
  H      2.791884    0.345959   -0.018837

 Total Charge           Charge          ....    0
 Multiplicity           Mult            ....    1
 Number of Electrons    NEL             ....   30
 Basis Dimension        Dim             ....   76

ORBITAL ENERGIES
----------------

  NO   OCC          E(Eh)            E(eV)
   0   2.0000     -19.135024      -520.6905
   1   2.0000     -10.272699      -279.5343
   2   2.0000     -10.213534      -277.9244
   3   2.0000     -10.211514      -277.8694
   4   2.0000      -1.026689       -27.9376
   5   2.0000      -0.800369       -21.7791
   6   2.0000      -0.668775       -18.1983
   7   2.0000      -0.554041       -15.0762
   8   2.0000      -0.502526       -13.6744
   9   2.0000      -0.460907       -12.5419
  10   2.0000      -0.427138       -11.6230
  11   2.0000      -0.392078       -10.6690
  12   2.0000      -0.349351        -9.5063
  13   2.0000      -0.289396        -7.8749
  14   2.0000      -0.257441        -7.0053
  15   0.0000      -0.077913        -2.1201
  16   0.0000       0.061802         1.6817
  17   0.0000       0.064319         1.7502
  18   0.0000       0.097349         2.6490
  19   0.0000       0.119234         3.2445

MULLIKEN ATOMIC CHARGES
-----------------------
   0 C :    0.220691
   1 O :   -0.229486
   2 C :   -0.159038
   3 C :    0.123467
   4 H :   -0.014336
   5 H :    0.002987
   6 H :    0.042061
   7 H :    0.013653
Sum of atomic charges:   -0.0000000

LOEWDIN ATOMIC CHARGES
----------------------
   0 C :   -0.010298
   1 O :   -0.039706
   2 C :   -0.086999
   3 C :    0.039613
   4 H :    0.001099
   5 H :    0.036534
   6 H :    0.045776
   7 H :    0.013982

  Mayer bond orders larger than 0.100000
B(  0-C ,  1-O ) :   2.1123 B(  0-C ,  2-C ) :   1.0755 B(  0-C ,  4-H ) :   0.9446
B(  2-C ,  3-C ) :   1.9559 B(  2-C ,  5-H ) :   0.9349 B(  3-C ,  6-H ) :   0.9111
B(  3-C ,  7-H ) :   0.9485

-----------------------------------------------------------------------------
         ABSORPTION SPECTRUM VIA TRANSITION ELECTRIC DIPOLE MOMENTS
-----------------------------------------------------------------------------
State   Energy    Wavelength  fosc         T2        TX        TY        TZ
        (cm-1)      (nm)                 (au**2)    (au)      (au)      (au)
-----------------------------------------------------------------------------
   1   26001.7    384.6   0.000095480   0.00121   0.01466   0.00738  -0.03065

FINAL SINGLE POINT ENERGY      -191.668285172015

DIPOLE MOMENT
-------------
                                X             Y             Z
Electronic contribution:     -1.75789      -1.54019       0.10619
Nuclear contribution   :      2.14519       2.45511      -0.15706
                        -----------------------------------------
Total Dipole Moment    :      0.38730       0.91492      -0.05087
                        -----------------------------------------
Magnitude (a.u.)       :      0.99482
Magnitude (Debye)      :      2.52863

Rotational constants in cm-1:     0.780175     0.207875     0.164330
Rotational constants in MHz : 23389.053243  6231.930062  4926.500380

                             ****ORCA TERMINATED NORMALLY****
TOTAL RUN TIME: 0 days 0 hours 3 minutes 16 seconds 790 msec
