                         Program Version 5.0.3 -  RELEASE  -
|  1> ! HF-3c
|  2> !TightSCF
|  3> %scf
|  4>  ConvForced true
|  5>  convergence tight
|  6>  MaxIter 500
|  7> end
|  8>
|  9> %tddft
| 10>  nroots 1
| 11> end
| 12>
| 13> # 	7183
| 14> * xyz 0 1
| 15> 		C   -1.260197  -0.344562  -0.011967
| 16> 		O   -1.333799  -1.456292  -0.387916
| 17> 		C    0.040257   0.426879  -0.123876
| 18> 		C    1.188847  -0.030297  -0.003231
| 19> 		H   -2.153655   0.182756   0.552445
| 20> 		H   -0.002646   1.595510  -0.541323
| 21> 		H    1.400757  -1.011970   0.358502
| 22> 		H    2.081624   0.632346   0.070420
| 23> *
| 24>
| 25>                          ****END OF INPUT****

CARTESIAN COORDINATES (ANGSTROEM)
---------------------------------
  C     -1.260197   -0.344562   -0.011967
  O     -1.333799   -1.456292   -0.387916
  C      0.040257    0.426879   -0.123876
  C      1.188847   -0.030297   -0.003231
  H     -2.153655    0.182756    0.552445
  H     -0.002646    1.595510   -0.541323
  H      1.400757   -1.011970    0.358502
  H      2.081624    0.632346    0.070420

 Total Charge           Charge          ....    0
 Multiplicity           Mult            ....    1
 Number of Electrons    NEL             ....   30
 Basis Dimension        Dim             ....   24

ORBITAL ENERGIES
----------------

  NO   OCC          E(Eh)            E(eV)
   0   2.0000     -20.384086      -554.6792
   1   2.0000     -11.308594      -307.7225
   2   2.0000     -11.189233      -304.4745
   3   2.0000     -11.181289      -304.2583
   4   2.0000      -1.433337       -39.0031
   5   2.0000      -1.092272       -29.7222
   6   2.0000      -0.871825       -23.7236
   7   2.0000      -0.738152       -20.0861
   8   2.0000      -0.694506       -18.8985
   9   2.0000      -0.619028       -16.8446
  10   2.0000      -0.613189       -16.6857
  11   2.0000      -0.546553       -14.8725
  12   2.0000      -0.497695       -13.5430
  13   2.0000      -0.424219       -11.5436
  14   2.0000      -0.400713       -10.9040
  15   0.0000       0.170693         4.6448
  16   0.0000       0.290948         7.9171
  17   0.0000       0.490862        13.3570
  18   0.0000       0.524043        14.2599
  19   0.0000       0.632326        17.2065

MULLIKEN ATOMIC CHARGES
-----------------------
   0 C :    0.188723
   1 O :   -0.353331
   2 C :   -0.156749
   3 C :   -0.253163
   4 H :    0.139098
   5 H :    0.144849
   6 H :    0.145049
   7 H :    0.145523
Sum of atomic charges:   -0.0000000

LOEWDIN ATOMIC CHARGES
----------------------
   0 C :    0.152700
   1 O :   -0.244619
   2 C :   -0.122191
   3 C :   -0.159781
   4 H :    0.080554
   5 H :    0.104330
   6 H :    0.091747
   7 H :    0.097262

  Mayer bond orders larger than 0.100000
B(  0-C ,  1-O ) :   1.9435 B(  0-C ,  2-C ) :   0.9797 B(  0-C ,  4-H ) :   0.9091
B(  2-C ,  3-C ) :   2.0053 B(  2-C ,  5-H ) :   0.9402 B(  3-C ,  6-H ) :   0.9562
B(  3-C ,  7-H ) :   0.9556

-----------------------------------------------------------------------------
         ABSORPTION SPECTRUM VIA TRANSITION ELECTRIC DIPOLE MOMENTS
-----------------------------------------------------------------------------
State   Energy    Wavelength  fosc         T2        TX        TY        TZ
        (cm-1)      (nm)                 (au**2)    (au)      (au)      (au)
-----------------------------------------------------------------------------
   1   35806.5    279.3   0.000169291   0.00156   0.03576  -0.01663   0.00121

Dispersion correction           -0.025247852
FINAL SINGLE POINT ENERGY      -189.292717291743

DIPOLE MOMENT
-------------
                                X             Y             Z
Electronic contribution:     -2.38160      -1.77813      -0.56889
Nuclear contribution   :      2.59365       2.71961       0.90661
                        -----------------------------------------
Total Dipole Moment    :      0.21205       0.94149       0.33771
                        -----------------------------------------
Magnitude (a.u.)       :      1.02245
Magnitude (Debye)      :      2.59887

Rotational constants in cm-1:     0.848825     0.196416     0.164702
Rotational constants in MHz : 25447.130743  5888.417068  4937.636200

                             ****ORCA TERMINATED NORMALLY****
TOTAL RUN TIME: 0 days 0 hours 0 minutes 16 seconds 26 msec
