                         Program Version 5.0.3 -  RELEASE  -
|  1> ! HF-3c
|  2> !TightSCF
|  3> %scf
|  4>  ConvForced true
|  5>  convergence tight
|  6>  MaxIter 500
|  7> end
|  8>
|  9> %tddft
| 10>  nroots 1
| 11> end
| 12>
| 13> # 	20833
| 14> * xyz 0 1
| 15> 		C   -0.567450  -0.438764   0.070904
| 16> 		O   -0.599877  -1.658785  -0.048472
| 17> 		C    0.652522   0.417599   0.002074
| 18> 		C    1.855273  -0.096795   0.030790
| 19> 		H   -1.554913   0.167539  -0.031483
| 20> 		H    0.463461   1.485334  -0.311937
| 21> 		H    1.778959  -1.118991   0.195412
| 22> 		H    2.668476   0.433722  -0.354913
| 23> *
| 24>
| 25>                          ****END OF INPUT****

CARTESIAN COORDINATES (ANGSTROEM)
---------------------------------
  C     -0.567450   -0.438764    0.070904
  O     -0.599877   -1.658785   -0.048472
  C      0.652522    0.417599    0.002074
  C      1.855273   -0.096795    0.030790
  H     -1.554913    0.167539   -0.031483
  H      0.463461    1.485334   -0.311937
  H      1.778959   -1.118991    0.195412
  H      2.668476    0.433722   -0.354913

 Total Charge           Charge          ....    0
 Multiplicity           Mult            ....    1
 Number of Electrons    NEL             ....   30
 Basis Dimension        Dim             ....   24

ORBITAL ENERGIES
----------------

  NO   OCC          E(Eh)            E(eV)
   0   2.0000     -20.365319      -554.1685
   1   2.0000     -11.292452      -307.2832
   2   2.0000     -11.192028      -304.5506
   3   2.0000     -11.190984      -304.5221
   4   2.0000      -1.392454       -37.8906
   5   2.0000      -1.095223       -29.8025
   6   2.0000      -0.891774       -24.2664
   7   2.0000      -0.734531       -19.9876
   8   2.0000      -0.711346       -19.3567
   9   2.0000      -0.612033       -16.6543
  10   2.0000      -0.607020       -16.5179
  11   2.0000      -0.537055       -14.6140
  12   2.0000      -0.527479       -14.3534
  13   2.0000      -0.412575       -11.2267
  14   2.0000      -0.402727       -10.9588
  15   0.0000       0.129187         3.5153
  16   0.0000       0.296576         8.0702
  17   0.0000       0.542434        14.7604
  18   0.0000       0.599453        16.3119
  19   0.0000       0.666004        18.1229

MULLIKEN ATOMIC CHARGES
-----------------------
   0 C :    0.168809
   1 O :   -0.352802
   2 C :   -0.159216
   3 C :   -0.253118
   4 H :    0.132762
   5 H :    0.141229
   6 H :    0.166482
   7 H :    0.155854
Sum of atomic charges:   -0.0000000

LOEWDIN ATOMIC CHARGES
----------------------
   0 C :    0.148161
   1 O :   -0.262036
   2 C :   -0.117577
   3 C :   -0.143965
   4 H :    0.074698
   5 H :    0.092104
   6 H :    0.107676
   7 H :    0.100939

  Mayer bond orders larger than 0.100000
B(  0-C ,  1-O ) :   1.9119 B(  0-C ,  2-C ) :   1.0166 B(  0-C ,  4-H ) :   0.9216
B(  2-C ,  3-C ) :   1.9555 B(  2-C ,  5-H ) :   0.9565 B(  3-C ,  6-H ) :   0.9543
B(  3-C ,  7-H ) :   0.9626

-----------------------------------------------------------------------------
         ABSORPTION SPECTRUM VIA TRANSITION ELECTRIC DIPOLE MOMENTS
-----------------------------------------------------------------------------
State   Energy    Wavelength  fosc         T2        TX        TY        TZ
        (cm-1)      (nm)                 (au**2)    (au)      (au)      (au)
-----------------------------------------------------------------------------
   1   31858.0    313.9   0.000038582   0.00040  -0.01424   0.00074  -0.01397

Dispersion correction           -0.026095607
FINAL SINGLE POINT ENERGY      -189.331023107685

DIPOLE MOMENT
-------------
                                X             Y             Z
Electronic contribution:     -1.76827      -1.73080       0.39718
Nuclear contribution   :      1.99113       2.69633      -0.47012
                        -----------------------------------------
Total Dipole Moment    :      0.22286       0.96553      -0.07294
                        -----------------------------------------
Magnitude (a.u.)       :      0.99360
Magnitude (Debye)      :      2.52552

Rotational constants in cm-1:     0.783853     0.204594     0.163422
Rotational constants in MHz : 23499.322333  6133.559410  4899.267064

                             ****ORCA TERMINATED NORMALLY****
TOTAL RUN TIME: 0 days 0 hours 0 minutes 11 seconds 582 msec
