                         Program Version 5.0.3 -  RELEASE  -
|  1> ! HF-3c
|  2> !TightSCF
|  3> %scf
|  4>  ConvForced true
|  5>  convergence tight
|  6>  MaxIter 500
|  7> end
|  8>
|  9> %tddft
| 10>  nroots 1
| 11> end
| 12>
| 13> # 	14839
| 14> * xyz 0 1
| 15> 		C   -1.183798  -0.358238  -0.058923
| 16> 		O   -2.125143  -0.234086  -0.765122
| 17> 		C    0.031976   0.421485  -0.317939
| 18> 		C    1.107603   0.056705   0.338411
| 19> 		H   -1.012622  -1.054629   0.597674
| 20> 		H    0.057157   1.162610  -1.067927
| 21> 		H    0.991543  -0.594209   1.171466
| 22> 		H    2.131698   0.633685   0.096868
| 23> *
| 24>
| 25>                          ****END OF INPUT****

CARTESIAN COORDINATES (ANGSTROEM)
---------------------------------
  C     -1.183798   -0.358238   -0.058923
  O     -2.125143   -0.234086   -0.765122
  C      0.031976    0.421485   -0.317939
  C      1.107603    0.056705    0.338411
  H     -1.012622   -1.054629    0.597674
  H      0.057157    1.162610   -1.067927
  H      0.991543   -0.594209    1.171466
  H      2.131698    0.633685    0.096868

 Total Charge           Charge          ....    0
 Multiplicity           Mult            ....    1
 Number of Electrons    NEL             ....   30
 Basis Dimension        Dim             ....   24

ORBITAL ENERGIES
----------------

  NO   OCC          E(Eh)            E(eV)
   0   2.0000     -20.381348      -554.6047
   1   2.0000     -11.310902      -307.7853
   2   2.0000     -11.188523      -304.4552
   3   2.0000     -11.184920      -304.3571
   4   2.0000      -1.429181       -38.8900
   5   2.0000      -1.102656       -30.0048
   6   2.0000      -0.888798       -24.1854
   7   2.0000      -0.808548       -22.0017
   8   2.0000      -0.685891       -18.6640
   9   2.0000      -0.642818       -17.4920
  10   2.0000      -0.583034       -15.8652
  11   2.0000      -0.563808       -15.3420
  12   2.0000      -0.548363       -14.9217
  13   2.0000      -0.419711       -11.4209
  14   2.0000      -0.401587       -10.9277
  15   0.0000       0.140375         3.8198
  16   0.0000       0.303712         8.2644
  17   0.0000       0.528199        14.3730
  18   0.0000       0.630940        17.1687
  19   0.0000       0.666088        18.1252

MULLIKEN ATOMIC CHARGES
-----------------------
   0 C :    0.156684
   1 O :   -0.342016
   2 C :   -0.175986
   3 C :   -0.220574
   4 H :    0.137257
   5 H :    0.154572
   6 H :    0.138078
   7 H :    0.151984
Sum of atomic charges:   -0.0000000

LOEWDIN ATOMIC CHARGES
----------------------
   0 C :    0.143625
   1 O :   -0.239305
   2 C :   -0.129906
   3 C :   -0.130127
   4 H :    0.062548
   5 H :    0.097135
   6 H :    0.087275
   7 H :    0.108755

  Mayer bond orders larger than 0.100000
B(  0-C ,  1-O ) :   1.9067 B(  0-C ,  2-C ) :   1.0241 B(  0-C ,  4-H ) :   0.9317
B(  2-C ,  3-C ) :   1.9465 B(  2-C ,  5-H ) :   0.9579 B(  3-C ,  6-H ) :   0.9643
B(  3-C ,  7-H ) :   0.9594

-----------------------------------------------------------------------------
         ABSORPTION SPECTRUM VIA TRANSITION ELECTRIC DIPOLE MOMENTS
-----------------------------------------------------------------------------
State   Energy    Wavelength  fosc         T2        TX        TY        TZ
        (cm-1)      (nm)                 (au**2)    (au)      (au)      (au)
-----------------------------------------------------------------------------
   1   33821.5    295.7   0.000047235   0.00046   0.00008  -0.01114   0.01832

Dispersion correction           -0.026639477
FINAL SINGLE POINT ENERGY      -189.306417034430

DIPOLE MOMENT
-------------
                                X             Y             Z
Electronic contribution:     -3.17686      -0.30086      -1.00325
Nuclear contribution   :      4.17599       0.27975       1.53701
                        -----------------------------------------
Total Dipole Moment    :      0.99913      -0.02111       0.53375
                        -----------------------------------------
Magnitude (a.u.)       :      1.13296
Magnitude (Debye)      :      2.87975

Rotational constants in cm-1:     1.553771     0.166469     0.150921
Rotational constants in MHz : 46580.885309  4990.618652  4524.488924

                             ****ORCA TERMINATED NORMALLY****
TOTAL RUN TIME: 0 days 0 hours 0 minutes 12 seconds 421 msec
