                         Program Version 5.0.3 -  RELEASE  -
|  1> ! B3LYP cc-pVDZ
|  2> !TightSCF
|  3> %scf
|  4>  ConvForced true
|  5>  convergence tight
|  6>  MaxIter 500
|  7> end
|  8>
|  9> %tddft
| 10>  nroots 1
| 11> end
| 12>
| 13> # 	20140
| 14> * xyz 0 1
| 15> 		C   -0.573249  -0.399210   0.087031
| 16> 		O   -0.558874  -1.638628  -0.052191
| 17> 		C    0.622807   0.397402  -0.051344
| 18> 		C    1.805764  -0.141441   0.054553
| 19> 		H   -1.459186   0.200850   0.143008
| 20> 		H    0.489008   1.530739  -0.302429
| 21> 		H    1.895585  -1.304013   0.044784
| 22> 		H    2.814663   0.559257  -0.157639
| 23> *
| 24>
| 25>                          ****END OF INPUT****

CARTESIAN COORDINATES (ANGSTROEM)
---------------------------------
  C     -0.573249   -0.399210    0.087031
  O     -0.558874   -1.638628   -0.052191
  C      0.622807    0.397402   -0.051344
  C      1.805764   -0.141441    0.054553
  H     -1.459186    0.200850    0.143008
  H      0.489008    1.530739   -0.302429
  H      1.895585   -1.304013    0.044784
  H      2.814663    0.559257   -0.157639

 Total Charge           Charge          ....    0
 Multiplicity           Mult            ....    1
 Number of Electrons    NEL             ....   30
 Basis Dimension        Dim             ....   76

ORBITAL ENERGIES
----------------

  NO   OCC          E(Eh)            E(eV)
   0   2.0000     -19.139480      -520.8117
   1   2.0000     -10.273529      -279.5569
   2   2.0000     -10.225689      -278.2552
   3   2.0000     -10.204924      -277.6901
   4   2.0000      -1.028358       -27.9830
   5   2.0000      -0.800631       -21.7863
   6   2.0000      -0.661481       -17.9998
   7   2.0000      -0.527398       -14.3512
   8   2.0000      -0.502753       -13.6806
   9   2.0000      -0.443233       -12.0610
  10   2.0000      -0.416001       -11.3200
  11   2.0000      -0.389757       -10.6058
  12   2.0000      -0.362885        -9.8746
  13   2.0000      -0.290105        -7.8942
  14   2.0000      -0.258370        -7.0306
  15   0.0000      -0.074095        -2.0162
  16   0.0000       0.042884         1.1669
  17   0.0000       0.055297         1.5047
  18   0.0000       0.078545         2.1373
  19   0.0000       0.122581         3.3356

MULLIKEN ATOMIC CHARGES
-----------------------
   0 C :    0.221935
   1 O :   -0.224457
   2 C :   -0.110735
   3 C :   -0.011237
   4 H :   -0.017264
   5 H :    0.015225
   6 H :    0.068516
   7 H :    0.058017
Sum of atomic charges:    0.0000000

LOEWDIN ATOMIC CHARGES
----------------------
   0 C :   -0.010470
   1 O :   -0.034889
   2 C :   -0.102310
   3 C :   -0.001553
   4 H :   -0.003797
   5 H :    0.043994
   6 H :    0.052719
   7 H :    0.056307

  Mayer bond orders larger than 0.100000
B(  0-C ,  1-O ) :   2.1406 B(  0-C ,  2-C ) :   1.0859 B(  0-C ,  4-H ) :   0.9244
B(  2-C ,  3-C ) :   1.9555 B(  2-C ,  5-H ) :   0.9328 B(  3-C ,  6-H ) :   0.9177
B(  3-C ,  7-H ) :   0.9317

-----------------------------------------------------------------------------
         ABSORPTION SPECTRUM VIA TRANSITION ELECTRIC DIPOLE MOMENTS
-----------------------------------------------------------------------------
State   Energy    Wavelength  fosc         T2        TX        TY        TZ
        (cm-1)      (nm)                 (au**2)    (au)      (au)      (au)
-----------------------------------------------------------------------------
   1   27050.1    369.7   0.000114861   0.00140   0.01567   0.01274  -0.03147

FINAL SINGLE POINT ENERGY      -191.658840463081

DIPOLE MOMENT
-------------
                                X             Y             Z
Electronic contribution:     -2.02280      -1.78623       0.24938
Nuclear contribution   :      2.35060       2.71211      -0.25450
                        -----------------------------------------
Total Dipole Moment    :      0.32780       0.92588      -0.00511
                        -----------------------------------------
Magnitude (a.u.)       :      0.98221
Magnitude (Debye)      :      2.49657

Rotational constants in cm-1:     0.740808     0.216228     0.168518
Rotational constants in MHz : 22208.852160  6482.348701  5052.043671

                             ****ORCA TERMINATED NORMALLY****
TOTAL RUN TIME: 0 days 0 hours 3 minutes 22 seconds 276 msec
