                         Program Version 5.0.3 -  RELEASE  -
|  1> ! HF-3c
|  2> !TightSCF
|  3> %scf
|  4>  ConvForced true
|  5>  convergence tight
|  6>  MaxIter 500
|  7> end
|  8>
|  9> %tddft
| 10>  nroots 1
| 11> end
| 12>
| 13> # 	17294
| 14> * xyz 0 1
| 15> 		C   -1.177060  -0.390456   0.081503
| 16> 		O   -1.925347  -0.878293  -0.791205
| 17> 		C   -0.007600   0.454458  -0.404631
| 18> 		C    1.245078   0.127365   0.074081
| 19> 		H   -1.229655  -0.560511   1.146467
| 20> 		H   -0.277587   1.392190  -0.999687
| 21> 		H    1.336876  -0.876089   0.840521
| 22> 		H    2.062385   0.715316   0.081456
| 23> *
| 24>
| 25>                          ****END OF INPUT****

CARTESIAN COORDINATES (ANGSTROEM)
---------------------------------
  C     -1.177060   -0.390456    0.081503
  O     -1.925347   -0.878293   -0.791205
  C     -0.007600    0.454458   -0.404631
  C      1.245078    0.127365    0.074081
  H     -1.229655   -0.560511    1.146467
  H     -0.277587    1.392190   -0.999687
  H      1.336876   -0.876089    0.840521
  H      2.062385    0.715316    0.081456

 Total Charge           Charge          ....    0
 Multiplicity           Mult            ....    1
 Number of Electrons    NEL             ....   30
 Basis Dimension        Dim             ....   24

ORBITAL ENERGIES
----------------

  NO   OCC          E(Eh)            E(eV)
   0   2.0000     -20.365784      -554.1812
   1   2.0000     -11.290377      -307.2268
   2   2.0000     -11.183559      -304.3201
   3   2.0000     -11.174119      -304.0632
   4   2.0000      -1.379065       -37.5263
   5   2.0000      -1.052438       -28.6383
   6   2.0000      -0.871635       -23.7184
   7   2.0000      -0.768639       -20.9157
   8   2.0000      -0.645097       -17.5540
   9   2.0000      -0.642813       -17.4918
  10   2.0000      -0.584773       -15.9125
  11   2.0000      -0.515840       -14.0367
  12   2.0000      -0.492653       -13.4058
  13   2.0000      -0.415719       -11.3123
  14   2.0000      -0.377678       -10.2771
  15   0.0000       0.144957         3.9445
  16   0.0000       0.241527         6.5723
  17   0.0000       0.465201        12.6588
  18   0.0000       0.568015        15.4565
  19   0.0000       0.663185        18.0462

MULLIKEN ATOMIC CHARGES
-----------------------
   0 C :    0.150136
   1 O :   -0.333566
   2 C :   -0.150128
   3 C :   -0.235452
   4 H :    0.147035
   5 H :    0.154350
   6 H :    0.132788
   7 H :    0.134838
Sum of atomic charges:    0.0000000

LOEWDIN ATOMIC CHARGES
----------------------
   0 C :    0.144729
   1 O :   -0.249006
   2 C :   -0.109635
   3 C :   -0.151175
   4 H :    0.081772
   5 H :    0.105543
   6 H :    0.097782
   7 H :    0.079991

  Mayer bond orders larger than 0.100000
B(  0-C ,  1-O ) :   1.9353 B(  0-C ,  2-C ) :   0.9972 B(  0-C ,  4-H ) :   0.9271
B(  2-C ,  3-C ) :   1.9810 B(  2-C ,  5-H ) :   0.9505 B(  3-C ,  6-H ) :   0.9610
B(  3-C ,  7-H ) :   0.9692

-----------------------------------------------------------------------------
         ABSORPTION SPECTRUM VIA TRANSITION ELECTRIC DIPOLE MOMENTS
-----------------------------------------------------------------------------
State   Energy    Wavelength  fosc         T2        TX        TY        TZ
        (cm-1)      (nm)                 (au**2)    (au)      (au)      (au)
-----------------------------------------------------------------------------
   1   30897.9    323.6   0.000207479   0.00221   0.03875   0.00730   0.02561

Dispersion correction           -0.024867353
FINAL SINGLE POINT ENERGY      -189.305683222336

DIPOLE MOMENT
-------------
                                X             Y             Z
Electronic contribution:     -2.98794      -0.96174      -1.21538
Nuclear contribution   :      3.63965       1.36081       1.97025
                        -----------------------------------------
Total Dipole Moment    :      0.65171       0.39907       0.75487
                        -----------------------------------------
Magnitude (a.u.)       :      1.07416
Magnitude (Debye)      :      2.73029

Rotational constants in cm-1:     1.082597     0.157695     0.149237
Rotational constants in MHz : 32455.433794  4727.583675  4474.025745

                             ****ORCA TERMINATED NORMALLY****
TOTAL RUN TIME: 0 days 0 hours 0 minutes 11 seconds 707 msec
