                         Program Version 5.0.3 -  RELEASE  -
|  1> ! HF-3c
|  2> !TightSCF
|  3> %scf
|  4>  ConvForced true
|  5>  convergence tight
|  6>  MaxIter 500
|  7> end
|  8>
|  9> %tddft
| 10>  nroots 1
| 11> end
| 12>
| 13> # 	12872
| 14> * xyz 0 1
| 15> 		C   -1.212348  -0.338927  -0.010155
| 16> 		O   -1.785530  -0.845248  -0.802093
| 17> 		C   -0.016298   0.529271  -0.234054
| 18> 		C    1.272392   0.035924   0.153699
| 19> 		H   -1.449832  -0.458785   0.988460
| 20> 		H   -0.165975   1.415846  -0.839244
| 21> 		H    1.129286  -0.951113   0.567643
| 22> 		H    2.238271   0.596899   0.152732
| 23> *
| 24>
| 25>                          ****END OF INPUT****

CARTESIAN COORDINATES (ANGSTROEM)
---------------------------------
  C     -1.212348   -0.338927   -0.010155
  O     -1.785530   -0.845248   -0.802093
  C     -0.016298    0.529271   -0.234054
  C      1.272392    0.035924    0.153699
  H     -1.449832   -0.458785    0.988460
  H     -0.165975    1.415846   -0.839244
  H      1.129286   -0.951113    0.567643
  H      2.238271    0.596899    0.152732

 Total Charge           Charge          ....    0
 Multiplicity           Mult            ....    1
 Number of Electrons    NEL             ....   30
 Basis Dimension        Dim             ....   24

ORBITAL ENERGIES
----------------

  NO   OCC          E(Eh)            E(eV)
   0   2.0000     -20.417688      -555.5935
   1   2.0000     -11.336639      -308.4856
   2   2.0000     -11.174306      -304.0683
   3   2.0000     -11.172482      -304.0187
   4   2.0000      -1.503968       -40.9250
   5   2.0000      -1.051404       -28.6102
   6   2.0000      -0.877580       -23.8802
   7   2.0000      -0.797991       -21.7144
   8   2.0000      -0.693739       -18.8776
   9   2.0000      -0.655398       -17.8343
  10   2.0000      -0.618303       -16.8249
  11   2.0000      -0.577474       -15.7139
  12   2.0000      -0.533910       -14.5284
  13   2.0000      -0.411584       -11.1998
  14   2.0000      -0.370514       -10.0822
  15   0.0000       0.163994         4.4625
  16   0.0000       0.248883         6.7724
  17   0.0000       0.572767        15.5858
  18   0.0000       0.619239        16.8503
  19   0.0000       0.664452        18.0807

MULLIKEN ATOMIC CHARGES
-----------------------
   0 C :    0.188628
   1 O :   -0.356413
   2 C :   -0.156517
   3 C :   -0.236416
   4 H :    0.133371
   5 H :    0.144824
   6 H :    0.132403
   7 H :    0.150119
Sum of atomic charges:   -0.0000000

LOEWDIN ATOMIC CHARGES
----------------------
   0 C :    0.147107
   1 O :   -0.218641
   2 C :   -0.122125
   3 C :   -0.145665
   4 H :    0.058788
   5 H :    0.093354
   6 H :    0.085171
   7 H :    0.102010

  Mayer bond orders larger than 0.100000
B(  0-C ,  1-O ) :   1.9497 B(  0-C ,  2-C ) :   0.9707 B(  0-C ,  4-H ) :   0.9123
B(  2-C ,  3-C ) :   1.9797 B(  2-C ,  5-H ) :   0.9583 B(  3-C ,  6-H ) :   0.9699
B(  3-C ,  7-H ) :   0.9647

-----------------------------------------------------------------------------
         ABSORPTION SPECTRUM VIA TRANSITION ELECTRIC DIPOLE MOMENTS
-----------------------------------------------------------------------------
State   Energy    Wavelength  fosc         T2        TX        TY        TZ
        (cm-1)      (nm)                 (au**2)    (au)      (au)      (au)
-----------------------------------------------------------------------------
   1   40244.9    248.5   0.000154035   0.00126  -0.03046   0.00327  -0.01793

Dispersion correction           -0.025371223
FINAL SINGLE POINT ENERGY      -189.250370724556

DIPOLE MOMENT
-------------
                                X             Y             Z
Electronic contribution:     -2.79650      -0.85155      -1.11032
Nuclear contribution   :      3.38275       1.23836       1.68047
                        -----------------------------------------
Total Dipole Moment    :      0.58626       0.38681       0.57015
                        -----------------------------------------
Magnitude (a.u.)       :      0.90465
Magnitude (Debye)      :      2.29944

Rotational constants in cm-1:     1.121203     0.164186     0.157532
Rotational constants in MHz : 33612.811630  4922.164446  4722.684372

                             ****ORCA TERMINATED NORMALLY****
TOTAL RUN TIME: 0 days 0 hours 0 minutes 12 seconds 33 msec
