                         Program Version 5.0.3 -  RELEASE  -
|  1> ! HF-3c
|  2> !TightSCF
|  3> %scf
|  4>  ConvForced true
|  5>  convergence tight
|  6>  MaxIter 500
|  7> end
|  8>
|  9> %tddft
| 10>  nroots 1
| 11> end
| 12>
| 13> # 	9144
| 14> * xyz 0 1
| 15> 		C   -1.218201  -0.287638  -0.019886
| 16> 		O   -1.249676  -1.473453   0.300525
| 17> 		C    0.005167   0.504909   0.096607
| 18> 		C    1.215269  -0.025309  -0.074492
| 19> 		H   -2.070541   0.295763  -0.427937
| 20> 		H   -0.193428   1.561932   0.228243
| 21> 		H    1.271924  -1.071338  -0.169467
| 22> 		H    2.226879   0.501923   0.121633
| 23> *
| 24>
| 25>                          ****END OF INPUT****

CARTESIAN COORDINATES (ANGSTROEM)
---------------------------------
  C     -1.218201   -0.287638   -0.019886
  O     -1.249676   -1.473453    0.300525
  C      0.005167    0.504909    0.096607
  C      1.215269   -0.025309   -0.074492
  H     -2.070541    0.295763   -0.427937
  H     -0.193428    1.561932    0.228243
  H      1.271924   -1.071338   -0.169467
  H      2.226879    0.501923    0.121633

 Total Charge           Charge          ....    0
 Multiplicity           Mult            ....    1
 Number of Electrons    NEL             ....   30
 Basis Dimension        Dim             ....   24

ORBITAL ENERGIES
----------------

  NO   OCC          E(Eh)            E(eV)
   0   2.0000     -20.362740      -554.0983
   1   2.0000     -11.292318      -307.2796
   2   2.0000     -11.189078      -304.4703
   3   2.0000     -11.186308      -304.3949
   4   2.0000      -1.389578       -37.8123
   5   2.0000      -1.078380       -29.3442
   6   2.0000      -0.897106       -24.4115
   7   2.0000      -0.746503       -20.3134
   8   2.0000      -0.695802       -18.9337
   9   2.0000      -0.616172       -16.7669
  10   2.0000      -0.597435       -16.2570
  11   2.0000      -0.532254       -14.4834
  12   2.0000      -0.519683       -14.1413
  13   2.0000      -0.415034       -11.2937
  14   2.0000      -0.392977       -10.6934
  15   0.0000       0.133776         3.6402
  16   0.0000       0.291572         7.9341
  17   0.0000       0.530764        14.4428
  18   0.0000       0.639918        17.4130
  19   0.0000       0.665169        18.1002

MULLIKEN ATOMIC CHARGES
-----------------------
   0 C :    0.160226
   1 O :   -0.346487
   2 C :   -0.177874
   3 C :   -0.217765
   4 H :    0.139306
   5 H :    0.140105
   6 H :    0.151078
   7 H :    0.151410
Sum of atomic charges:    0.0000000

LOEWDIN ATOMIC CHARGES
----------------------
   0 C :    0.146881
   1 O :   -0.257853
   2 C :   -0.133499
   3 C :   -0.121598
   4 H :    0.076787
   5 H :    0.088799
   6 H :    0.095198
   7 H :    0.105286

  Mayer bond orders larger than 0.100000
B(  0-C ,  1-O ) :   1.9085 B(  0-C ,  2-C ) :   1.0299 B(  0-C ,  4-H ) :   0.9235
B(  2-C ,  3-C ) :   1.9496 B(  2-C ,  5-H ) :   0.9573 B(  3-C ,  6-H ) :   0.9608
B(  3-C ,  7-H ) :   0.9611

-----------------------------------------------------------------------------
         ABSORPTION SPECTRUM VIA TRANSITION ELECTRIC DIPOLE MOMENTS
-----------------------------------------------------------------------------
State   Energy    Wavelength  fosc         T2        TX        TY        TZ
        (cm-1)      (nm)                 (au**2)    (au)      (au)      (au)
-----------------------------------------------------------------------------
   1   31936.4    313.1   0.000005947   0.00006   0.00735  -0.00155   0.00222

Dispersion correction           -0.025798611
FINAL SINGLE POINT ENERGY      -189.340017332718

DIPOLE MOMENT
-------------
                                X             Y             Z
Electronic contribution:     -2.07682      -1.61187       0.29475
Nuclear contribution   :      2.39813       2.52879      -0.53592
                        -----------------------------------------
Total Dipole Moment    :      0.32131       0.91692      -0.24117
                        -----------------------------------------
Magnitude (a.u.)       :      1.00107
Magnitude (Debye)      :      2.54452

Rotational constants in cm-1:     0.763983     0.207178     0.166096
Rotational constants in MHz : 22903.639045  6211.038205  4979.422906

                             ****ORCA TERMINATED NORMALLY****
TOTAL RUN TIME: 0 days 0 hours 0 minutes 16 seconds 96 msec
