                         Program Version 5.0.3 -  RELEASE  -
|  1> ! B3LYP cc-pVDZ
|  2> !TightSCF
|  3> %scf
|  4>  ConvForced true
|  5>  convergence tight
|  6>  MaxIter 500
|  7> end
|  8>
|  9> %tddft
| 10>  nroots 1
| 11> end
| 12>
| 13> # 	16814
| 14> * xyz 0 1
| 15> 		C   -1.193815  -0.456330   0.043807
| 16> 		O   -1.798683  -0.945884   0.940884
| 17> 		C    0.020804   0.417473   0.312111
| 18> 		C    1.186742   0.136627  -0.210042
| 19> 		H   -1.407404  -0.601772  -0.986987
| 20> 		H   -0.081612   1.386046   0.766621
| 21> 		H    1.199830  -0.809015  -0.805102
| 22> 		H    2.109135   0.925354  -0.044608
| 23> *
| 24>
| 25>                          ****END OF INPUT****

CARTESIAN COORDINATES (ANGSTROEM)
---------------------------------
  C     -1.193815   -0.456330    0.043807
  O     -1.798683   -0.945884    0.940884
  C      0.020804    0.417473    0.312111
  C      1.186742    0.136627   -0.210042
  H     -1.407404   -0.601772   -0.986987
  H     -0.081612    1.386046    0.766621
  H      1.199830   -0.809015   -0.805102
  H      2.109135    0.925354   -0.044608

 Total Charge           Charge          ....    0
 Multiplicity           Mult            ....    1
 Number of Electrons    NEL             ....   30
 Basis Dimension        Dim             ....   76

ORBITAL ENERGIES
----------------

  NO   OCC          E(Eh)            E(eV)
   0   2.0000     -19.146878      -521.0130
   1   2.0000     -10.279443      -279.7179
   2   2.0000     -10.212117      -277.8858
   3   2.0000     -10.195199      -277.4255
   4   2.0000      -1.066364       -29.0172
   5   2.0000      -0.797487       -21.7007
   6   2.0000      -0.636987       -17.3333
   7   2.0000      -0.565584       -15.3903
   8   2.0000      -0.494283       -13.4501
   9   2.0000      -0.458165       -12.4673
  10   2.0000      -0.432013       -11.7557
  11   2.0000      -0.393364       -10.7040
  12   2.0000      -0.375717       -10.2238
  13   2.0000      -0.289628        -7.8812
  14   2.0000      -0.258009        -7.0208
  15   0.0000      -0.044990        -1.2243
  16   0.0000       0.014187         0.3861
  17   0.0000       0.064712         1.7609
  18   0.0000       0.091000         2.4762
  19   0.0000       0.115561         3.1446

MULLIKEN ATOMIC CHARGES
-----------------------
   0 C :    0.191115
   1 O :   -0.162628
   2 C :   -0.065409
   3 C :   -0.027825
   4 H :   -0.014640
   5 H :    0.004049
   6 H :    0.019565
   7 H :    0.055772
Sum of atomic charges:   -0.0000000

LOEWDIN ATOMIC CHARGES
----------------------
   0 C :   -0.025271
   1 O :    0.036663
   2 C :   -0.066587
   3 C :   -0.050028
   4 H :   -0.010719
   5 H :    0.028954
   6 H :    0.029458
   7 H :    0.057530

  Mayer bond orders larger than 0.100000
B(  0-C ,  1-O ) :   2.2399 B(  0-C ,  2-C ) :   0.9774 B(  0-C ,  4-H ) :   0.9226
B(  2-C ,  3-C ) :   2.0270 B(  2-C ,  5-H ) :   0.9440 B(  3-C ,  6-H ) :   0.9350
B(  3-C ,  7-H ) :   0.9291

-----------------------------------------------------------------------------
         ABSORPTION SPECTRUM VIA TRANSITION ELECTRIC DIPOLE MOMENTS
-----------------------------------------------------------------------------
State   Energy    Wavelength  fosc         T2        TX        TY        TZ
        (cm-1)      (nm)                 (au**2)    (au)      (au)      (au)
-----------------------------------------------------------------------------
   1   32431.6    308.3   0.000218597   0.00222   0.03511  -0.01374  -0.02824

FINAL SINGLE POINT ENERGY      -191.633346573593

DIPOLE MOMENT
-------------
                                X             Y             Z
Electronic contribution:     -2.98103      -1.25077       1.42592
Nuclear contribution   :      3.48029       1.70798      -2.04684
                        -----------------------------------------
Total Dipole Moment    :      0.49926       0.45720      -0.62091
                        -----------------------------------------
Magnitude (a.u.)       :      0.91860
Magnitude (Debye)      :      2.33491

Rotational constants in cm-1:     1.216539     0.159681     0.153647
Rotational constants in MHz : 36470.919900  4787.128903  4606.207136

                             ****ORCA TERMINATED NORMALLY****
TOTAL RUN TIME: 0 days 0 hours 3 minutes 16 seconds 130 msec
