                         Program Version 5.0.3 -  RELEASE  -
|  1> ! HF-3c
|  2> !TightSCF
|  3> %scf
|  4>  ConvForced true
|  5>  convergence tight
|  6>  MaxIter 500
|  7> end
|  8>
|  9> %tddft
| 10>  nroots 1
| 11> end
| 12>
| 13> # 	19773
| 14> * xyz 0 1
| 15> 		C   -1.215704  -0.400871   0.081519
| 16> 		O   -1.822029  -1.015981   0.833997
| 17> 		C   -0.052565   0.452953   0.286580
| 18> 		C    1.170481   0.027438  -0.221021
| 19> 		H   -1.460475  -0.419627  -0.988927
| 20> 		H   -0.263771   1.564133   0.778547
| 21> 		H    1.395628  -0.883392  -0.659636
| 22> 		H    2.124786   0.684495  -0.102313
| 23> *
| 24>
| 25>                          ****END OF INPUT****

CARTESIAN COORDINATES (ANGSTROEM)
---------------------------------
  C     -1.215704   -0.400871    0.081519
  O     -1.822029   -1.015981    0.833997
  C     -0.052565    0.452953    0.286580
  C      1.170481    0.027438   -0.221021
  H     -1.460475   -0.419627   -0.988927
  H     -0.263771    1.564133    0.778547
  H      1.395628   -0.883392   -0.659636
  H      2.124786    0.684495   -0.102313

 Total Charge           Charge          ....    0
 Multiplicity           Mult            ....    1
 Number of Electrons    NEL             ....   30
 Basis Dimension        Dim             ....   24

ORBITAL ENERGIES
----------------

  NO   OCC          E(Eh)            E(eV)
   0   2.0000     -20.396391      -555.0140
   1   2.0000     -11.316851      -307.9472
   2   2.0000     -11.186527      -304.4009
   3   2.0000     -11.173360      -304.0426
   4   2.0000      -1.457709       -39.6663
   5   2.0000      -1.062038       -28.8995
   6   2.0000      -0.881493       -23.9866
   7   2.0000      -0.763423       -20.7738
   8   2.0000      -0.680008       -18.5040
   9   2.0000      -0.635465       -17.2919
  10   2.0000      -0.614234       -16.7142
  11   2.0000      -0.542230       -14.7548
  12   2.0000      -0.522189       -14.2095
  13   2.0000      -0.410078       -11.1588
  14   2.0000      -0.375309       -10.2127
  15   0.0000       0.176702         4.8083
  16   0.0000       0.232764         6.3338
  17   0.0000       0.501306        13.6412
  18   0.0000       0.582948        15.8628
  19   0.0000       0.662223        18.0200

MULLIKEN ATOMIC CHARGES
-----------------------
   0 C :    0.182354
   1 O :   -0.353540
   2 C :   -0.146997
   3 C :   -0.244232
   4 H :    0.129833
   5 H :    0.160257
   6 H :    0.135324
   7 H :    0.137001
Sum of atomic charges:   -0.0000000

LOEWDIN ATOMIC CHARGES
----------------------
   0 C :    0.149404
   1 O :   -0.234743
   2 C :   -0.117152
   3 C :   -0.156187
   4 H :    0.063282
   5 H :    0.118671
   6 H :    0.082737
   7 H :    0.093987

  Mayer bond orders larger than 0.100000
B(  0-C ,  1-O ) :   1.9444 B(  0-C ,  2-C ) :   0.9929 B(  0-C ,  4-H ) :   0.9073
B(  2-C ,  3-C ) :   1.9830 B(  2-C ,  5-H ) :   0.9415 B(  3-C ,  6-H ) :   0.9694
B(  3-C ,  7-H ) :   0.9648

-----------------------------------------------------------------------------
         ABSORPTION SPECTRUM VIA TRANSITION ELECTRIC DIPOLE MOMENTS
-----------------------------------------------------------------------------
State   Energy    Wavelength  fosc         T2        TX        TY        TZ
        (cm-1)      (nm)                 (au**2)    (au)      (au)      (au)
-----------------------------------------------------------------------------
   1   37887.3    263.9   0.000197262   0.00171   0.03925  -0.01314  -0.00085

Dispersion correction           -0.024862218
FINAL SINGLE POINT ENERGY      -189.272751583690

DIPOLE MOMENT
-------------
                                X             Y             Z
Electronic contribution:     -2.95142      -1.21911       1.29049
Nuclear contribution   :      3.57436       1.83620      -1.84939
                        -----------------------------------------
Total Dipole Moment    :      0.62294       0.61708      -0.55890
                        -----------------------------------------
Magnitude (a.u.)       :      1.03981
Magnitude (Debye)      :      2.64300

Rotational constants in cm-1:     1.109027     0.162562     0.154515
Rotational constants in MHz : 33247.798506  4873.477561  4632.255266

                             ****ORCA TERMINATED NORMALLY****
TOTAL RUN TIME: 0 days 0 hours 0 minutes 13 seconds 95 msec
