                         Program Version 5.0.3 -  RELEASE  -
|  1> ! HF-3c
|  2> !TightSCF
|  3> %scf
|  4>  ConvForced true
|  5>  convergence tight
|  6>  MaxIter 500
|  7> end
|  8>
|  9> %tddft
| 10>  nroots 1
| 11> end
| 12>
| 13> # 	26862
| 14> * xyz 0 1
| 15> 		C   -0.591211  -0.415002   0.039135
| 16> 		O   -0.576686  -1.628468  -0.010586
| 17> 		C    0.625569   0.386134  -0.014161
| 18> 		C    1.843263  -0.118815  -0.004881
| 19> 		H   -1.577796   0.120721  -0.107337
| 20> 		H    0.431026   1.473230  -0.043976
| 21> 		H    2.079179  -1.165124  -0.019055
| 22> 		H    2.790372   0.453313   0.104197
| 23> *
| 24>
| 25>                          ****END OF INPUT****

CARTESIAN COORDINATES (ANGSTROEM)
---------------------------------
  C     -0.591211   -0.415002    0.039135
  O     -0.576686   -1.628468   -0.010586
  C      0.625569    0.386134   -0.014161
  C      1.843263   -0.118815   -0.004881
  H     -1.577796    0.120721   -0.107337
  H      0.431026    1.473230   -0.043976
  H      2.079179   -1.165124   -0.019055
  H      2.790372    0.453313    0.104197

 Total Charge           Charge          ....    0
 Multiplicity           Mult            ....    1
 Number of Electrons    NEL             ....   30
 Basis Dimension        Dim             ....   24

ORBITAL ENERGIES
----------------

  NO   OCC          E(Eh)            E(eV)
   0   2.0000     -20.359648      -554.0142
   1   2.0000     -11.291641      -307.2612
   2   2.0000     -11.194373      -304.6144
   3   2.0000     -11.191574      -304.5382
   4   2.0000      -1.397092       -38.0168
   5   2.0000      -1.079935       -29.3865
   6   2.0000      -0.894928       -24.3522
   7   2.0000      -0.747450       -20.3392
   8   2.0000      -0.698175       -18.9983
   9   2.0000      -0.625091       -17.0096
  10   2.0000      -0.588008       -16.0005
  11   2.0000      -0.540379       -14.7045
  12   2.0000      -0.522241       -14.2109
  13   2.0000      -0.413587       -11.2543
  14   2.0000      -0.393608       -10.7106
  15   0.0000       0.128971         3.5095
  16   0.0000       0.315918         8.5966
  17   0.0000       0.516133        14.0447
  18   0.0000       0.641338        17.4517
  19   0.0000       0.677630        18.4393

MULLIKEN ATOMIC CHARGES
-----------------------
   0 C :    0.160782
   1 O :   -0.350548
   2 C :   -0.179993
   3 C :   -0.212385
   4 H :    0.137537
   5 H :    0.142951
   6 H :    0.154705
   7 H :    0.146952
Sum of atomic charges:    0.0000000

LOEWDIN ATOMIC CHARGES
----------------------
   0 C :    0.140955
   1 O :   -0.257553
   2 C :   -0.136299
   3 C :   -0.112910
   4 H :    0.076558
   5 H :    0.092429
   6 H :    0.099266
   7 H :    0.097555

  Mayer bond orders larger than 0.100000
B(  0-C ,  1-O ) :   1.8989 B(  0-C ,  2-C ) :   1.0346 B(  0-C ,  4-H ) :   0.9249
B(  2-C ,  3-C ) :   1.9451 B(  2-C ,  5-H ) :   0.9566 B(  3-C ,  6-H ) :   0.9601
B(  3-C ,  7-H ) :   0.9630

-----------------------------------------------------------------------------
         ABSORPTION SPECTRUM VIA TRANSITION ELECTRIC DIPOLE MOMENTS
-----------------------------------------------------------------------------
State   Energy    Wavelength  fosc         T2        TX        TY        TZ
        (cm-1)      (nm)                 (au**2)    (au)      (au)      (au)
-----------------------------------------------------------------------------
   1   31271.7    319.8   0.000074477   0.00078  -0.02599   0.00294  -0.00999

Dispersion correction           -0.025572974
FINAL SINGLE POINT ENERGY      -189.346726023281

DIPOLE MOMENT
-------------
                                X             Y             Z
Electronic contribution:     -2.00694      -1.68462       0.07699
Nuclear contribution   :      2.33644       2.61378      -0.06259
                        -----------------------------------------
Total Dipole Moment    :      0.32950       0.92916       0.01440
                        -----------------------------------------
Magnitude (a.u.)       :      0.98596
Magnitude (Debye)      :      2.50610

Rotational constants in cm-1:     0.769799     0.210153     0.165240
Rotational constants in MHz : 23077.999825  6300.222174  4953.758802

                             ****ORCA TERMINATED NORMALLY****
TOTAL RUN TIME: 0 days 0 hours 0 minutes 15 seconds 822 msec
