                         Program Version 5.0.3 -  RELEASE  -
|  1> ! B3LYP cc-pVDZ
|  2> !TightSCF
|  3> %scf
|  4>  ConvForced true
|  5>  convergence tight
|  6>  MaxIter 500
|  7> end
|  8>
|  9> %tddft
| 10>  nroots 1
| 11> end
| 12>
| 13> # 	17412
| 14> * xyz 0 1
| 15> 		C   -1.201453  -0.369978  -0.031690
| 16> 		O   -1.649818  -1.074524  -0.828214
| 17> 		C   -0.007222   0.430718  -0.239104
| 18> 		C    1.244079   0.010497   0.211300
| 19> 		H   -1.779244  -0.085694   0.911349
| 20> 		H   -0.109328   1.571977  -0.691402
| 21> 		H    1.425274  -1.020915   0.588579
| 22> 		H    2.035281   0.551270   0.060965
| 23> *
| 24>
| 25>                          ****END OF INPUT****

CARTESIAN COORDINATES (ANGSTROEM)
---------------------------------
  C     -1.201453   -0.369978   -0.031690
  O     -1.649818   -1.074524   -0.828214
  C     -0.007222    0.430718   -0.239104
  C      1.244079    0.010497    0.211300
  H     -1.779244   -0.085694    0.911349
  H     -0.109328    1.571977   -0.691402
  H      1.425274   -1.020915    0.588579
  H      2.035281    0.551270    0.060965

 Total Charge           Charge          ....    0
 Multiplicity           Mult            ....    1
 Number of Electrons    NEL             ....   30
 Basis Dimension        Dim             ....   76

ORBITAL ENERGIES
----------------

  NO   OCC          E(Eh)            E(eV)
   0   2.0000     -19.145701      -520.9810
   1   2.0000     -10.278524      -279.6929
   2   2.0000     -10.220431      -278.1121
   3   2.0000     -10.201140      -277.5871
   4   2.0000      -1.086724       -29.5713
   5   2.0000      -0.785111       -21.3640
   6   2.0000      -0.659514       -17.9463
   7   2.0000      -0.546332       -14.8664
   8   2.0000      -0.492859       -13.4114
   9   2.0000      -0.467092       -12.7102
  10   2.0000      -0.450327       -12.2540
  11   2.0000      -0.405983       -11.0474
  12   2.0000      -0.376320       -10.2402
  13   2.0000      -0.275447        -7.4953
  14   2.0000      -0.256822        -6.9885
  15   0.0000      -0.028003        -0.7620
  16   0.0000      -0.021412        -0.5827
  17   0.0000       0.071294         1.9400
  18   0.0000       0.095975         2.6116
  19   0.0000       0.103371         2.8129

MULLIKEN ATOMIC CHARGES
-----------------------
   0 C :    0.174814
   1 O :   -0.129688
   2 C :   -0.166932
   3 C :    0.070049
   4 H :   -0.024021
   5 H :    0.058633
   6 H :    0.031057
   7 H :   -0.013913
Sum of atomic charges:    0.0000000

LOEWDIN ATOMIC CHARGES
----------------------
   0 C :   -0.077378
   1 O :    0.069849
   2 C :   -0.057793
   3 C :   -0.012480
   4 H :   -0.009795
   5 H :    0.064469
   6 H :    0.034082
   7 H :   -0.010953

  Mayer bond orders larger than 0.100000
B(  0-C ,  1-O ) :   2.2865 B(  0-C ,  2-C ) :   0.9852 B(  0-C ,  4-H ) :   0.8992
B(  2-C ,  3-C ) :   2.0211 B(  2-C ,  5-H ) :   0.9199 B(  3-C ,  6-H ) :   0.9571
B(  3-C ,  7-H ) :   0.9490

-----------------------------------------------------------------------------
         ABSORPTION SPECTRUM VIA TRANSITION ELECTRIC DIPOLE MOMENTS
-----------------------------------------------------------------------------
State   Energy    Wavelength  fosc         T2        TX        TY        TZ
        (cm-1)      (nm)                 (au**2)    (au)      (au)      (au)
-----------------------------------------------------------------------------
   1   35243.6    283.7   0.001654859   0.01546   0.11572   0.03595  -0.02782

FINAL SINGLE POINT ENERGY      -191.603371885359

DIPOLE MOMENT
-------------
                                X             Y             Z
Electronic contribution:     -2.60654      -1.41980      -1.25041
Nuclear contribution   :      3.08911       1.96679       1.68305
                        -----------------------------------------
Total Dipole Moment    :      0.48257       0.54699       0.43264
                        -----------------------------------------
Magnitude (a.u.)       :      0.84808
Magnitude (Debye)      :      2.15566

Rotational constants in cm-1:     0.994387     0.168843     0.159808
Rotational constants in MHz : 29810.958792  5061.785547  4790.917732

                             ****ORCA TERMINATED NORMALLY****
TOTAL RUN TIME: 0 days 0 hours 3 minutes 23 seconds 737 msec
