                         Program Version 5.0.3 -  RELEASE  -
|  1> ! B3LYP cc-pVDZ
|  2> !TightSCF
|  3> %scf
|  4>  ConvForced true
|  5>  convergence tight
|  6>  MaxIter 500
|  7> end
|  8>
|  9> %tddft
| 10>  nroots 1
| 11> end
| 12>
| 13> # 	11367
| 14> * xyz 0 1
| 15> 		C   -1.148495  -0.333409  -0.070391
| 16> 		O   -1.522986  -1.167878   0.748716
| 17> 		C   -0.026695   0.569443   0.120860
| 18> 		C    1.225645   0.034381  -0.135975
| 19> 		H   -1.828086  -0.219587  -0.872425
| 20> 		H   -0.190341   1.576883   0.680147
| 21> 		H    1.332964  -1.044237  -0.554304
| 22> 		H    2.099819   0.604601   0.064853
| 23> *
| 24>
| 25>                          ****END OF INPUT****

CARTESIAN COORDINATES (ANGSTROEM)
---------------------------------
  C     -1.148495   -0.333409   -0.070391
  O     -1.522986   -1.167878    0.748716
  C     -0.026695    0.569443    0.120860
  C      1.225645    0.034381   -0.135975
  H     -1.828086   -0.219587   -0.872425
  H     -0.190341    1.576883    0.680147
  H      1.332964   -1.044237   -0.554304
  H      2.099819    0.604601    0.064853

 Total Charge           Charge          ....    0
 Multiplicity           Mult            ....    1
 Number of Electrons    NEL             ....   30
 Basis Dimension        Dim             ....   76

ORBITAL ENERGIES
----------------

  NO   OCC          E(Eh)            E(eV)
   0   2.0000     -19.137904      -520.7688
   1   2.0000     -10.272255      -279.5223
   2   2.0000     -10.218694      -278.0648
   3   2.0000     -10.217188      -278.0238
   4   2.0000      -1.038662       -28.2634
   5   2.0000      -0.789496       -21.4833
   6   2.0000      -0.651978       -17.7412
   7   2.0000      -0.556761       -15.1502
   8   2.0000      -0.496950       -13.5227
   9   2.0000      -0.450273       -12.2525
  10   2.0000      -0.433726       -11.8023
  11   2.0000      -0.391140       -10.6435
  12   2.0000      -0.365153        -9.9363
  13   2.0000      -0.280837        -7.6420
  14   2.0000      -0.250850        -6.8260
  15   0.0000      -0.038263        -1.0412
  16   0.0000      -0.024278        -0.6606
  17   0.0000       0.075041         2.0420
  18   0.0000       0.084980         2.3124
  19   0.0000       0.108602         2.9552

MULLIKEN ATOMIC CHARGES
-----------------------
   0 C :    0.197180
   1 O :   -0.202286
   2 C :   -0.115061
   3 C :    0.008030
   4 H :   -0.020379
   5 H :    0.054102
   6 H :    0.051766
   7 H :    0.026647
Sum of atomic charges:    0.0000000

LOEWDIN ATOMIC CHARGES
----------------------
   0 C :   -0.016366
   1 O :   -0.009480
   2 C :   -0.065955
   3 C :   -0.019483
   4 H :   -0.010709
   5 H :    0.057352
   6 H :    0.045178
   7 H :    0.019463

  Mayer bond orders larger than 0.100000
B(  0-C ,  1-O ) :   2.2047 B(  0-C ,  2-C ) :   0.9975 B(  0-C ,  4-H ) :   0.9385
B(  2-C ,  3-C ) :   1.9993 B(  2-C ,  5-H ) :   0.9318 B(  3-C ,  6-H ) :   0.9481
B(  3-C ,  7-H ) :   0.9510

-----------------------------------------------------------------------------
         ABSORPTION SPECTRUM VIA TRANSITION ELECTRIC DIPOLE MOMENTS
-----------------------------------------------------------------------------
State   Energy    Wavelength  fosc         T2        TX        TY        TZ
        (cm-1)      (nm)                 (au**2)    (au)      (au)      (au)
-----------------------------------------------------------------------------
   1   31015.3    322.4   0.000291756   0.00310   0.05165   0.01018   0.01804

FINAL SINGLE POINT ENERGY      -191.638743564845

DIPOLE MOMENT
-------------
                                X             Y             Z
Electronic contribution:     -2.33095      -1.13724       0.84680
Nuclear contribution   :      2.80527       1.81885      -1.31828
                        -----------------------------------------
Total Dipole Moment    :      0.47432       0.68161      -0.47148
                        -----------------------------------------
Magnitude (a.u.)       :      0.95492
Magnitude (Debye)      :      2.42721

Rotational constants in cm-1:     0.852912     0.179649     0.164073
Rotational constants in MHz : 25569.670537  5385.729152  4918.793796

                             ****ORCA TERMINATED NORMALLY****
TOTAL RUN TIME: 0 days 0 hours 3 minutes 21 seconds 719 msec
