                         Program Version 5.0.3 -  RELEASE  -
|  1> ! B3LYP cc-pVDZ
|  2> !TightSCF
|  3> %scf
|  4>  ConvForced true
|  5>  convergence tight
|  6>  MaxIter 500
|  7> end
|  8>
|  9> %tddft
| 10>  nroots 1
| 11> end
| 12>
| 13> # 	29533
| 14> * xyz 0 1
| 15> 		C   -0.600314  -0.426661  -0.029157
| 16> 		O   -0.523461  -1.616871   0.010729
| 17> 		C    0.643840   0.447810   0.015100
| 18> 		C    1.815468  -0.180590  -0.018846
| 19> 		H   -1.538525   0.166665   0.076100
| 20> 		H    0.395216   1.563343   0.022201
| 21> 		H    1.601340  -1.339238   0.048530
| 22> 		H    2.649053   0.415895   0.078606
| 23> *
| 24>
| 25>                          ****END OF INPUT****

CARTESIAN COORDINATES (ANGSTROEM)
---------------------------------
  C     -0.600314   -0.426661   -0.029157
  O     -0.523461   -1.616871    0.010729
  C      0.643840    0.447810    0.015100
  C      1.815468   -0.180590   -0.018846
  H     -1.538525    0.166665    0.076100
  H      0.395216    1.563343    0.022201
  H      1.601340   -1.339238    0.048530
  H      2.649053    0.415895    0.078606

 Total Charge           Charge          ....    0
 Multiplicity           Mult            ....    1
 Number of Electrons    NEL             ....   30
 Basis Dimension        Dim             ....   76

ORBITAL ENERGIES
----------------

  NO   OCC          E(Eh)            E(eV)
   0   2.0000     -19.145198      -520.9673
   1   2.0000     -10.276679      -279.6426
   2   2.0000     -10.205227      -277.6984
   3   2.0000     -10.202034      -277.6115
   4   2.0000      -1.062327       -28.9074
   5   2.0000      -0.789999       -21.4970
   6   2.0000      -0.650348       -17.6969
   7   2.0000      -0.532021       -14.4770
   8   2.0000      -0.507754       -13.8167
   9   2.0000      -0.448580       -12.2065
  10   2.0000      -0.422219       -11.4892
  11   2.0000      -0.406759       -11.0685
  12   2.0000      -0.370744       -10.0885
  13   2.0000      -0.286169        -7.7871
  14   2.0000      -0.260435        -7.0868
  15   0.0000      -0.064518        -1.7556
  16   0.0000       0.058279         1.5858
  17   0.0000       0.067197         1.8285
  18   0.0000       0.090221         2.4550
  19   0.0000       0.123100         3.3497

MULLIKEN ATOMIC CHARGES
-----------------------
   0 C :    0.185969
   1 O :   -0.179772
   2 C :   -0.166663
   3 C :    0.098949
   4 H :   -0.013178
   5 H :   -0.001431
   6 H :    0.068520
   7 H :    0.007606
Sum of atomic charges:   -0.0000000

LOEWDIN ATOMIC CHARGES
----------------------
   0 C :   -0.035986
   1 O :    0.016231
   2 C :   -0.088778
   3 C :    0.008810
   4 H :   -0.004241
   5 H :    0.029114
   6 H :    0.060563
   7 H :    0.014287

  Mayer bond orders larger than 0.100000
B(  0-C ,  1-O ) :   2.1808 B(  0-C ,  2-C ) :   1.0397 B(  0-C ,  4-H ) :   0.9148
B(  2-C ,  3-C ) :   1.9715 B(  2-C ,  5-H ) :   0.9473 B(  3-C ,  6-H ) :   0.8947
B(  3-C ,  7-H ) :   0.9390

-----------------------------------------------------------------------------
         ABSORPTION SPECTRUM VIA TRANSITION ELECTRIC DIPOLE MOMENTS
-----------------------------------------------------------------------------
State   Energy    Wavelength  fosc         T2        TX        TY        TZ
        (cm-1)      (nm)                 (au**2)    (au)      (au)      (au)
-----------------------------------------------------------------------------
   1   29948.5    333.9   0.000352768   0.00388  -0.03782   0.00445   0.04927

FINAL SINGLE POINT ENERGY      -191.652909150133

DIPOLE MOMENT
-------------
                                X             Y             Z
Electronic contribution:     -1.56186      -1.71091      -0.18783
Nuclear contribution   :      1.75911       2.54528       0.21141
                        -----------------------------------------
Total Dipole Moment    :      0.19725       0.83436       0.02358
                        -----------------------------------------
Magnitude (a.u.)       :      0.85769
Magnitude (Debye)      :      2.18007

Rotational constants in cm-1:     0.725703     0.223504     0.170995
Rotational constants in MHz : 21756.024072  6700.481267  5126.291898

                             ****ORCA TERMINATED NORMALLY****
TOTAL RUN TIME: 0 days 0 hours 3 minutes 14 seconds 154 msec
