                         Program Version 5.0.3 -  RELEASE  -
|  1> ! HF-3c
|  2> !TightSCF
|  3> %scf
|  4>  ConvForced true
|  5>  convergence tight
|  6>  MaxIter 500
|  7> end
|  8>
|  9> %tddft
| 10>  nroots 1
| 11> end
| 12>
| 13> # 	11005
| 14> * xyz 0 1
| 15> 		C   -1.146752  -0.311157   0.063205
| 16> 		O   -1.390899  -1.461143  -0.429509
| 17> 		C    0.044202   0.477237  -0.229170
| 18> 		C    1.178743   0.071948   0.138150
| 19> 		H   -2.039441   0.182896   0.791877
| 20> 		H   -0.067789   1.413908  -0.639024
| 21> 		H    1.263406  -1.002415   0.509912
| 22> 		H    2.116420   0.678230  -0.116358
| 23> *
| 24>
| 25>                          ****END OF INPUT****

CARTESIAN COORDINATES (ANGSTROEM)
---------------------------------
  C     -1.146752   -0.311157    0.063205
  O     -1.390899   -1.461143   -0.429509
  C      0.044202    0.477237   -0.229170
  C      1.178743    0.071948    0.138150
  H     -2.039441    0.182896    0.791877
  H     -0.067789    1.413908   -0.639024
  H      1.263406   -1.002415    0.509912
  H      2.116420    0.678230   -0.116358

 Total Charge           Charge          ....    0
 Multiplicity           Mult            ....    1
 Number of Electrons    NEL             ....   30
 Basis Dimension        Dim             ....   24

ORBITAL ENERGIES
----------------

  NO   OCC          E(Eh)            E(eV)
   0   2.0000     -20.346482      -553.6559
   1   2.0000     -11.279379      -306.9275
   2   2.0000     -11.199353      -304.7499
   3   2.0000     -11.190880      -304.5193
   4   2.0000      -1.353168       -36.8216
   5   2.0000      -1.110915       -30.2295
   6   2.0000      -0.875800       -23.8317
   7   2.0000      -0.746594       -20.3158
   8   2.0000      -0.683730       -18.6052
   9   2.0000      -0.615478       -16.7480
  10   2.0000      -0.586774       -15.9669
  11   2.0000      -0.529275       -14.4023
  12   2.0000      -0.481697       -13.1076
  13   2.0000      -0.418819       -11.3966
  14   2.0000      -0.403666       -10.9843
  15   0.0000       0.161738         4.4011
  16   0.0000       0.254614         6.9284
  17   0.0000       0.486792        13.2463
  18   0.0000       0.584674        15.9098
  19   0.0000       0.602550        16.3962

MULLIKEN ATOMIC CHARGES
-----------------------
   0 C :    0.170697
   1 O :   -0.344543
   2 C :   -0.206416
   3 C :   -0.215377
   4 H :    0.139070
   5 H :    0.153679
   6 H :    0.153063
   7 H :    0.149827
Sum of atomic charges:    0.0000000

LOEWDIN ATOMIC CHARGES
----------------------
   0 C :    0.153287
   1 O :   -0.268857
   2 C :   -0.146645
   3 C :   -0.129698
   4 H :    0.089405
   5 H :    0.095622
   6 H :    0.104393
   7 H :    0.102493

  Mayer bond orders larger than 0.100000
B(  0-C ,  1-O ) :   1.9291 B(  0-C ,  2-C ) :   1.0123 B(  0-C ,  4-H ) :   0.9105
B(  2-C ,  3-C ) :   1.9821 B(  2-C ,  5-H ) :   0.9468 B(  3-C ,  6-H ) :   0.9563
B(  3-C ,  7-H ) :   0.9568

-----------------------------------------------------------------------------
         ABSORPTION SPECTRUM VIA TRANSITION ELECTRIC DIPOLE MOMENTS
-----------------------------------------------------------------------------
State   Energy    Wavelength  fosc         T2        TX        TY        TZ
        (cm-1)      (nm)                 (au**2)    (au)      (au)      (au)
-----------------------------------------------------------------------------
   1   31101.6    321.5   0.000084698   0.00090   0.02832  -0.00960   0.00160

Dispersion correction           -0.025584149
FINAL SINGLE POINT ENERGY      -189.311421921253

DIPOLE MOMENT
-------------
                                X             Y             Z
Electronic contribution:     -2.11060      -1.56836      -0.54818
Nuclear contribution   :      2.52105       2.46493       0.95349
                        -----------------------------------------
Total Dipole Moment    :      0.41045       0.89657       0.40531
                        -----------------------------------------
Magnitude (a.u.)       :      1.06610
Magnitude (Debye)      :      2.70982

Rotational constants in cm-1:     0.858353     0.187573     0.164361
Rotational constants in MHz : 25732.771069  5623.298014  4927.426219

                             ****ORCA TERMINATED NORMALLY****
TOTAL RUN TIME: 0 days 0 hours 0 minutes 13 seconds 460 msec
