                         Program Version 5.0.3 -  RELEASE  -
|  1> ! HF-3c
|  2> !TightSCF
|  3> %scf
|  4>  ConvForced true
|  5>  convergence tight
|  6>  MaxIter 500
|  7> end
|  8>
|  9> %tddft
| 10>  nroots 1
| 11> end
| 12>
| 13> # 	20497
| 14> * xyz 0 1
| 15> 		C   -0.617645  -0.465042  -0.039130
| 16> 		O   -0.589233  -1.629694   0.008106
| 17> 		C    0.624151   0.404890   0.012994
| 18> 		C    1.881239  -0.080845   0.005484
| 19> 		H   -1.501343   0.128377   0.267339
| 20> 		H    0.491666   1.400057  -0.160451
| 21> 		H    1.859479  -1.345641  -0.112788
| 22> 		H    2.959873   0.590687   0.120949
| 23> *
| 24>
| 25>                          ****END OF INPUT****

CARTESIAN COORDINATES (ANGSTROEM)
---------------------------------
  C     -0.617645   -0.465042   -0.039130
  O     -0.589233   -1.629694    0.008106
  C      0.624151    0.404890    0.012994
  C      1.881239   -0.080845    0.005484
  H     -1.501343    0.128377    0.267339
  H      0.491666    1.400057   -0.160451
  H      1.859479   -1.345641   -0.112788
  H      2.959873    0.590687    0.120949

 Total Charge           Charge          ....    0
 Multiplicity           Mult            ....    1
 Number of Electrons    NEL             ....   30
 Basis Dimension        Dim             ....   24

ORBITAL ENERGIES
----------------

  NO   OCC          E(Eh)            E(eV)
   0   2.0000     -20.377555      -554.5015
   1   2.0000     -11.304337      -307.6067
   2   2.0000     -11.178794      -304.1904
   3   2.0000     -11.160731      -303.6989
   4   2.0000      -1.435294       -39.0563
   5   2.0000      -1.052920       -28.6514
   6   2.0000      -0.864560       -23.5259
   7   2.0000      -0.725205       -19.7338
   8   2.0000      -0.697981       -18.9930
   9   2.0000      -0.608138       -16.5483
  10   2.0000      -0.574689       -15.6381
  11   2.0000      -0.553145       -15.0518
  12   2.0000      -0.489174       -13.3111
  13   2.0000      -0.402679       -10.9574
  14   2.0000      -0.380389       -10.3509
  15   0.0000       0.147093         4.0026
  16   0.0000       0.302606         8.2343
  17   0.0000       0.441205        12.0058
  18   0.0000       0.493440        13.4272
  19   0.0000       0.666640        18.1402

MULLIKEN ATOMIC CHARGES
-----------------------
   0 C :    0.183177
   1 O :   -0.366706
   2 C :   -0.218346
   3 C :   -0.173603
   4 H :    0.134290
   5 H :    0.129525
   6 H :    0.156669
   7 H :    0.154993
Sum of atomic charges:   -0.0000000

LOEWDIN ATOMIC CHARGES
----------------------
   0 C :    0.153138
   1 O :   -0.254520
   2 C :   -0.180159
   3 C :   -0.099095
   4 H :    0.069814
   5 H :    0.076126
   6 H :    0.117128
   7 H :    0.117568

  Mayer bond orders larger than 0.100000
B(  0-C ,  1-O ) :   1.9194 B(  0-C ,  2-C ) :   0.9969 B(  0-C ,  4-H ) :   0.9169
B(  2-C ,  3-C ) :   1.9441 B(  2-C ,  5-H ) :   0.9647 B(  3-C ,  6-H ) :   0.9466
B(  3-C ,  7-H ) :   0.9524

-----------------------------------------------------------------------------
         ABSORPTION SPECTRUM VIA TRANSITION ELECTRIC DIPOLE MOMENTS
-----------------------------------------------------------------------------
State   Energy    Wavelength  fosc         T2        TX        TY        TZ
        (cm-1)      (nm)                 (au**2)    (au)      (au)      (au)
-----------------------------------------------------------------------------
   1   35071.6    285.1   0.000952086   0.00894  -0.09246  -0.00420   0.01923

Dispersion correction           -0.025467267
FINAL SINGLE POINT ENERGY      -189.271385673691

DIPOLE MOMENT
-------------
                                X             Y             Z
Electronic contribution:     -1.96667      -1.70133      -0.13134
Nuclear contribution   :      2.41721       2.51510       0.10822
                        -----------------------------------------
Total Dipole Moment    :      0.45054       0.81378      -0.02313
                        -----------------------------------------
Magnitude (a.u.)       :      0.93046
Magnitude (Debye)      :      2.36504

Rotational constants in cm-1:     0.789837     0.200174     0.160147
Rotational constants in MHz : 23678.722691  6001.079895  4801.080554

                             ****ORCA TERMINATED NORMALLY****
TOTAL RUN TIME: 0 days 0 hours 0 minutes 10 seconds 682 msec
