                         Program Version 5.0.3 -  RELEASE  -
|  1> ! HF-3c
|  2> !TightSCF
|  3> %scf
|  4>  ConvForced true
|  5>  convergence tight
|  6>  MaxIter 500
|  7> end
|  8>
|  9> %tddft
| 10>  nroots 1
| 11> end
| 12>
| 13> # 	26929
| 14> * xyz 0 1
| 15> 		C   -0.569748  -0.425374  -0.019833
| 16> 		O   -0.578521  -1.631792   0.016431
| 17> 		C    0.651672   0.414093   0.056111
| 18> 		C    1.811901  -0.148124  -0.034598
| 19> 		H   -1.592324   0.065652  -0.373078
| 20> 		H    0.548959   1.476361   0.179044
| 21> 		H    1.865806  -1.059686   0.132446
| 22> 		H    2.764131   0.556536  -0.219382
| 23> *
| 24>
| 25>                          ****END OF INPUT****

CARTESIAN COORDINATES (ANGSTROEM)
---------------------------------
  C     -0.569748   -0.425374   -0.019833
  O     -0.578521   -1.631792    0.016431
  C      0.651672    0.414093    0.056111
  C      1.811901   -0.148124   -0.034598
  H     -1.592324    0.065652   -0.373078
  H      0.548959    1.476361    0.179044
  H      1.865806   -1.059686    0.132446
  H      2.764131    0.556536   -0.219382

 Total Charge           Charge          ....    0
 Multiplicity           Mult            ....    1
 Number of Electrons    NEL             ....   30
 Basis Dimension        Dim             ....   24

ORBITAL ENERGIES
----------------

  NO   OCC          E(Eh)            E(eV)
   0   2.0000     -20.359987      -554.0234
   1   2.0000     -11.292315      -307.2795
   2   2.0000     -11.197936      -304.7113
   3   2.0000     -11.196242      -304.6652
   4   2.0000      -1.402363       -38.1602
   5   2.0000      -1.103049       -30.0155
   6   2.0000      -0.885677       -24.1005
   7   2.0000      -0.756694       -20.5907
   8   2.0000      -0.704148       -19.1608
   9   2.0000      -0.624925       -17.0051
  10   2.0000      -0.586392       -15.9565
  11   2.0000      -0.555741       -15.1225
  12   2.0000      -0.528451       -14.3799
  13   2.0000      -0.408485       -11.1154
  14   2.0000      -0.400950       -10.9104
  15   0.0000       0.139210         3.7881
  16   0.0000       0.296711         8.0739
  17   0.0000       0.502402        13.6711
  18   0.0000       0.587394        15.9838
  19   0.0000       0.634531        17.2665

MULLIKEN ATOMIC CHARGES
-----------------------
   0 C :    0.174586
   1 O :   -0.359684
   2 C :   -0.174896
   3 C :   -0.238956
   4 H :    0.135244
   5 H :    0.147366
   6 H :    0.155156
   7 H :    0.161182
Sum of atomic charges:   -0.0000000

LOEWDIN ATOMIC CHARGES
----------------------
   0 C :    0.146579
   1 O :   -0.264319
   2 C :   -0.125445
   3 C :   -0.134039
   4 H :    0.078668
   5 H :    0.093264
   6 H :    0.087957
   7 H :    0.117335

  Mayer bond orders larger than 0.100000
B(  0-C ,  1-O ) :   1.9137 B(  0-C ,  2-C ) :   1.0129 B(  0-C ,  4-H ) :   0.9179
B(  2-C ,  3-C ) :   1.9586 B(  2-C ,  5-H ) :   0.9585 B(  3-C ,  6-H ) :   0.9633
B(  3-C ,  7-H ) :   0.9560

-----------------------------------------------------------------------------
         ABSORPTION SPECTRUM VIA TRANSITION ELECTRIC DIPOLE MOMENTS
-----------------------------------------------------------------------------
State   Energy    Wavelength  fosc         T2        TX        TY        TZ
        (cm-1)      (nm)                 (au**2)    (au)      (au)      (au)
-----------------------------------------------------------------------------
   1   32764.9    305.2   0.000078084   0.00078  -0.01584  -0.00640  -0.02220

Dispersion correction           -0.026080906
FINAL SINGLE POINT ENERGY      -189.294274179093

DIPOLE MOMENT
-------------
                                X             Y             Z
Electronic contribution:     -1.90007      -1.72885       0.18941
Nuclear contribution   :      2.20674       2.76319      -0.26335
                        -----------------------------------------
Total Dipole Moment    :      0.30668       1.03433      -0.07394
                        -----------------------------------------
Magnitude (a.u.)       :      1.08137
Magnitude (Debye)      :      2.74863

Rotational constants in cm-1:     0.795199     0.211242     0.167902
Rotational constants in MHz : 23839.477437  6332.868355  5033.569617

                             ****ORCA TERMINATED NORMALLY****
TOTAL RUN TIME: 0 days 0 hours 0 minutes 11 seconds 456 msec
