                         Program Version 5.0.3 -  RELEASE  -
|  1> ! B3LYP cc-pVDZ
|  2> !TightSCF
|  3> %scf
|  4>  ConvForced true
|  5>  convergence tight
|  6>  MaxIter 500
|  7> end
|  8>
|  9> %tddft
| 10>  nroots 1
| 11> end
| 12>
| 13> # 	9189
| 14> * xyz 0 1
| 15> 		C   -1.184527  -0.286126   0.041172
| 16> 		O   -1.788476  -0.922260   0.846902
| 17> 		C    0.012892   0.519034   0.287134
| 18> 		C    1.225122   0.018212  -0.181883
| 19> 		H   -1.513565  -0.527464  -0.973406
| 20> 		H   -0.195806   1.405423   0.948538
| 21> 		H    1.268509  -0.843464  -0.943863
| 22> 		H    2.207710   0.629712  -0.050010
| 23> *
| 24>
| 25>                          ****END OF INPUT****

CARTESIAN COORDINATES (ANGSTROEM)
---------------------------------
  C     -1.184527   -0.286126    0.041172
  O     -1.788476   -0.922260    0.846902
  C      0.012892    0.519034    0.287134
  C      1.225122    0.018212   -0.181883
  H     -1.513565   -0.527464   -0.973406
  H     -0.195806    1.405423    0.948538
  H      1.268509   -0.843464   -0.943863
  H      2.207710    0.629712   -0.050010

 Total Charge           Charge          ....    0
 Multiplicity           Mult            ....    1
 Number of Electrons    NEL             ....   30
 Basis Dimension        Dim             ....   76

ORBITAL ENERGIES
----------------

  NO   OCC          E(Eh)            E(eV)
   0   2.0000     -19.136649      -520.7347
   1   2.0000     -10.271054      -279.4896
   2   2.0000     -10.231290      -278.4076
   3   2.0000     -10.220893      -278.1246
   4   2.0000      -1.058696       -28.8086
   5   2.0000      -0.788733       -21.4625
   6   2.0000      -0.641458       -17.4550
   7   2.0000      -0.562423       -15.3043
   8   2.0000      -0.480094       -13.0640
   9   2.0000      -0.462093       -12.5742
  10   2.0000      -0.436406       -11.8752
  11   2.0000      -0.388690       -10.5768
  12   2.0000      -0.379891       -10.3374
  13   2.0000      -0.282080        -7.6758
  14   2.0000      -0.249109        -6.7786
  15   0.0000      -0.051166        -1.3923
  16   0.0000       0.000177         0.0048
  17   0.0000       0.072086         1.9616
  18   0.0000       0.078006         2.1226
  19   0.0000       0.111431         3.0322

MULLIKEN ATOMIC CHARGES
-----------------------
   0 C :    0.156470
   1 O :   -0.172314
   2 C :   -0.064410
   3 C :   -0.041674
   4 H :   -0.029492
   5 H :    0.036909
   6 H :    0.054524
   7 H :    0.059986
Sum of atomic charges:   -0.0000000

LOEWDIN ATOMIC CHARGES
----------------------
   0 C :   -0.049568
   1 O :    0.021282
   2 C :   -0.057327
   3 C :   -0.035292
   4 H :   -0.011742
   5 H :    0.044700
   6 H :    0.042515
   7 H :    0.045432

  Mayer bond orders larger than 0.100000
B(  0-C ,  1-O ) :   2.2275 B(  0-C ,  2-C ) :   1.0033 B(  0-C ,  4-H ) :   0.9312
B(  2-C ,  3-C ) :   1.9694 B(  2-C ,  5-H ) :   0.9381 B(  3-C ,  6-H ) :   0.9441
B(  3-C ,  7-H ) :   0.9474

-----------------------------------------------------------------------------
         ABSORPTION SPECTRUM VIA TRANSITION ELECTRIC DIPOLE MOMENTS
-----------------------------------------------------------------------------
State   Energy    Wavelength  fosc         T2        TX        TY        TZ
        (cm-1)      (nm)                 (au**2)    (au)      (au)      (au)
-----------------------------------------------------------------------------
   1   30751.6    325.2   0.000392711   0.00420  -0.03166   0.01128   0.05545

FINAL SINGLE POINT ENERGY      -191.640888510726

DIPOLE MOMENT
-------------
                                X             Y             Z
Electronic contribution:     -2.75457      -0.81698       1.37207
Nuclear contribution   :      3.39116       1.35337      -1.90294
                        -----------------------------------------
Total Dipole Moment    :      0.63658       0.53640      -0.53088
                        -----------------------------------------
Magnitude (a.u.)       :      0.98731
Magnitude (Debye)      :      2.50956

Rotational constants in cm-1:     1.046508     0.163142     0.156011
Rotational constants in MHz : 31373.529166  4890.876992  4677.086534

                             ****ORCA TERMINATED NORMALLY****
TOTAL RUN TIME: 0 days 0 hours 3 minutes 27 seconds 85 msec
