                         Program Version 5.0.3 -  RELEASE  -
|  1> ! HF-3c
|  2> !TightSCF
|  3> %scf
|  4>  ConvForced true
|  5>  convergence tight
|  6>  MaxIter 500
|  7> end
|  8>
|  9> %tddft
| 10>  nroots 1
| 11> end
| 12>
| 13> # 	15505
| 14> * xyz 0 1
| 15> 		C   -1.210731  -0.272690   0.022347
| 16> 		O   -1.261354  -1.414632   0.450119
| 17> 		C   -0.011314   0.519941   0.155212
| 18> 		C    1.240781  -0.038933  -0.101380
| 19> 		H   -2.116487   0.223465  -0.440291
| 20> 		H   -0.132258   1.611915   0.252092
| 21> 		H    1.275300  -1.122090  -0.322909
| 22> 		H    2.209736   0.563123  -0.035693
| 23> *
| 24>
| 25>                          ****END OF INPUT****

CARTESIAN COORDINATES (ANGSTROEM)
---------------------------------
  C     -1.210731   -0.272690    0.022347
  O     -1.261354   -1.414632    0.450119
  C     -0.011314    0.519941    0.155212
  C      1.240781   -0.038933   -0.101380
  H     -2.116487    0.223465   -0.440291
  H     -0.132258    1.611915    0.252092
  H      1.275300   -1.122090   -0.322909
  H      2.209736    0.563123   -0.035693

 Total Charge           Charge          ....    0
 Multiplicity           Mult            ....    1
 Number of Electrons    NEL             ....   30
 Basis Dimension        Dim             ....   24

ORBITAL ENERGIES
----------------

  NO   OCC          E(Eh)            E(eV)
   0   2.0000     -20.354516      -553.8745
   1   2.0000     -11.290073      -307.2185
   2   2.0000     -11.186822      -304.4089
   3   2.0000     -11.180152      -304.2274
   4   2.0000      -1.391175       -37.8558
   5   2.0000      -1.058900       -28.8141
   6   2.0000      -0.884204       -24.0604
   7   2.0000      -0.738751       -20.1024
   8   2.0000      -0.691691       -18.8219
   9   2.0000      -0.599646       -16.3172
  10   2.0000      -0.593536       -16.1509
  11   2.0000      -0.534185       -14.5359
  12   2.0000      -0.512461       -13.9448
  13   2.0000      -0.411018       -11.1844
  14   2.0000      -0.374321       -10.1858
  15   0.0000       0.133877         3.6430
  16   0.0000       0.277605         7.5540
  17   0.0000       0.548484        14.9250
  18   0.0000       0.608943        16.5702
  19   0.0000       0.636563        17.3218

MULLIKEN ATOMIC CHARGES
-----------------------
   0 C :    0.154252
   1 O :   -0.353294
   2 C :   -0.177032
   3 C :   -0.201425
   4 H :    0.138227
   5 H :    0.140790
   6 H :    0.151474
   7 H :    0.147009
Sum of atomic charges:    0.0000000

LOEWDIN ATOMIC CHARGES
----------------------
   0 C :    0.139718
   1 O :   -0.263510
   2 C :   -0.137805
   3 C :   -0.108184
   4 H :    0.077566
   5 H :    0.091520
   6 H :    0.100218
   7 H :    0.100478

  Mayer bond orders larger than 0.100000
B(  0-C ,  1-O ) :   1.8965 B(  0-C ,  2-C ) :   1.0471 B(  0-C ,  4-H ) :   0.9206
B(  2-C ,  3-C ) :   1.9282 B(  2-C ,  5-H ) :   0.9577 B(  3-C ,  6-H ) :   0.9625
B(  3-C ,  7-H ) :   0.9644

-----------------------------------------------------------------------------
         ABSORPTION SPECTRUM VIA TRANSITION ELECTRIC DIPOLE MOMENTS
-----------------------------------------------------------------------------
State   Energy    Wavelength  fosc         T2        TX        TY        TZ
        (cm-1)      (nm)                 (au**2)    (au)      (au)      (au)
-----------------------------------------------------------------------------
   1   32436.3    308.3   0.000001782   0.00002   0.00267   0.00171   0.00283

Dispersion correction           -0.025392679
FINAL SINGLE POINT ENERGY      -189.332495741076

DIPOLE MOMENT
-------------
                                X             Y             Z
Electronic contribution:     -2.01493      -1.55165       0.60920
Nuclear contribution   :      2.39846       2.44289      -1.01472
                        -----------------------------------------
Total Dipole Moment    :      0.38353       0.89125      -0.40552
                        -----------------------------------------
Magnitude (a.u.)       :      1.05160
Magnitude (Debye)      :      2.67295

Rotational constants in cm-1:     0.749606     0.203967     0.165461
Rotational constants in MHz : 22472.636781  6114.783267  4960.401962

                             ****ORCA TERMINATED NORMALLY****
TOTAL RUN TIME: 0 days 0 hours 0 minutes 9 seconds 983 msec
