                         Program Version 5.0.3 -  RELEASE  -
|  1> ! HF-3c
|  2> !TightSCF
|  3> %scf
|  4>  ConvForced true
|  5>  convergence tight
|  6>  MaxIter 500
|  7> end
|  8>
|  9> %tddft
| 10>  nroots 1
| 11> end
| 12>
| 13> # 	21576
| 14> * xyz 0 1
| 15> 		C   -0.639769  -0.416943   0.010937
| 16> 		O   -0.545244  -1.648344   0.012903
| 17> 		C    0.626869   0.410199  -0.035089
| 18> 		C    1.851166  -0.108113   0.012675
| 19> 		H   -1.633633  -0.030527  -0.135908
| 20> 		H    0.713396   1.617528   0.190549
| 21> 		H    1.724277  -1.238304  -0.227849
| 22> 		H    2.920458   0.394309   0.125448
| 23> *
| 24>
| 25>                          ****END OF INPUT****

CARTESIAN COORDINATES (ANGSTROEM)
---------------------------------
  C     -0.639769   -0.416943    0.010937
  O     -0.545244   -1.648344    0.012903
  C      0.626869    0.410199   -0.035089
  C      1.851166   -0.108113    0.012675
  H     -1.633633   -0.030527   -0.135908
  H      0.713396    1.617528    0.190549
  H      1.724277   -1.238304   -0.227849
  H      2.920458    0.394309    0.125448

 Total Charge           Charge          ....    0
 Multiplicity           Mult            ....    1
 Number of Electrons    NEL             ....   30
 Basis Dimension        Dim             ....   24

ORBITAL ENERGIES
----------------

  NO   OCC          E(Eh)            E(eV)
   0   2.0000     -20.356953      -553.9409
   1   2.0000     -11.294591      -307.3414
   2   2.0000     -11.172591      -304.0217
   3   2.0000     -11.171315      -303.9869
   4   2.0000      -1.388179       -37.7743
   5   2.0000      -1.054900       -28.7053
   6   2.0000      -0.868641       -23.6369
   7   2.0000      -0.730746       -19.8846
   8   2.0000      -0.677986       -18.4489
   9   2.0000      -0.591729       -16.1018
  10   2.0000      -0.584052       -15.8929
  11   2.0000      -0.526744       -14.3334
  12   2.0000      -0.465342       -12.6626
  13   2.0000      -0.420020       -11.4293
  14   2.0000      -0.381530       -10.3819
  15   0.0000       0.135382         3.6839
  16   0.0000       0.303841         8.2679
  17   0.0000       0.477611        12.9965
  18   0.0000       0.514987        14.0135
  19   0.0000       0.572036        15.5659

MULLIKEN ATOMIC CHARGES
-----------------------
   0 C :    0.144643
   1 O :   -0.349639
   2 C :   -0.171855
   3 C :   -0.213356
   4 H :    0.149955
   5 H :    0.133507
   6 H :    0.152647
   7 H :    0.154099
Sum of atomic charges:   -0.0000000

LOEWDIN ATOMIC CHARGES
----------------------
   0 C :    0.139348
   1 O :   -0.262820
   2 C :   -0.143235
   3 C :   -0.126857
   4 H :    0.083494
   5 H :    0.094010
   6 H :    0.105447
   7 H :    0.110613

  Mayer bond orders larger than 0.100000
B(  0-C ,  1-O ) :   1.9024 B(  0-C ,  2-C ) :   1.0192 B(  0-C ,  4-H ) :   0.9335
B(  2-C ,  3-C ) :   1.9516 B(  2-C ,  5-H ) :   0.9525 B(  3-C ,  6-H ) :   0.9502
B(  3-C ,  7-H ) :   0.9594

-----------------------------------------------------------------------------
         ABSORPTION SPECTRUM VIA TRANSITION ELECTRIC DIPOLE MOMENTS
-----------------------------------------------------------------------------
State   Energy    Wavelength  fosc         T2        TX        TY        TZ
        (cm-1)      (nm)                 (au**2)    (au)      (au)      (au)
-----------------------------------------------------------------------------
   1   31614.6    316.3   0.000463673   0.00483   0.06670   0.00590   0.01857

Dispersion correction           -0.025379479
FINAL SINGLE POINT ENERGY      -189.303175033035

DIPOLE MOMENT
-------------
                                X             Y             Z
Electronic contribution:     -2.04265      -1.57821       0.04826
Nuclear contribution   :      2.33636       2.48725      -0.04599
                        -----------------------------------------
Total Dipole Moment    :      0.29370       0.90904       0.00227
                        -----------------------------------------
Magnitude (a.u.)       :      0.95531
Magnitude (Debye)      :      2.42821

Rotational constants in cm-1:     0.749404     0.205643     0.161809
Rotational constants in MHz : 22466.552907  6165.027967  4850.919078

                             ****ORCA TERMINATED NORMALLY****
TOTAL RUN TIME: 0 days 0 hours 0 minutes 15 seconds 130 msec
