                         Program Version 5.0.3 -  RELEASE  -
|  1> ! B3LYP cc-pVDZ
|  2> !TightSCF
|  3> %scf
|  4>  ConvForced true
|  5>  convergence tight
|  6>  MaxIter 500
|  7> end
|  8>
|  9> %tddft
| 10>  nroots 1
| 11> end
| 12>
| 13> # 	30904
| 14> * xyz 0 1
| 15> 		C   -0.545470  -0.396124  -0.003653
| 16> 		O   -0.560025  -1.615889  -0.003480
| 17> 		C    0.651179   0.369525  -0.000336
| 18> 		C    1.762472  -0.132013   0.009063
| 19> 		H   -1.562809   0.089738   0.070094
| 20> 		H    0.497232   1.496354  -0.037603
| 21> 		H    1.753637  -1.136976   0.015003
| 22> 		H    2.888538   0.332705  -0.058764
| 23> *
| 24>
| 25>                          ****END OF INPUT****

CARTESIAN COORDINATES (ANGSTROEM)
---------------------------------
  C     -0.545470   -0.396124   -0.003653
  O     -0.560025   -1.615889   -0.003480
  C      0.651179    0.369525   -0.000336
  C      1.762472   -0.132013    0.009063
  H     -1.562809    0.089738    0.070094
  H      0.497232    1.496354   -0.037603
  H      1.753637   -1.136976    0.015003
  H      2.888538    0.332705   -0.058764

 Total Charge           Charge          ....    0
 Multiplicity           Mult            ....    1
 Number of Electrons    NEL             ....   30
 Basis Dimension        Dim             ....   76

ORBITAL ENERGIES
----------------

  NO   OCC          E(Eh)            E(eV)
   0   2.0000     -19.135143      -520.6937
   1   2.0000     -10.272201      -279.5208
   2   2.0000     -10.200111      -277.5591
   3   2.0000     -10.193020      -277.3662
   4   2.0000      -1.043077       -28.3836
   5   2.0000      -0.827529       -22.5182
   6   2.0000      -0.661320       -17.9954
   7   2.0000      -0.540060       -14.6958
   8   2.0000      -0.516322       -14.0498
   9   2.0000      -0.457643       -12.4531
  10   2.0000      -0.422326       -11.4921
  11   2.0000      -0.404484       -11.0066
  12   2.0000      -0.358331        -9.7507
  13   2.0000      -0.305163        -8.3039
  14   2.0000      -0.256410        -6.9773
  15   0.0000      -0.064824        -1.7640
  16   0.0000       0.048669         1.3243
  17   0.0000       0.083583         2.2744
  18   0.0000       0.094342         2.5672
  19   0.0000       0.122275         3.3273

MULLIKEN ATOMIC CHARGES
-----------------------
   0 C :    0.171863
   1 O :   -0.201638
   2 C :   -0.101710
   3 C :    0.118796
   4 H :   -0.015518
   5 H :   -0.014453
   6 H :   -0.010701
   7 H :    0.053361
Sum of atomic charges:   -0.0000000

LOEWDIN ATOMIC CHARGES
----------------------
   0 C :   -0.026795
   1 O :   -0.013448
   2 C :   -0.099269
   3 C :    0.027720
   4 H :    0.003258
   5 H :    0.038905
   6 H :    0.010441
   7 H :    0.059190

  Mayer bond orders larger than 0.100000
B(  0-C ,  1-O ) :   2.1704 B(  0-C ,  2-C ) :   1.0674 B(  0-C ,  4-H ) :   0.9256
B(  2-C ,  3-C ) :   2.0020 B(  2-C ,  5-H ) :   0.9376 B(  3-C ,  6-H ) :   0.8875
B(  3-C ,  7-H ) :   0.9383

-----------------------------------------------------------------------------
         ABSORPTION SPECTRUM VIA TRANSITION ELECTRIC DIPOLE MOMENTS
-----------------------------------------------------------------------------
State   Energy    Wavelength  fosc         T2        TX        TY        TZ
        (cm-1)      (nm)                 (au**2)    (au)      (au)      (au)
-----------------------------------------------------------------------------
   1   28359.1    352.6   0.000230551   0.00268  -0.01313   0.00219   0.04999

FINAL SINGLE POINT ENERGY      -191.637327920378

DIPOLE MOMENT
-------------
                                X             Y             Z
Electronic contribution:     -1.80147      -1.66262      -0.00028
Nuclear contribution   :      2.19915       2.52194      -0.01022
                        -----------------------------------------
Total Dipole Moment    :      0.39768       0.85932      -0.01050
                        -----------------------------------------
Magnitude (a.u.)       :      0.94694
Magnitude (Debye)      :      2.40692

Rotational constants in cm-1:     0.823206     0.222485     0.175190
Rotational constants in MHz : 24679.089313  6669.946554  5252.066983

                             ****ORCA TERMINATED NORMALLY****
TOTAL RUN TIME: 0 days 0 hours 3 minutes 21 seconds 407 msec
