                         Program Version 5.0.3 -  RELEASE  -
|  1> ! B3LYP cc-pVDZ
|  2> !TightSCF
|  3> %scf
|  4>  ConvForced true
|  5>  convergence tight
|  6>  MaxIter 500
|  7> end
|  8>
|  9> %tddft
| 10>  nroots 1
| 11> end
| 12>
| 13> # 	20852
| 14> * xyz 0 1
| 15> 		C   -0.586515  -0.440770  -0.019040
| 16> 		O   -0.589883  -1.641386   0.007881
| 17> 		C    0.662929   0.411205  -0.020400
| 18> 		C    1.846180  -0.104190  -0.000798
| 19> 		H   -1.657723   0.047950   0.097337
| 20> 		H    0.439051   1.555149   0.180998
| 21> 		H    1.891859  -1.180356   0.080835
| 22> 		H    2.745314   0.465246   0.000576
| 23> *
| 24>
| 25>                          ****END OF INPUT****

CARTESIAN COORDINATES (ANGSTROEM)
---------------------------------
  C     -0.586515   -0.440770   -0.019040
  O     -0.589883   -1.641386    0.007881
  C      0.662929    0.411205   -0.020400
  C      1.846180   -0.104190   -0.000798
  H     -1.657723    0.047950    0.097337
  H      0.439051    1.555149    0.180998
  H      1.891859   -1.180356    0.080835
  H      2.745314    0.465246    0.000576

 Total Charge           Charge          ....    0
 Multiplicity           Mult            ....    1
 Number of Electrons    NEL             ....   30
 Basis Dimension        Dim             ....   76

ORBITAL ENERGIES
----------------

  NO   OCC          E(Eh)            E(eV)
   0   2.0000     -19.140986      -520.8527
   1   2.0000     -10.281746      -279.7805
   2   2.0000     -10.210908      -277.8529
   3   2.0000     -10.203775      -277.6588
   4   2.0000      -1.054407       -28.6919
   5   2.0000      -0.801772       -21.8173
   6   2.0000      -0.646729       -17.5984
   7   2.0000      -0.532719       -14.4960
   8   2.0000      -0.505898       -13.7662
   9   2.0000      -0.450838       -12.2679
  10   2.0000      -0.431637       -11.7455
  11   2.0000      -0.403567       -10.9816
  12   2.0000      -0.372567       -10.1381
  13   2.0000      -0.295387        -8.0379
  14   2.0000      -0.255019        -6.9394
  15   0.0000      -0.064310        -1.7500
  16   0.0000       0.054542         1.4842
  17   0.0000       0.064420         1.7529
  18   0.0000       0.094718         2.5774
  19   0.0000       0.111652         3.0382

MULLIKEN ATOMIC CHARGES
-----------------------
   0 C :    0.150205
   1 O :   -0.176834
   2 C :   -0.163250
   3 C :    0.132566
   4 H :   -0.009713
   5 H :    0.013670
   6 H :    0.028570
   7 H :    0.024787
Sum of atomic charges:   -0.0000000

LOEWDIN ATOMIC CHARGES
----------------------
   0 C :   -0.040415
   1 O :    0.004207
   2 C :   -0.090393
   3 C :    0.021110
   4 H :    0.000399
   5 H :    0.041481
   6 H :    0.034199
   7 H :    0.029413

  Mayer bond orders larger than 0.100000
B(  0-C ,  1-O ) :   2.2002 B(  0-C ,  2-C ) :   1.0107 B(  0-C ,  4-H ) :   0.9077
B(  2-C ,  3-C ) :   1.9966 B(  2-C ,  5-H ) :   0.9375 B(  3-C ,  6-H ) :   0.9181
B(  3-C ,  7-H ) :   0.9378

-----------------------------------------------------------------------------
         ABSORPTION SPECTRUM VIA TRANSITION ELECTRIC DIPOLE MOMENTS
-----------------------------------------------------------------------------
State   Energy    Wavelength  fosc         T2        TX        TY        TZ
        (cm-1)      (nm)                 (au**2)    (au)      (au)      (au)
-----------------------------------------------------------------------------
   1   28854.3    346.6   0.000244601   0.00279  -0.01143  -0.02167  -0.04680

FINAL SINGLE POINT ENERGY      -191.663661102023

DIPOLE MOMENT
-------------
                                X             Y             Z
Electronic contribution:     -1.64886      -1.80561      -0.27907
Nuclear contribution   :      2.04928       2.62133       0.33726
                        -----------------------------------------
Total Dipole Moment    :      0.40042       0.81572       0.05818
                        -----------------------------------------
Magnitude (a.u.)       :      0.91056
Magnitude (Debye)      :      2.31447

Rotational constants in cm-1:     0.786224     0.205002     0.162791
Rotational constants in MHz : 23570.410852  6145.817034  4880.357750

                             ****ORCA TERMINATED NORMALLY****
TOTAL RUN TIME: 0 days 0 hours 3 minutes 19 seconds 453 msec
