                         Program Version 5.0.3 -  RELEASE  -
|  1> ! B3LYP cc-pVDZ
|  2> !TightSCF
|  3> %scf
|  4>  ConvForced true
|  5>  convergence tight
|  6>  MaxIter 500
|  7> end
|  8>
|  9> %tddft
| 10>  nroots 1
| 11> end
| 12>
| 13> # 	7796
| 14> * xyz 0 1
| 15> 		C   -1.181511  -0.334713  -0.039246
| 16> 		O   -1.994958  -0.640344  -0.902039
| 17> 		C    0.022415   0.495996  -0.252976
| 18> 		C    1.195256   0.049846   0.232276
| 19> 		H   -1.182005  -0.836525   0.880067
| 20> 		H   -0.145704   1.376641  -0.970485
| 21> 		H    1.222220  -0.726816   0.968155
| 22> 		H    2.092383   0.556895   0.142424
| 23> *
| 24>
| 25>                          ****END OF INPUT****

CARTESIAN COORDINATES (ANGSTROEM)
---------------------------------
  C     -1.181511   -0.334713   -0.039246
  O     -1.994958   -0.640344   -0.902039
  C      0.022415    0.495996   -0.252976
  C      1.195256    0.049846    0.232276
  H     -1.182005   -0.836525    0.880067
  H     -0.145704    1.376641   -0.970485
  H      1.222220   -0.726816    0.968155
  H      2.092383    0.556895    0.142424

 Total Charge           Charge          ....    0
 Multiplicity           Mult            ....    1
 Number of Electrons    NEL             ....   30
 Basis Dimension        Dim             ....   76

ORBITAL ENERGIES
----------------

  NO   OCC          E(Eh)            E(eV)
   0   2.0000     -19.139233      -520.8050
   1   2.0000     -10.271229      -279.4944
   2   2.0000     -10.216362      -278.0013
   3   2.0000     -10.211120      -277.8587
   4   2.0000      -1.038663       -28.2635
   5   2.0000      -0.803404       -21.8617
   6   2.0000      -0.656765       -17.8715
   7   2.0000      -0.574678       -15.6378
   8   2.0000      -0.478299       -13.0152
   9   2.0000      -0.475790       -12.9469
  10   2.0000      -0.429038       -11.6747
  11   2.0000      -0.395499       -10.7621
  12   2.0000      -0.379473       -10.3260
  13   2.0000      -0.291235        -7.9249
  14   2.0000      -0.255033        -6.9398
  15   0.0000      -0.062421        -1.6986
  16   0.0000       0.023649         0.6435
  17   0.0000       0.076841         2.0909
  18   0.0000       0.086897         2.3646
  19   0.0000       0.125077         3.4035

MULLIKEN ATOMIC CHARGES
-----------------------
   0 C :    0.202293
   1 O :   -0.204916
   2 C :   -0.110058
   3 C :    0.079563
   4 H :   -0.034697
   5 H :    0.026848
   6 H :    0.021151
   7 H :    0.019816
Sum of atomic charges:    0.0000000

LOEWDIN ATOMIC CHARGES
----------------------
   0 C :   -0.020637
   1 O :   -0.009723
   2 C :   -0.048971
   3 C :    0.004558
   4 H :   -0.014957
   5 H :    0.044264
   6 H :    0.026815
   7 H :    0.018650

  Mayer bond orders larger than 0.100000
B(  0-C ,  1-O ) :   2.1699 B(  0-C ,  2-C ) :   1.0551 B(  0-C ,  4-H ) :   0.9287
B(  2-C ,  3-C ) :   1.9550 B(  2-C ,  5-H ) :   0.9411 B(  3-C ,  6-H ) :   0.9439
B(  3-C ,  7-H ) :   0.9505

-----------------------------------------------------------------------------
         ABSORPTION SPECTRUM VIA TRANSITION ELECTRIC DIPOLE MOMENTS
-----------------------------------------------------------------------------
State   Energy    Wavelength  fosc         T2        TX        TY        TZ
        (cm-1)      (nm)                 (au**2)    (au)      (au)      (au)
-----------------------------------------------------------------------------
   1   29125.5    343.3   0.000455334   0.00515  -0.06859  -0.00387  -0.02068

FINAL SINGLE POINT ENERGY      -191.661713507809

DIPOLE MOMENT
-------------
                                X             Y             Z
Electronic contribution:     -2.93791      -0.50875      -1.26555
Nuclear contribution   :      3.81562       0.83081       1.89284
                        -----------------------------------------
Total Dipole Moment    :      0.87771       0.32206       0.62730
                        -----------------------------------------
Magnitude (a.u.)       :      1.12587
Magnitude (Debye)      :      2.86174

Rotational constants in cm-1:     1.292578     0.158447     0.148610
Rotational constants in MHz : 38750.513945  4750.122173  4455.218469

                             ****ORCA TERMINATED NORMALLY****
TOTAL RUN TIME: 0 days 0 hours 3 minutes 16 seconds 976 msec
