                         Program Version 5.0.3 -  RELEASE  -
|  1> ! B3LYP cc-pVDZ
|  2> !TightSCF
|  3> %scf
|  4>  ConvForced true
|  5>  convergence tight
|  6>  MaxIter 500
|  7> end
|  8>
|  9> %tddft
| 10>  nroots 1
| 11> end
| 12>
| 13> # 	28806
| 14> * xyz 0 1
| 15> 		C   -0.599840  -0.403532  -0.003550
| 16> 		O   -0.557958  -1.633284  -0.000135
| 17> 		C    0.659937   0.417066  -0.025260
| 18> 		C    1.815814  -0.153307   0.022681
| 19> 		H   -1.493571   0.093604   0.104950
| 20> 		H    0.400296   1.447358   0.057789
| 21> 		H    1.887252  -1.150842  -0.049487
| 22> 		H    2.654023   0.457544  -0.038520
| 23> *
| 24>
| 25>                          ****END OF INPUT****

CARTESIAN COORDINATES (ANGSTROEM)
---------------------------------
  C     -0.599840   -0.403532   -0.003550
  O     -0.557958   -1.633284   -0.000135
  C      0.659937    0.417066   -0.025260
  C      1.815814   -0.153307    0.022681
  H     -1.493571    0.093604    0.104950
  H      0.400296    1.447358    0.057789
  H      1.887252   -1.150842   -0.049487
  H      2.654023    0.457544   -0.038520

 Total Charge           Charge          ....    0
 Multiplicity           Mult            ....    1
 Number of Electrons    NEL             ....   30
 Basis Dimension        Dim             ....   76

ORBITAL ENERGIES
----------------

  NO   OCC          E(Eh)            E(eV)
   0   2.0000     -19.135023      -520.6904
   1   2.0000     -10.266128      -279.3555
   2   2.0000     -10.194828      -277.4154
   3   2.0000     -10.190735      -277.3040
   4   2.0000      -1.033267       -28.1166
   5   2.0000      -0.804495       -21.8914
   6   2.0000      -0.667987       -18.1769
   7   2.0000      -0.556274       -15.1370
   8   2.0000      -0.515544       -14.0287
   9   2.0000      -0.453830       -12.3493
  10   2.0000      -0.429265       -11.6809
  11   2.0000      -0.391634       -10.6569
  12   2.0000      -0.382950       -10.4206
  13   2.0000      -0.291663        -7.9366
  14   2.0000      -0.253192        -6.8897
  15   0.0000      -0.066545        -1.8108
  16   0.0000       0.061131         1.6635
  17   0.0000       0.075527         2.0552
  18   0.0000       0.105733         2.8771
  19   0.0000       0.134748         3.6667

MULLIKEN ATOMIC CHARGES
-----------------------
   0 C :    0.217170
   1 O :   -0.213998
   2 C :   -0.145685
   3 C :    0.208046
   4 H :   -0.035013
   5 H :   -0.030913
   6 H :   -0.008269
   7 H :    0.008663
Sum of atomic charges:   -0.0000000

LOEWDIN ATOMIC CHARGES
----------------------
   0 C :   -0.000480
   1 O :   -0.022837
   2 C :   -0.065314
   3 C :    0.046918
   4 H :   -0.015637
   5 H :    0.019996
   6 H :    0.011626
   7 H :    0.025728

  Mayer bond orders larger than 0.100000
B(  0-C ,  1-O ) :   2.1659 B(  0-C ,  2-C ) :   1.0677 B(  0-C ,  4-H ) :   0.9323
B(  2-C ,  3-C ) :   2.0019 B(  2-C ,  5-H ) :   0.9487 B(  3-C ,  6-H ) :   0.9146
B(  3-C ,  7-H ) :   0.9336

-----------------------------------------------------------------------------
         ABSORPTION SPECTRUM VIA TRANSITION ELECTRIC DIPOLE MOMENTS
-----------------------------------------------------------------------------
State   Energy    Wavelength  fosc         T2        TX        TY        TZ
        (cm-1)      (nm)                 (au**2)    (au)      (au)      (au)
-----------------------------------------------------------------------------
   1   27446.6    364.3   0.000081794   0.00098  -0.01949  -0.00533  -0.02394

FINAL SINGLE POINT ENERGY      -191.663133380194

DIPOLE MOMENT
-------------
                                X             Y             Z
Electronic contribution:     -1.80088      -1.65559      -0.06389
Nuclear contribution   :      2.07878       2.58250       0.07014
                        -----------------------------------------
Total Dipole Moment    :      0.27790       0.92691       0.00625
                        -----------------------------------------
Magnitude (a.u.)       :      0.96769
Magnitude (Debye)      :      2.45967

Rotational constants in cm-1:     0.766975     0.216592     0.169006
Rotational constants in MHz : 22993.320433  6493.272684  5066.674186

                             ****ORCA TERMINATED NORMALLY****
TOTAL RUN TIME: 0 days 0 hours 3 minutes 21 seconds 511 msec
