                         Program Version 5.0.3 -  RELEASE  -
|  1> ! HF-3c
|  2> !TightSCF
|  3> %scf
|  4>  ConvForced true
|  5>  convergence tight
|  6>  MaxIter 500
|  7> end
|  8>
|  9> %tddft
| 10>  nroots 1
| 11> end
| 12>
| 13> # 	24733
| 14> * xyz 0 1
| 15> 		C   -0.613287  -0.398796   0.002942
| 16> 		O   -0.596490  -1.648933  -0.016070
| 17> 		C    0.638092   0.396035  -0.020600
| 18> 		C    1.891968  -0.108597   0.011975
| 19> 		H   -1.452578  -0.024636   0.286283
| 20> 		H    0.418262   1.309448  -0.103720
| 21> 		H    1.980990  -1.163143   0.138423
| 22> 		H    2.620562   0.609244  -0.009638
| 23> *
| 24>
| 25>                          ****END OF INPUT****

CARTESIAN COORDINATES (ANGSTROEM)
---------------------------------
  C     -0.613287   -0.398796    0.002942
  O     -0.596490   -1.648933   -0.016070
  C      0.638092    0.396035   -0.020600
  C      1.891968   -0.108597    0.011975
  H     -1.452578   -0.024636    0.286283
  H      0.418262    1.309448   -0.103720
  H      1.980990   -1.163143    0.138423
  H      2.620562    0.609244   -0.009638

 Total Charge           Charge          ....    0
 Multiplicity           Mult            ....    1
 Number of Electrons    NEL             ....   30
 Basis Dimension        Dim             ....   24

ORBITAL ENERGIES
----------------

  NO   OCC          E(Eh)            E(eV)
   0   2.0000     -20.360999      -554.0509
   1   2.0000     -11.290427      -307.2281
   2   2.0000     -11.204256      -304.8833
   3   2.0000     -11.198563      -304.7284
   4   2.0000      -1.381228       -37.5851
   5   2.0000      -1.091722       -29.7073
   6   2.0000      -0.924532       -25.1578
   7   2.0000      -0.793489       -21.5919
   8   2.0000      -0.727298       -19.7908
   9   2.0000      -0.620361       -16.8809
  10   2.0000      -0.614365       -16.7177
  11   2.0000      -0.557675       -15.1751
  12   2.0000      -0.525998       -14.3131
  13   2.0000      -0.428970       -11.6729
  14   2.0000      -0.395193       -10.7537
  15   0.0000       0.113117         3.0781
  16   0.0000       0.282310         7.6820
  17   0.0000       0.586439        15.9578
  18   0.0000       0.654962        17.8224
  19   0.0000       0.736537        20.0422

MULLIKEN ATOMIC CHARGES
-----------------------
   0 C :    0.121962
   1 O :   -0.328141
   2 C :   -0.180115
   3 C :   -0.225392
   4 H :    0.145969
   5 H :    0.138403
   6 H :    0.171701
   7 H :    0.155613
Sum of atomic charges:    0.0000000

LOEWDIN ATOMIC CHARGES
----------------------
   0 C :    0.125753
   1 O :   -0.245543
   2 C :   -0.123675
   3 C :   -0.115179
   4 H :    0.070876
   5 H :    0.075810
   6 H :    0.113597
   7 H :    0.098362

  Mayer bond orders larger than 0.100000
B(  0-C ,  1-O ) :   1.8945 B(  0-C ,  2-C ) :   1.0375 B(  0-C ,  4-H ) :   0.9478
B(  2-C ,  3-C ) :   1.9387 B(  2-C ,  5-H ) :   0.9666 B(  3-C ,  6-H ) :   0.9583
B(  3-C ,  7-H ) :   0.9650

-----------------------------------------------------------------------------
         ABSORPTION SPECTRUM VIA TRANSITION ELECTRIC DIPOLE MOMENTS
-----------------------------------------------------------------------------
State   Energy    Wavelength  fosc         T2        TX        TY        TZ
        (cm-1)      (nm)                 (au**2)    (au)      (au)      (au)
-----------------------------------------------------------------------------
   1   28236.1    354.2   0.000096545   0.00113   0.03139   0.00771  -0.00901

Dispersion correction           -0.026158249
FINAL SINGLE POINT ENERGY      -189.308687291010

DIPOLE MOMENT
-------------
                                X             Y             Z
Electronic contribution:     -1.87430      -1.64214      -0.21561
Nuclear contribution   :      2.19044       2.47453       0.29264
                        -----------------------------------------
Total Dipole Moment    :      0.31615       0.83239       0.07703
                        -----------------------------------------
Magnitude (a.u.)       :      0.89373
Magnitude (Debye)      :      2.27168

Rotational constants in cm-1:     0.788700     0.203431     0.162103
Rotational constants in MHz : 23644.625744  6098.694902  4859.740354

                             ****ORCA TERMINATED NORMALLY****
TOTAL RUN TIME: 0 days 0 hours 0 minutes 16 seconds 43 msec
