                         Program Version 5.0.3 -  RELEASE  -
|  1> ! B3LYP cc-pVDZ
|  2> !TightSCF
|  3> %scf
|  4>  ConvForced true
|  5>  convergence tight
|  6>  MaxIter 500
|  7> end
|  8>
|  9> %tddft
| 10>  nroots 1
| 11> end
| 12>
| 13> # 	27079
| 14> * xyz 0 1
| 15> 		C   -0.603588  -0.407017  -0.060314
| 16> 		O   -0.558676  -1.624267   0.031821
| 17> 		C    0.586003   0.423534  -0.002489
| 18> 		C    1.881684  -0.167166   0.003750
| 19> 		H   -1.642580  -0.002685   0.116032
| 20> 		H    0.573861   1.516104   0.175100
| 21> 		H    2.135603  -1.244212  -0.187339
| 22> 		H    2.561741   0.572113   0.109927
| 23> *
| 24>
| 25>                          ****END OF INPUT****

CARTESIAN COORDINATES (ANGSTROEM)
---------------------------------
  C     -0.603588   -0.407017   -0.060314
  O     -0.558676   -1.624267    0.031821
  C      0.586003    0.423534   -0.002489
  C      1.881684   -0.167166    0.003750
  H     -1.642580   -0.002685    0.116032
  H      0.573861    1.516104    0.175100
  H      2.135603   -1.244212   -0.187339
  H      2.561741    0.572113    0.109927

 Total Charge           Charge          ....    0
 Multiplicity           Mult            ....    1
 Number of Electrons    NEL             ....   30
 Basis Dimension        Dim             ....   76

ORBITAL ENERGIES
----------------

  NO   OCC          E(Eh)            E(eV)
   0   2.0000     -19.130336      -520.5629
   1   2.0000     -10.271135      -279.4918
   2   2.0000     -10.220916      -278.1253
   3   2.0000     -10.216117      -277.9947
   4   2.0000      -1.036568       -28.2064
   5   2.0000      -0.784267       -21.3410
   6   2.0000      -0.659670       -17.9505
   7   2.0000      -0.539896       -14.6913
   8   2.0000      -0.511504       -13.9187
   9   2.0000      -0.439729       -11.9656
  10   2.0000      -0.412192       -11.2163
  11   2.0000      -0.393719       -10.7136
  12   2.0000      -0.390904       -10.6370
  13   2.0000      -0.276258        -7.5174
  14   2.0000      -0.249229        -6.7819
  15   0.0000      -0.080350        -2.1864
  16   0.0000       0.049007         1.3336
  17   0.0000       0.069065         1.8794
  18   0.0000       0.091697         2.4952
  19   0.0000       0.112812         3.0698

MULLIKEN ATOMIC CHARGES
-----------------------
   0 C :    0.181408
   1 O :   -0.205011
   2 C :   -0.130594
   3 C :    0.093428
   4 H :   -0.016372
   5 H :    0.008111
   6 H :    0.060742
   7 H :    0.008288
Sum of atomic charges:   -0.0000000

LOEWDIN ATOMIC CHARGES
----------------------
   0 C :   -0.047353
   1 O :   -0.020258
   2 C :   -0.073441
   3 C :    0.054651
   4 H :   -0.000347
   5 H :    0.033769
   6 H :    0.044983
   7 H :    0.007996

  Mayer bond orders larger than 0.100000
B(  0-C ,  1-O ) :   2.1540 B(  0-C ,  2-C ) :   1.0583 B(  0-C ,  4-H ) :   0.9324
B(  1-O ,  3-C ) :   0.1119 B(  2-C ,  3-C ) :   1.9221 B(  2-C ,  5-H ) :   0.9449
B(  3-C ,  6-H ) :   0.9514 B(  3-C ,  7-H ) :   0.9384

-----------------------------------------------------------------------------
         ABSORPTION SPECTRUM VIA TRANSITION ELECTRIC DIPOLE MOMENTS
-----------------------------------------------------------------------------
State   Energy    Wavelength  fosc         T2        TX        TY        TZ
        (cm-1)      (nm)                 (au**2)    (au)      (au)      (au)
-----------------------------------------------------------------------------
   1   24676.6    405.2   0.000178811   0.00239   0.03522   0.00890   0.03265

FINAL SINGLE POINT ENERGY      -191.672920816617

DIPOLE MOMENT
-------------
                                X             Y             Z
Electronic contribution:     -1.79142      -1.68137      -0.21184
Nuclear contribution   :      2.24630       2.57619       0.19995
                        -----------------------------------------
Total Dipole Moment    :      0.45488       0.89482      -0.01188
                        -----------------------------------------
Magnitude (a.u.)       :      1.00388
Magnitude (Debye)      :      2.55165

Rotational constants in cm-1:     0.714691     0.211447     0.163654
Rotational constants in MHz : 21425.909553  6339.030006  4906.213555

                             ****ORCA TERMINATED NORMALLY****
TOTAL RUN TIME: 0 days 0 hours 3 minutes 27 seconds 646 msec
