                         Program Version 5.0.3 -  RELEASE  -
|  1> ! B3LYP cc-pVDZ
|  2> !TightSCF
|  3> %scf
|  4>  ConvForced true
|  5>  convergence tight
|  6>  MaxIter 500
|  7> end
|  8>
|  9> %tddft
| 10>  nroots 1
| 11> end
| 12>
| 13> # 	29560
| 14> * xyz 0 1
| 15> 		C   -0.581868  -0.421189   0.100693
| 16> 		O   -0.578387  -1.626028  -0.058970
| 17> 		C    0.599683   0.384193  -0.048002
| 18> 		C    1.872312  -0.088167   0.008809
| 19> 		H   -1.647454   0.001871   0.110754
| 20> 		H    0.570062   1.438461  -0.235957
| 21> 		H    1.838739  -1.296901   0.361547
| 22> 		H    2.840215   0.374394  -0.054386
| 23> *
| 24>
| 25>                          ****END OF INPUT****

CARTESIAN COORDINATES (ANGSTROEM)
---------------------------------
  C     -0.581868   -0.421189    0.100693
  O     -0.578387   -1.626028   -0.058970
  C      0.599683    0.384193   -0.048002
  C      1.872312   -0.088167    0.008809
  H     -1.647454    0.001871    0.110754
  H      0.570062    1.438461   -0.235957
  H      1.838739   -1.296901    0.361547
  H      2.840215    0.374394   -0.054386

 Total Charge           Charge          ....    0
 Multiplicity           Mult            ....    1
 Number of Electrons    NEL             ....   30
 Basis Dimension        Dim             ....   76

ORBITAL ENERGIES
----------------

  NO   OCC          E(Eh)            E(eV)
   0   2.0000     -19.134586      -520.6786
   1   2.0000     -10.276187      -279.6293
   2   2.0000     -10.228437      -278.3299
   3   2.0000     -10.207565      -277.7620
   4   2.0000      -1.044552       -28.4237
   5   2.0000      -0.793802       -21.6004
   6   2.0000      -0.653851       -17.7922
   7   2.0000      -0.540593       -14.7103
   8   2.0000      -0.512374       -13.9424
   9   2.0000      -0.450648       -12.2627
  10   2.0000      -0.424960       -11.5638
  11   2.0000      -0.398352       -10.8397
  12   2.0000      -0.351150        -9.5553
  13   2.0000      -0.286096        -7.7851
  14   2.0000      -0.253613        -6.9012
  15   0.0000      -0.074549        -2.0286
  16   0.0000       0.052446         1.4271
  17   0.0000       0.069901         1.9021
  18   0.0000       0.079050         2.1511
  19   0.0000       0.115412         3.1405

MULLIKEN ATOMIC CHARGES
-----------------------
   0 C :    0.164387
   1 O :   -0.195147
   2 C :   -0.059151
   3 C :    0.009275
   4 H :   -0.007856
   5 H :   -0.013541
   6 H :    0.061237
   7 H :    0.040796
Sum of atomic charges:    0.0000000

LOEWDIN ATOMIC CHARGES
----------------------
   0 C :   -0.044845
   1 O :   -0.008115
   2 C :   -0.085489
   3 C :    0.023875
   4 H :    0.006625
   5 H :    0.025568
   6 H :    0.056093
   7 H :    0.026286

  Mayer bond orders larger than 0.100000
B(  0-C ,  1-O ) :   2.1529 B(  0-C ,  2-C ) :   1.0473 B(  0-C ,  4-H ) :   0.9309
B(  1-O ,  3-C ) :   0.1019 B(  2-C ,  3-C ) :   1.9270 B(  2-C ,  5-H ) :   0.9508
B(  3-C ,  6-H ) :   0.9245 B(  3-C ,  7-H ) :   0.9475

-----------------------------------------------------------------------------
         ABSORPTION SPECTRUM VIA TRANSITION ELECTRIC DIPOLE MOMENTS
-----------------------------------------------------------------------------
State   Energy    Wavelength  fosc         T2        TX        TY        TZ
        (cm-1)      (nm)                 (au**2)    (au)      (au)      (au)
-----------------------------------------------------------------------------
   1   26512.9    377.2   0.000115694   0.00144  -0.00981  -0.01147   0.03477

FINAL SINGLE POINT ENERGY      -191.660556666429

DIPOLE MOMENT
-------------
                                X             Y             Z
Electronic contribution:     -1.79883      -1.35701      -0.08579
Nuclear contribution   :      2.22263       2.27590       0.17127
                        -----------------------------------------
Total Dipole Moment    :      0.42381       0.91890       0.08548
                        -----------------------------------------
Magnitude (a.u.)       :      1.01553
Magnitude (Debye)      :      2.58126

Rotational constants in cm-1:     0.777795     0.206567     0.164522
Rotational constants in MHz : 23317.711516  6192.708492  4932.250440

                             ****ORCA TERMINATED NORMALLY****
TOTAL RUN TIME: 0 days 0 hours 3 minutes 27 seconds 602 msec
