                         Program Version 5.0.3 -  RELEASE  -
|  1> ! HF-3c
|  2> !TightSCF
|  3> %scf
|  4>  ConvForced true
|  5>  convergence tight
|  6>  MaxIter 500
|  7> end
|  8>
|  9> %tddft
| 10>  nroots 1
| 11> end
| 12>
| 13> # 	16507
| 14> * xyz 0 1
| 15> 		C   -1.206213  -0.386108   0.018067
| 16> 		O   -1.459013  -1.332086   0.666361
| 17> 		C    0.017417   0.532861   0.184704
| 18> 		C    1.198893   0.069599  -0.160138
| 19> 		H   -1.771836   0.121965  -0.874548
| 20> 		H   -0.155779   1.241771   0.891647
| 21> 		H    1.316539  -0.789319  -0.751432
| 22> 		H    2.088803   0.601101   0.089041
| 23> *
| 24>
| 25>                          ****END OF INPUT****

CARTESIAN COORDINATES (ANGSTROEM)
---------------------------------
  C     -1.206213   -0.386108    0.018067
  O     -1.459013   -1.332086    0.666361
  C      0.017417    0.532861    0.184704
  C      1.198893    0.069599   -0.160138
  H     -1.771836    0.121965   -0.874548
  H     -0.155779    1.241771    0.891647
  H      1.316539   -0.789319   -0.751432
  H      2.088803    0.601101    0.089041

 Total Charge           Charge          ....    0
 Multiplicity           Mult            ....    1
 Number of Electrons    NEL             ....   30
 Basis Dimension        Dim             ....   24

ORBITAL ENERGIES
----------------

  NO   OCC          E(Eh)            E(eV)
   0   2.0000     -20.399370      -555.0951
   1   2.0000     -11.310816      -307.7830
   2   2.0000     -11.185656      -304.3772
   3   2.0000     -11.184545      -304.3469
   4   2.0000      -1.438028       -39.1307
   5   2.0000      -1.086460       -29.5641
   6   2.0000      -0.885198       -24.0875
   7   2.0000      -0.768045       -20.8996
   8   2.0000      -0.686879       -18.6909
   9   2.0000      -0.643701       -17.5160
  10   2.0000      -0.625683       -17.0257
  11   2.0000      -0.564730       -15.3671
  12   2.0000      -0.531280       -14.4569
  13   2.0000      -0.414410       -11.2767
  14   2.0000      -0.390985       -10.6392
  15   0.0000       0.196571         5.3490
  16   0.0000       0.217158         5.9092
  17   0.0000       0.527865        14.3639
  18   0.0000       0.582735        15.8570
  19   0.0000       0.706639        19.2286

MULLIKEN ATOMIC CHARGES
-----------------------
   0 C :    0.209317
   1 O :   -0.351865
   2 C :   -0.179911
   3 C :   -0.246752
   4 H :    0.133727
   5 H :    0.149511
   6 H :    0.142560
   7 H :    0.143415
Sum of atomic charges:    0.0000000

LOEWDIN ATOMIC CHARGES
----------------------
   0 C :    0.172127
   1 O :   -0.240117
   2 C :   -0.131778
   3 C :   -0.147561
   4 H :    0.074072
   5 H :    0.092380
   6 H :    0.089497
   7 H :    0.091380

  Mayer bond orders larger than 0.100000
B(  0-C ,  1-O ) :   1.9741 B(  0-C ,  2-C ) :   0.9538 B(  0-C ,  4-H ) :   0.9032
B(  2-C ,  3-C ) :   2.0047 B(  2-C ,  5-H ) :   0.9551 B(  3-C ,  6-H ) :   0.9654
B(  3-C ,  7-H ) :   0.9627

-----------------------------------------------------------------------------
         ABSORPTION SPECTRUM VIA TRANSITION ELECTRIC DIPOLE MOMENTS
-----------------------------------------------------------------------------
State   Energy    Wavelength  fosc         T2        TX        TY        TZ
        (cm-1)      (nm)                 (au**2)    (au)      (au)      (au)
-----------------------------------------------------------------------------
   1   37135.9    269.3   0.000040711   0.00036   0.01750  -0.00664   0.00322

Dispersion correction           -0.025520145
FINAL SINGLE POINT ENERGY      -189.295470828300

DIPOLE MOMENT
-------------
                                X             Y             Z
Electronic contribution:     -2.51460      -1.54260       0.82146
Nuclear contribution   :      2.82517       2.26106      -1.30267
                        -----------------------------------------
Total Dipole Moment    :      0.31057       0.71846      -0.48121
                        -----------------------------------------
Magnitude (a.u.)       :      0.91880
Magnitude (Debye)      :      2.33541

Rotational constants in cm-1:     0.899902     0.178178     0.162817
Rotational constants in MHz : 26978.389960  5341.644039  4881.117603

                             ****ORCA TERMINATED NORMALLY****
TOTAL RUN TIME: 0 days 0 hours 0 minutes 12 seconds 130 msec
