                         Program Version 5.0.3 -  RELEASE  -
|  1> ! B3LYP cc-pVDZ
|  2> !TightSCF
|  3> %scf
|  4>  ConvForced true
|  5>  convergence tight
|  6>  MaxIter 500
|  7> end
|  8>
|  9> %tddft
| 10>  nroots 1
| 11> end
| 12>
| 13> # 	17372
| 14> * xyz 0 1
| 15> 		C   -1.209748  -0.362627  -0.011345
| 16> 		O   -1.901014  -0.791504  -0.826634
| 17> 		C    0.013297   0.450626  -0.175868
| 18> 		C    1.229045   0.091474   0.173531
| 19> 		H   -1.547386  -0.552225   1.042838
| 20> 		H   -0.009568   1.290954  -0.890517
| 21> 		H    1.315729  -0.812181   0.903958
| 22> 		H    2.094480   0.700734  -0.203893
| 23> *
| 24>
| 25>                          ****END OF INPUT****

CARTESIAN COORDINATES (ANGSTROEM)
---------------------------------
  C     -1.209748   -0.362627   -0.011345
  O     -1.901014   -0.791504   -0.826634
  C      0.013297    0.450626   -0.175868
  C      1.229045    0.091474    0.173531
  H     -1.547386   -0.552225    1.042838
  H     -0.009568    1.290954   -0.890517
  H      1.315729   -0.812181    0.903958
  H      2.094480    0.700734   -0.203893

 Total Charge           Charge          ....    0
 Multiplicity           Mult            ....    1
 Number of Electrons    NEL             ....   30
 Basis Dimension        Dim             ....   76

ORBITAL ENERGIES
----------------

  NO   OCC          E(Eh)            E(eV)
   0   2.0000     -19.142146      -520.8843
   1   2.0000     -10.275822      -279.6193
   2   2.0000     -10.217496      -278.0322
   3   2.0000     -10.202044      -277.6117
   4   2.0000      -1.084964       -29.5234
   5   2.0000      -0.801962       -21.8225
   6   2.0000      -0.642272       -17.4771
   7   2.0000      -0.555677       -15.1207
   8   2.0000      -0.491400       -13.3717
   9   2.0000      -0.467762       -12.7285
  10   2.0000      -0.442298       -12.0355
  11   2.0000      -0.407100       -11.0778
  12   2.0000      -0.373532       -10.1643
  13   2.0000      -0.294607        -8.0167
  14   2.0000      -0.252691        -6.8761
  15   0.0000      -0.041699        -1.1347
  16   0.0000       0.017687         0.4813
  17   0.0000       0.075765         2.0617
  18   0.0000       0.083442         2.2706
  19   0.0000       0.108972         2.9653

MULLIKEN ATOMIC CHARGES
-----------------------
   0 C :    0.162556
   1 O :   -0.130657
   2 C :   -0.089463
   3 C :    0.000406
   4 H :   -0.038677
   5 H :    0.014532
   6 H :    0.035802
   7 H :    0.045501
Sum of atomic charges:   -0.0000000

LOEWDIN ATOMIC CHARGES
----------------------
   0 C :   -0.068640
   1 O :    0.065125
   2 C :   -0.076917
   3 C :   -0.025853
   4 H :   -0.016808
   5 H :    0.038905
   6 H :    0.040507
   7 H :    0.043681

  Mayer bond orders larger than 0.100000
B(  0-C ,  1-O ) :   2.2817 B(  0-C ,  2-C ) :   0.9873 B(  0-C ,  4-H ) :   0.9080
B(  2-C ,  3-C ) :   2.0231 B(  2-C ,  5-H ) :   0.9282 B(  3-C ,  6-H ) :   0.9375
B(  3-C ,  7-H ) :   0.9323

-----------------------------------------------------------------------------
         ABSORPTION SPECTRUM VIA TRANSITION ELECTRIC DIPOLE MOMENTS
-----------------------------------------------------------------------------
State   Energy    Wavelength  fosc         T2        TX        TY        TZ
        (cm-1)      (nm)                 (au**2)    (au)      (au)      (au)
-----------------------------------------------------------------------------
   1   33330.1    300.0   0.000626936   0.00619   0.07792   0.01049   0.00327

FINAL SINGLE POINT ENERGY      -191.633404268797

DIPOLE MOMENT
-------------
                                X             Y             Z
Electronic contribution:     -2.89645      -0.85783      -1.22361
Nuclear contribution   :      3.60256       1.24042       1.62951
                        -----------------------------------------
Total Dipole Moment    :      0.70611       0.38258       0.40590
                        -----------------------------------------
Magnitude (a.u.)       :      0.89984
Magnitude (Debye)      :      2.28721

Rotational constants in cm-1:     1.276002     0.157916     0.152753
Rotational constants in MHz : 38253.589590  4734.206692  4579.418736

                             ****ORCA TERMINATED NORMALLY****
TOTAL RUN TIME: 0 days 0 hours 3 minutes 20 seconds 907 msec
