                         Program Version 5.0.3 -  RELEASE  -
|  1> ! B3LYP cc-pVDZ
|  2> !TightSCF
|  3> %scf
|  4>  ConvForced true
|  5>  convergence tight
|  6>  MaxIter 500
|  7> end
|  8>
|  9> %tddft
| 10>  nroots 1
| 11> end
| 12>
| 13> # 	12291
| 14> * xyz 0 1
| 15> 		C   -1.242022  -0.302725   0.113313
| 16> 		O   -1.505463  -1.109302   0.783385
| 17> 		C   -0.003520   0.515084   0.135182
| 18> 		C    1.191313   0.022600  -0.151637
| 19> 		H   -1.839382  -0.101463  -0.864789
| 20> 		H   -0.121254   1.550552   0.509503
| 21> 		H    1.344404  -1.099220  -0.465807
| 22> 		H    2.175136   0.577040  -0.015806
| 23> *
| 24>
| 25>                          ****END OF INPUT****

CARTESIAN COORDINATES (ANGSTROEM)
---------------------------------
  C     -1.242022   -0.302725    0.113313
  O     -1.505463   -1.109302    0.783385
  C     -0.003520    0.515084    0.135182
  C      1.191313    0.022600   -0.151637
  H     -1.839382   -0.101463   -0.864789
  H     -0.121254    1.550552    0.509503
  H      1.344404   -1.099220   -0.465807
  H      2.175136    0.577040   -0.015806

 Total Charge           Charge          ....    0
 Multiplicity           Mult            ....    1
 Number of Electrons    NEL             ....   30
 Basis Dimension        Dim             ....   76

ORBITAL ENERGIES
----------------

  NO   OCC          E(Eh)            E(eV)
   0   2.0000     -19.148598      -521.0598
   1   2.0000     -10.274168      -279.5743
   2   2.0000     -10.212082      -277.8849
   3   2.0000     -10.199358      -277.5387
   4   2.0000      -1.134466       -30.8704
   5   2.0000      -0.790214       -21.5028
   6   2.0000      -0.639164       -17.3925
   7   2.0000      -0.543820       -14.7981
   8   2.0000      -0.504097       -13.7172
   9   2.0000      -0.475253       -12.9323
  10   2.0000      -0.462203       -12.5772
  11   2.0000      -0.419503       -11.4153
  12   2.0000      -0.374101       -10.1798
  13   2.0000      -0.285632        -7.7724
  14   2.0000      -0.249626        -6.7927
  15   0.0000      -0.015112        -0.4112
  16   0.0000       0.010555         0.2872
  17   0.0000       0.081018         2.2046
  18   0.0000       0.082636         2.2486
  19   0.0000       0.103009         2.8030

MULLIKEN ATOMIC CHARGES
-----------------------
   0 C :    0.138158
   1 O :   -0.052323
   2 C :   -0.095958
   3 C :   -0.028338
   4 H :   -0.059526
   5 H :    0.017165
   6 H :    0.038573
   7 H :    0.042250
Sum of atomic charges:   -0.0000000

LOEWDIN ATOMIC CHARGES
----------------------
   0 C :   -0.115733
   1 O :    0.148410
   2 C :   -0.073853
   3 C :   -0.044568
   4 H :   -0.029282
   5 H :    0.037344
   6 H :    0.039528
   7 H :    0.038154

  Mayer bond orders larger than 0.100000
B(  0-C ,  1-O ) :   2.3938 B(  0-C ,  2-C ) :   0.9515 B(  0-C ,  4-H ) :   0.8772
B(  2-C ,  3-C ) :   2.0424 B(  2-C ,  5-H ) :   0.9297 B(  3-C ,  6-H ) :   0.9418
B(  3-C ,  7-H ) :   0.9438

-----------------------------------------------------------------------------
         ABSORPTION SPECTRUM VIA TRANSITION ELECTRIC DIPOLE MOMENTS
-----------------------------------------------------------------------------
State   Energy    Wavelength  fosc         T2        TX        TY        TZ
        (cm-1)      (nm)                 (au**2)    (au)      (au)      (au)
-----------------------------------------------------------------------------
   1   38505.4    259.7   0.000315945   0.00270   0.03375  -0.02652  -0.02931

FINAL SINGLE POINT ENERGY      -191.583005514893

DIPOLE MOMENT
-------------
                                X             Y             Z
Electronic contribution:     -2.63177      -1.29865       1.39239
Nuclear contribution   :      2.99701       1.79341      -1.63730
                        -----------------------------------------
Total Dipole Moment    :      0.36523       0.49476      -0.24492
                        -----------------------------------------
Magnitude (a.u.)       :      0.66194
Magnitude (Debye)      :      1.68252

Rotational constants in cm-1:     0.951255     0.183539     0.166159
Rotational constants in MHz : 28517.916168  5502.355708  4981.311206

                             ****ORCA TERMINATED NORMALLY****
TOTAL RUN TIME: 0 days 0 hours 3 minutes 27 seconds 872 msec
