                         Program Version 5.0.3 -  RELEASE  -
|  1> ! HF-3c
|  2> !TightSCF
|  3> %scf
|  4>  ConvForced true
|  5>  convergence tight
|  6>  MaxIter 500
|  7> end
|  8>
|  9> %tddft
| 10>  nroots 1
| 11> end
| 12>
| 13> # 	11900
| 14> * xyz 0 1
| 15> 		C   -1.128195  -0.342866  -0.067146
| 16> 		O   -1.233869  -1.576430  -0.041388
| 17> 		C    0.051731   0.541827  -0.020145
| 18> 		C    1.212832   0.004384  -0.104436
| 19> 		H   -2.114018   0.174212  -0.042922
| 20> 		H   -0.096126   1.608117   0.094407
| 21> 		H    1.275981  -1.080269  -0.072480
| 22> 		H    2.044822   0.693192   0.239281
| 23> *
| 24>
| 25>                          ****END OF INPUT****

CARTESIAN COORDINATES (ANGSTROEM)
---------------------------------
  C     -1.128195   -0.342866   -0.067146
  O     -1.233869   -1.576430   -0.041388
  C      0.051731    0.541827   -0.020145
  C      1.212832    0.004384   -0.104436
  H     -2.114018    0.174212   -0.042922
  H     -0.096126    1.608117    0.094407
  H      1.275981   -1.080269   -0.072480
  H      2.044822    0.693192    0.239281

 Total Charge           Charge          ....    0
 Multiplicity           Mult            ....    1
 Number of Electrons    NEL             ....   30
 Basis Dimension        Dim             ....   24

ORBITAL ENERGIES
----------------

  NO   OCC          E(Eh)            E(eV)
   0   2.0000     -20.353576      -553.8490
   1   2.0000     -11.284117      -307.0564
   2   2.0000     -11.197064      -304.6876
   3   2.0000     -11.194916      -304.6291
   4   2.0000      -1.378394       -37.5080
   5   2.0000      -1.106406       -30.1068
   6   2.0000      -0.888280       -24.1713
   7   2.0000      -0.741562       -20.1789
   8   2.0000      -0.709514       -19.3068
   9   2.0000      -0.611713       -16.6456
  10   2.0000      -0.583481       -15.8773
  11   2.0000      -0.535128       -14.5616
  12   2.0000      -0.531066       -14.4510
  13   2.0000      -0.411960       -11.2100
  14   2.0000      -0.403760       -10.9869
  15   0.0000       0.130385         3.5480
  16   0.0000       0.310186         8.4406
  17   0.0000       0.554688        15.0938
  18   0.0000       0.577735        15.7210
  19   0.0000       0.631230        17.1766

MULLIKEN ATOMIC CHARGES
-----------------------
   0 C :    0.160382
   1 O :   -0.353254
   2 C :   -0.186487
   3 C :   -0.219859
   4 H :    0.128466
   5 H :    0.150376
   6 H :    0.166358
   7 H :    0.154018
Sum of atomic charges:   -0.0000000

LOEWDIN ATOMIC CHARGES
----------------------
   0 C :    0.147889
   1 O :   -0.268336
   2 C :   -0.136803
   3 C :   -0.122658
   4 H :    0.066929
   5 H :    0.096296
   6 H :    0.110651
   7 H :    0.106033

  Mayer bond orders larger than 0.100000
B(  0-C ,  1-O ) :   1.9045 B(  0-C ,  2-C ) :   1.0245 B(  0-C ,  4-H ) :   0.9325
B(  2-C ,  3-C ) :   1.9500 B(  2-C ,  5-H ) :   0.9555 B(  3-C ,  6-H ) :   0.9533
B(  3-C ,  7-H ) :   0.9574

-----------------------------------------------------------------------------
         ABSORPTION SPECTRUM VIA TRANSITION ELECTRIC DIPOLE MOMENTS
-----------------------------------------------------------------------------
State   Energy    Wavelength  fosc         T2        TX        TY        TZ
        (cm-1)      (nm)                 (au**2)    (au)      (au)      (au)
-----------------------------------------------------------------------------
   1   30858.1    324.1   0.000081615   0.00087  -0.01972  -0.00161   0.02189

Dispersion correction           -0.026055070
FINAL SINGLE POINT ENERGY      -189.335927323363

DIPOLE MOMENT
-------------
                                X             Y             Z
Electronic contribution:     -1.74668      -1.73750      -0.29142
Nuclear contribution   :      2.16502       2.72191       0.38864
                        -----------------------------------------
Total Dipole Moment    :      0.41834       0.98441       0.09722
                        -----------------------------------------
Magnitude (a.u.)       :      1.07402
Magnitude (Debye)      :      2.72994

Rotational constants in cm-1:     0.814090     0.203076     0.162982
Rotational constants in MHz : 24405.796344  6088.059013  4886.067870

                             ****ORCA TERMINATED NORMALLY****
TOTAL RUN TIME: 0 days 0 hours 0 minutes 11 seconds 124 msec
