                         Program Version 5.0.3 -  RELEASE  -
|  1> ! B3LYP cc-pVDZ
|  2> !TightSCF
|  3> %scf
|  4>  ConvForced true
|  5>  convergence tight
|  6>  MaxIter 500
|  7> end
|  8>
|  9> %tddft
| 10>  nroots 1
| 11> end
| 12>
| 13> # 	3501
| 14> * xyz 0 1
| 15> 		C   -1.203616  -0.358085  -0.057235
| 16> 		O   -1.199668  -1.511715   0.148954
| 17> 		C    0.016962   0.489999   0.004177
| 18> 		C    1.233933  -0.020155  -0.026603
| 19> 		H   -2.226236   0.162010  -0.216434
| 20> 		H   -0.170862   1.566999   0.339873
| 21> 		H    1.353657  -0.993089  -0.148580
| 22> 		H    2.185652   0.592550  -0.049891
| 23> *
| 24>
| 25>                          ****END OF INPUT****

CARTESIAN COORDINATES (ANGSTROEM)
---------------------------------
  C     -1.203616   -0.358085   -0.057235
  O     -1.199668   -1.511715    0.148954
  C      0.016962    0.489999    0.004177
  C      1.233933   -0.020155   -0.026603
  H     -2.226236    0.162010   -0.216434
  H     -0.170862    1.566999    0.339873
  H      1.353657   -0.993089   -0.148580
  H      2.185652    0.592550   -0.049891

 Total Charge           Charge          ....    0
 Multiplicity           Mult            ....    1
 Number of Electrons    NEL             ....   30
 Basis Dimension        Dim             ....   76

ORBITAL ENERGIES
----------------

  NO   OCC          E(Eh)            E(eV)
   0   2.0000     -19.139565      -520.8140
   1   2.0000     -10.276182      -279.6291
   2   2.0000     -10.206257      -277.7264
   3   2.0000     -10.203255      -277.6447
   4   2.0000      -1.070950       -29.1420
   5   2.0000      -0.796500       -21.6739
   6   2.0000      -0.652826       -17.7643
   7   2.0000      -0.542761       -14.7693
   8   2.0000      -0.506479       -13.7820
   9   2.0000      -0.454508       -12.3678
  10   2.0000      -0.431701       -11.7472
  11   2.0000      -0.409370       -11.1395
  12   2.0000      -0.380522       -10.3545
  13   2.0000      -0.291189        -7.9236
  14   2.0000      -0.253709        -6.9038
  15   0.0000      -0.060697        -1.6517
  16   0.0000       0.047964         1.3052
  17   0.0000       0.071489         1.9453
  18   0.0000       0.097701         2.6586
  19   0.0000       0.116443         3.1686

MULLIKEN ATOMIC CHARGES
-----------------------
   0 C :    0.157592
   1 O :   -0.151761
   2 C :   -0.149021
   3 C :    0.124324
   4 H :   -0.024242
   5 H :    0.012812
   6 H :   -0.011360
   7 H :    0.041657
Sum of atomic charges:   -0.0000000

LOEWDIN ATOMIC CHARGES
----------------------
   0 C :   -0.061342
   1 O :    0.035531
   2 C :   -0.082191
   3 C :    0.031569
   4 H :   -0.007015
   5 H :    0.038528
   6 H :   -0.000178
   7 H :    0.045099

  Mayer bond orders larger than 0.100000
B(  0-C ,  1-O ) :   2.2440 B(  0-C ,  2-C ) :   1.0193 B(  0-C ,  4-H ) :   0.9050
B(  2-C ,  3-C ) :   1.9885 B(  2-C ,  5-H ) :   0.9377 B(  3-C ,  6-H ) :   0.9317
B(  3-C ,  7-H ) :   0.9472

-----------------------------------------------------------------------------
         ABSORPTION SPECTRUM VIA TRANSITION ELECTRIC DIPOLE MOMENTS
-----------------------------------------------------------------------------
State   Energy    Wavelength  fosc         T2        TX        TY        TZ
        (cm-1)      (nm)                 (au**2)    (au)      (au)      (au)
-----------------------------------------------------------------------------
   1   29812.7    335.4   0.000284175   0.00314   0.04351   0.01595   0.03148

FINAL SINGLE POINT ENERGY      -191.654049163513

DIPOLE MOMENT
-------------
                                X             Y             Z
Electronic contribution:     -1.85163      -1.90656       0.07389
Nuclear contribution   :      2.22812       2.66908      -0.15896
                        -----------------------------------------
Total Dipole Moment    :      0.37650       0.76252      -0.08506
                        -----------------------------------------
Magnitude (a.u.)       :      0.85465
Magnitude (Debye)      :      2.17234

Rotational constants in cm-1:     0.799353     0.206981     0.165784
Rotational constants in MHz : 23963.995644  6205.137867  4970.069298

                             ****ORCA TERMINATED NORMALLY****
TOTAL RUN TIME: 0 days 0 hours 3 minutes 21 seconds 353 msec
