                         Program Version 5.0.3 -  RELEASE  -
|  1> ! B3LYP cc-pVDZ
|  2> !TightSCF
|  3> %scf
|  4>  ConvForced true
|  5>  convergence tight
|  6>  MaxIter 500
|  7> end
|  8>
|  9> %tddft
| 10>  nroots 1
| 11> end
| 12>
| 13> # 	7673
| 14> * xyz 0 1
| 15> 		C   -1.134913  -0.438181   0.063477
| 16> 		O   -1.824557  -0.991319   0.846143
| 17> 		C   -0.007862   0.364733   0.364595
| 18> 		C    1.195457   0.063155  -0.190043
| 19> 		H   -1.602037  -0.212206  -1.102367
| 20> 		H   -0.119384   1.420767   0.747267
| 21> 		H    1.370375  -0.790389  -0.711984
| 22> 		H    2.145475   0.650141  -0.066483
| 23> *
| 24>
| 25>                          ****END OF INPUT****

CARTESIAN COORDINATES (ANGSTROEM)
---------------------------------
  C     -1.134913   -0.438181    0.063477
  O     -1.824557   -0.991319    0.846143
  C     -0.007862    0.364733    0.364595
  C      1.195457    0.063155   -0.190043
  H     -1.602037   -0.212206   -1.102367
  H     -0.119384    1.420767    0.747267
  H      1.370375   -0.790389   -0.711984
  H      2.145475    0.650141   -0.066483

 Total Charge           Charge          ....    0
 Multiplicity           Mult            ....    1
 Number of Electrons    NEL             ....   30
 Basis Dimension        Dim             ....   76

ORBITAL ENERGIES
----------------

  NO   OCC          E(Eh)            E(eV)
   0   2.0000     -19.150213      -521.1038
   1   2.0000     -10.288416      -279.9620
   2   2.0000     -10.213469      -277.9226
   3   2.0000     -10.207583      -277.7625
   4   2.0000      -1.073314       -29.2064
   5   2.0000      -0.805392       -21.9158
   6   2.0000      -0.655551       -17.8385
   7   2.0000      -0.550704       -14.9854
   8   2.0000      -0.488861       -13.3026
   9   2.0000      -0.468230       -12.7412
  10   2.0000      -0.450906       -12.2698
  11   2.0000      -0.396359       -10.7855
  12   2.0000      -0.380012       -10.3406
  13   2.0000      -0.286460        -7.7950
  14   2.0000      -0.255094        -6.9415
  15   0.0000      -0.047075        -1.2810
  16   0.0000      -0.018202        -0.4953
  17   0.0000       0.075991         2.0678
  18   0.0000       0.095991         2.6120
  19   0.0000       0.103004         2.8029

MULLIKEN ATOMIC CHARGES
-----------------------
   0 C :    0.130498
   1 O :   -0.143073
   2 C :   -0.072476
   3 C :    0.030091
   4 H :   -0.020867
   5 H :    0.042290
   6 H :   -0.002891
   7 H :    0.036427
Sum of atomic charges:   -0.0000000

LOEWDIN ATOMIC CHARGES
----------------------
   0 C :   -0.066143
   1 O :    0.047106
   2 C :   -0.063184
   3 C :   -0.006484
   4 H :   -0.009051
   5 H :    0.056818
   6 H :    0.003525
   7 H :    0.037413

  Mayer bond orders larger than 0.100000
B(  0-C ,  1-O ) :   2.2456 B(  0-C ,  2-C ) :   1.0105 B(  0-C ,  4-H ) :   0.8736
B(  2-C ,  3-C ) :   2.0037 B(  2-C ,  5-H ) :   0.9320 B(  3-C ,  6-H ) :   0.9571
B(  3-C ,  7-H ) :   0.9531

-----------------------------------------------------------------------------
         ABSORPTION SPECTRUM VIA TRANSITION ELECTRIC DIPOLE MOMENTS
-----------------------------------------------------------------------------
State   Energy    Wavelength  fosc         T2        TX        TY        TZ
        (cm-1)      (nm)                 (au**2)    (au)      (au)      (au)
-----------------------------------------------------------------------------
   1   32109.2    311.4   0.000338542   0.00347  -0.01851   0.03681  -0.04211

FINAL SINGLE POINT ENERGY      -191.623260143104

DIPOLE MOMENT
-------------
                                X             Y             Z
Electronic contribution:     -2.73685      -1.46071       1.65302
Nuclear contribution   :      3.45407       1.98935      -2.07602
                        -----------------------------------------
Total Dipole Moment    :      0.71722       0.52864      -0.42300
                        -----------------------------------------
Magnitude (a.u.)       :      0.98631
Magnitude (Debye)      :      2.50699

Rotational constants in cm-1:     1.212375     0.161575     0.157012
Rotational constants in MHz : 36346.091910  4843.905854  4707.092919

                             ****ORCA TERMINATED NORMALLY****
TOTAL RUN TIME: 0 days 0 hours 3 minutes 17 seconds 946 msec
