                         Program Version 5.0.3 -  RELEASE  -
|  1> ! HF-3c
|  2> !TightSCF
|  3> %scf
|  4>  ConvForced true
|  5>  convergence tight
|  6>  MaxIter 500
|  7> end
|  8>
|  9> %tddft
| 10>  nroots 1
| 11> end
| 12>
| 13> # 	15464
| 14> * xyz 0 1
| 15> 		C   -1.202082  -0.297506  -0.032928
| 16> 		O   -1.311838  -1.437933   0.483679
| 17> 		C    0.090177   0.516866   0.245221
| 18> 		C    1.293276   0.047538  -0.076612
| 19> 		H   -2.064012   0.049260  -0.674416
| 20> 		H   -0.179634   1.479149   0.413812
| 21> 		H    1.365226  -1.007011  -0.301176
| 22> 		H    2.023455   0.633182  -0.061073
| 23> *
| 24>
| 25>                          ****END OF INPUT****

CARTESIAN COORDINATES (ANGSTROEM)
---------------------------------
  C     -1.202082   -0.297506   -0.032928
  O     -1.311838   -1.437933    0.483679
  C      0.090177    0.516866    0.245221
  C      1.293276    0.047538   -0.076612
  H     -2.064012    0.049260   -0.674416
  H     -0.179634    1.479149    0.413812
  H      1.365226   -1.007011   -0.301176
  H      2.023455    0.633182   -0.061073

 Total Charge           Charge          ....    0
 Multiplicity           Mult            ....    1
 Number of Electrons    NEL             ....   30
 Basis Dimension        Dim             ....   24

ORBITAL ENERGIES
----------------

  NO   OCC          E(Eh)            E(eV)
   0   2.0000     -20.352522      -553.8203
   1   2.0000     -11.282442      -307.0109
   2   2.0000     -11.203227      -304.8553
   3   2.0000     -11.197854      -304.7091
   4   2.0000      -1.368738       -37.2453
   5   2.0000      -1.088241       -29.6126
   6   2.0000      -0.894863       -24.3505
   7   2.0000      -0.767779       -20.8923
   8   2.0000      -0.709363       -19.3028
   9   2.0000      -0.633006       -17.2250
  10   2.0000      -0.602161       -16.3856
  11   2.0000      -0.551902       -15.0180
  12   2.0000      -0.497086       -13.5264
  13   2.0000      -0.415887       -11.3169
  14   2.0000      -0.401837       -10.9345
  15   0.0000       0.150127         4.0852
  16   0.0000       0.237514         6.4631
  17   0.0000       0.494082        13.4446
  18   0.0000       0.658265        17.9123
  19   0.0000       0.708722        19.2853

MULLIKEN ATOMIC CHARGES
-----------------------
   0 C :    0.149841
   1 O :   -0.343273
   2 C :   -0.146032
   3 C :   -0.265140
   4 H :    0.150682
   5 H :    0.143177
   6 H :    0.164982
   7 H :    0.145763
Sum of atomic charges:   -0.0000000

LOEWDIN ATOMIC CHARGES
----------------------
   0 C :    0.137945
   1 O :   -0.261232
   2 C :   -0.091618
   3 C :   -0.155223
   4 H :    0.090465
   5 H :    0.085060
   6 H :    0.110767
   7 H :    0.083837

  Mayer bond orders larger than 0.100000
B(  0-C ,  1-O ) :   1.9326 B(  0-C ,  2-C ) :   0.9921 B(  0-C ,  4-H ) :   0.9266
B(  2-C ,  3-C ) :   1.9818 B(  2-C ,  5-H ) :   0.9607 B(  3-C ,  6-H ) :   0.9586
B(  3-C ,  7-H ) :   0.9678

-----------------------------------------------------------------------------
         ABSORPTION SPECTRUM VIA TRANSITION ELECTRIC DIPOLE MOMENTS
-----------------------------------------------------------------------------
State   Energy    Wavelength  fosc         T2        TX        TY        TZ
        (cm-1)      (nm)                 (au**2)    (au)      (au)      (au)
-----------------------------------------------------------------------------
   1   31095.4    321.6   0.000008379   0.00009  -0.00389   0.00157   0.00843

Dispersion correction           -0.025337540
FINAL SINGLE POINT ENERGY      -189.309009980921

DIPOLE MOMENT
-------------
                                X             Y             Z
Electronic contribution:     -2.08101      -1.48220       0.69367
Nuclear contribution   :      2.24129       2.31427      -1.16453
                        -----------------------------------------
Total Dipole Moment    :      0.16028       0.83207      -0.47087
                        -----------------------------------------
Magnitude (a.u.)       :      0.96940
Magnitude (Debye)      :      2.46403

Rotational constants in cm-1:     0.801861     0.186580     0.159357
Rotational constants in MHz : 24039.177358  5593.536544  4777.408775

                             ****ORCA TERMINATED NORMALLY****
TOTAL RUN TIME: 0 days 0 hours 0 minutes 12 seconds 710 msec
