                         Program Version 5.0.3 -  RELEASE  -
|  1> ! HF-3c
|  2> !TightSCF
|  3> %scf
|  4>  ConvForced true
|  5>  convergence tight
|  6>  MaxIter 500
|  7> end
|  8>
|  9> %tddft
| 10>  nroots 1
| 11> end
| 12>
| 13> # 	23756
| 14> * xyz 0 1
| 15> 		C   -0.584511  -0.428364   0.155406
| 16> 		O   -0.593987  -1.659301  -0.103149
| 17> 		C    0.634321   0.414027  -0.103895
| 18> 		C    1.858987  -0.096198   0.064003
| 19> 		H   -1.589843   0.170624   0.398415
| 20> 		H    0.445333   1.456266  -0.416092
| 21> 		H    1.993003  -1.212513   0.508989
| 22> 		H    2.791598   0.499817  -0.278837
| 23> *
| 24>
| 25>                          ****END OF INPUT****

CARTESIAN COORDINATES (ANGSTROEM)
---------------------------------
  C     -0.584511   -0.428364    0.155406
  O     -0.593987   -1.659301   -0.103149
  C      0.634321    0.414027   -0.103895
  C      1.858987   -0.096198    0.064003
  H     -1.589843    0.170624    0.398415
  H      0.445333    1.456266   -0.416092
  H      1.993003   -1.212513    0.508989
  H      2.791598    0.499817   -0.278837

 Total Charge           Charge          ....    0
 Multiplicity           Mult            ....    1
 Number of Electrons    NEL             ....   30
 Basis Dimension        Dim             ....   24

ORBITAL ENERGIES
----------------

  NO   OCC          E(Eh)            E(eV)
   0   2.0000     -20.345548      -553.6305
   1   2.0000     -11.277744      -306.8830
   2   2.0000     -11.182899      -304.3021
   3   2.0000     -11.178542      -304.1836
   4   2.0000      -1.360885       -37.0316
   5   2.0000      -1.059677       -28.8353
   6   2.0000      -0.863570       -23.4989
   7   2.0000      -0.718426       -19.5494
   8   2.0000      -0.674679       -18.3589
   9   2.0000      -0.589355       -16.0372
  10   2.0000      -0.576724       -15.6934
  11   2.0000      -0.510267       -13.8851
  12   2.0000      -0.502406       -13.6712
  13   2.0000      -0.402545       -10.9538
  14   2.0000      -0.382927       -10.4200
  15   0.0000       0.140768         3.8305
  16   0.0000       0.287023         7.8103
  17   0.0000       0.491628        13.3779
  18   0.0000       0.536541        14.6000
  19   0.0000       0.601881        16.3780

MULLIKEN ATOMIC CHARGES
-----------------------
   0 C :    0.161822
   1 O :   -0.353242
   2 C :   -0.189370
   3 C :   -0.197431
   4 H :    0.135590
   5 H :    0.141468
   6 H :    0.158024
   7 H :    0.143140
Sum of atomic charges:    0.0000000

LOEWDIN ATOMIC CHARGES
----------------------
   0 C :    0.147022
   1 O :   -0.272119
   2 C :   -0.146905
   3 C :   -0.114231
   4 H :    0.081614
   5 H :    0.092220
   6 H :    0.114014
   7 H :    0.098385

  Mayer bond orders larger than 0.100000
B(  0-C ,  1-O ) :   1.9086 B(  0-C ,  2-C ) :   1.0203 B(  0-C ,  4-H ) :   0.9196
B(  2-C ,  3-C ) :   1.9530 B(  2-C ,  5-H ) :   0.9554 B(  3-C ,  6-H ) :   0.9539
B(  3-C ,  7-H ) :   0.9608

-----------------------------------------------------------------------------
         ABSORPTION SPECTRUM VIA TRANSITION ELECTRIC DIPOLE MOMENTS
-----------------------------------------------------------------------------
State   Energy    Wavelength  fosc         T2        TX        TY        TZ
        (cm-1)      (nm)                 (au**2)    (au)      (au)      (au)
-----------------------------------------------------------------------------
   1   31004.1    322.5   0.000039711   0.00042  -0.02033   0.00279   0.00080

Dispersion correction           -0.024972576
FINAL SINGLE POINT ENERGY      -189.329037187282

DIPOLE MOMENT
-------------
                                X             Y             Z
Electronic contribution:     -1.92282      -1.69648      -0.02174
Nuclear contribution   :      2.25764       2.64439       0.20108
                        -----------------------------------------
Total Dipole Moment    :      0.33482       0.94791       0.17934
                        -----------------------------------------
Magnitude (a.u.)       :      1.02118
Magnitude (Debye)      :      2.59562

Rotational constants in cm-1:     0.719479     0.200573     0.160776
Rotational constants in MHz : 21569.450833  6013.033967  4819.951979

                             ****ORCA TERMINATED NORMALLY****
TOTAL RUN TIME: 0 days 0 hours 0 minutes 16 seconds 49 msec
