                         Program Version 5.0.3 -  RELEASE  -
|  1> ! B3LYP cc-pVDZ
|  2> !TightSCF
|  3> %scf
|  4>  ConvForced true
|  5>  convergence tight
|  6>  MaxIter 500
|  7> end
|  8>
|  9> %tddft
| 10>  nroots 1
| 11> end
| 12>
| 13> # 	12334
| 14> * xyz 0 1
| 15> 		C   -1.198092  -0.243628  -0.040063
| 16> 		O   -1.990185  -0.571333  -1.015733
| 17> 		C    0.069095   0.418845  -0.309276
| 18> 		C    1.192534   0.078077   0.156484
| 19> 		H   -1.374323  -0.613020   1.041559
| 20> 		H   -0.055040   1.059080  -0.918845
| 21> 		H    1.161536  -0.827635   0.936051
| 22> 		H    2.183804   0.678209   0.182708
| 23> *
| 24>
| 25>                          ****END OF INPUT****

CARTESIAN COORDINATES (ANGSTROEM)
---------------------------------
  C     -1.198092   -0.243628   -0.040063
  O     -1.990185   -0.571333   -1.015733
  C      0.069095    0.418845   -0.309276
  C      1.192534    0.078077    0.156484
  H     -1.374323   -0.613020    1.041559
  H     -0.055040    1.059080   -0.918845
  H      1.161536   -0.827635    0.936051
  H      2.183804    0.678209    0.182708

 Total Charge           Charge          ....    0
 Multiplicity           Mult            ....    1
 Number of Electrons    NEL             ....   30
 Basis Dimension        Dim             ....   76

ORBITAL ENERGIES
----------------

  NO   OCC          E(Eh)            E(eV)
   0   2.0000     -19.147723      -521.0360
   1   2.0000     -10.288985      -279.9775
   2   2.0000     -10.221237      -278.1340
   3   2.0000     -10.186127      -277.1786
   4   2.0000      -1.007544       -27.4167
   5   2.0000      -0.825549       -22.4643
   6   2.0000      -0.654482       -17.8094
   7   2.0000      -0.588904       -16.0249
   8   2.0000      -0.485028       -13.1983
   9   2.0000      -0.468391       -12.7456
  10   2.0000      -0.426472       -11.6049
  11   2.0000      -0.373909       -10.1746
  12   2.0000      -0.369328       -10.0499
  13   2.0000      -0.301314        -8.1992
  14   2.0000      -0.259437        -7.0596
  15   0.0000      -0.074846        -2.0367
  16   0.0000       0.028999         0.7891
  17   0.0000       0.065551         1.7837
  18   0.0000       0.086748         2.3605
  19   0.0000       0.102288         2.7834

MULLIKEN ATOMIC CHARGES
-----------------------
   0 C :    0.128743
   1 O :   -0.246350
   2 C :    0.144291
   3 C :   -0.019480
   4 H :    0.012553
   5 H :   -0.106867
   6 H :    0.030400
   7 H :    0.056711
Sum of atomic charges:    0.0000000

LOEWDIN ATOMIC CHARGES
----------------------
   0 C :    0.040694
   1 O :   -0.067889
   2 C :   -0.039989
   3 C :   -0.010412
   4 H :    0.010778
   5 H :   -0.026879
   6 H :    0.042598
   7 H :    0.051098

  Mayer bond orders larger than 0.100000
B(  0-C ,  1-O ) :   2.0911 B(  0-C ,  2-C ) :   1.0567 B(  0-C ,  4-H ) :   0.9138
B(  2-C ,  3-C ) :   1.9742 B(  2-C ,  5-H ) :   0.9433 B(  3-C ,  6-H ) :   0.9257
B(  3-C ,  7-H ) :   0.9357

-----------------------------------------------------------------------------
         ABSORPTION SPECTRUM VIA TRANSITION ELECTRIC DIPOLE MOMENTS
-----------------------------------------------------------------------------
State   Energy    Wavelength  fosc         T2        TX        TY        TZ
        (cm-1)      (nm)                 (au**2)    (au)      (au)      (au)
-----------------------------------------------------------------------------
   1   26533.6    376.9   0.001085114   0.01346   0.09406  -0.03693   0.05703

FINAL SINGLE POINT ENERGY      -191.611814625256

DIPOLE MOMENT
-------------
                                X             Y             Z
Electronic contribution:     -2.87637      -0.27660      -1.62251
Nuclear contribution   :      3.72673       0.65957       2.31331
                        -----------------------------------------
Total Dipole Moment    :      0.85037       0.38296       0.69080
                        -----------------------------------------
Magnitude (a.u.)       :      1.16060
Magnitude (Debye)      :      2.95001

Rotational constants in cm-1:     1.345502     0.157166     0.149349
Rotational constants in MHz : 40337.129598  4711.724803  4477.366472

                             ****ORCA TERMINATED NORMALLY****
TOTAL RUN TIME: 0 days 0 hours 3 minutes 22 seconds 424 msec
