                         Program Version 5.0.3 -  RELEASE  -
|  1> ! B3LYP cc-pVDZ
|  2> !TightSCF
|  3> %scf
|  4>  ConvForced true
|  5>  convergence tight
|  6>  MaxIter 500
|  7> end
|  8>
|  9> %tddft
| 10>  nroots 1
| 11> end
| 12>
| 13> # 	26272
| 14> * xyz 0 1
| 15> 		C   -0.603721  -0.406758   0.078890
| 16> 		O   -0.555449  -1.679667  -0.044725
| 17> 		C    0.637219   0.464976  -0.061840
| 18> 		C    1.832539  -0.116016   0.025492
| 19> 		H   -1.480114   0.161615   0.145688
| 20> 		H    0.297830   1.534342  -0.120931
| 21> 		H    1.823237  -1.390851   0.208298
| 22> 		H    2.884254   0.304525  -0.043825
| 23> *
| 24>
| 25>                          ****END OF INPUT****

CARTESIAN COORDINATES (ANGSTROEM)
---------------------------------
  C     -0.603721   -0.406758    0.078890
  O     -0.555449   -1.679667   -0.044725
  C      0.637219    0.464976   -0.061840
  C      1.832539   -0.116016    0.025492
  H     -1.480114    0.161615    0.145688
  H      0.297830    1.534342   -0.120931
  H      1.823237   -1.390851    0.208298
  H      2.884254    0.304525   -0.043825

 Total Charge           Charge          ....    0
 Multiplicity           Mult            ....    1
 Number of Electrons    NEL             ....   30
 Basis Dimension        Dim             ....   76

ORBITAL ENERGIES
----------------

  NO   OCC          E(Eh)            E(eV)
   0   2.0000     -19.141128      -520.8566
   1   2.0000     -10.277994      -279.6784
   2   2.0000     -10.231745      -278.4199
   3   2.0000     -10.213388      -277.9204
   4   2.0000      -1.009683       -27.4749
   5   2.0000      -0.787414       -21.4266
   6   2.0000      -0.659734       -17.9523
   7   2.0000      -0.541777       -14.7425
   8   2.0000      -0.490800       -13.3553
   9   2.0000      -0.441618       -12.0170
  10   2.0000      -0.421811       -11.4781
  11   2.0000      -0.379082       -10.3154
  12   2.0000      -0.349941        -9.5224
  13   2.0000      -0.286356        -7.7921
  14   2.0000      -0.257573        -7.0089
  15   0.0000      -0.075635        -2.0581
  16   0.0000       0.042630         1.1600
  17   0.0000       0.054493         1.4828
  18   0.0000       0.073245         1.9931
  19   0.0000       0.120882         3.2894

MULLIKEN ATOMIC CHARGES
-----------------------
   0 C :    0.221265
   1 O :   -0.244261
   2 C :   -0.095862
   3 C :   -0.009334
   4 H :   -0.009795
   5 H :    0.001955
   6 H :    0.082605
   7 H :    0.053427
Sum of atomic charges:    0.0000000

LOEWDIN ATOMIC CHARGES
----------------------
   0 C :    0.026408
   1 O :   -0.063597
   2 C :   -0.092549
   3 C :   -0.001977
   4 H :   -0.007449
   5 H :    0.033352
   6 H :    0.068411
   7 H :    0.037401

  Mayer bond orders larger than 0.100000
B(  0-C ,  1-O ) :   2.1063 B(  0-C ,  2-C ) :   1.0683 B(  0-C ,  4-H ) :   0.9298
B(  2-C ,  3-C ) :   1.9274 B(  2-C ,  5-H ) :   0.9492 B(  3-C ,  6-H ) :   0.9071
B(  3-C ,  7-H ) :   0.9482

-----------------------------------------------------------------------------
         ABSORPTION SPECTRUM VIA TRANSITION ELECTRIC DIPOLE MOMENTS
-----------------------------------------------------------------------------
State   Energy    Wavelength  fosc         T2        TX        TY        TZ
        (cm-1)      (nm)                 (au**2)    (au)      (au)      (au)
-----------------------------------------------------------------------------
   1   26377.9    379.1   0.000037658   0.00047   0.00622  -0.00560  -0.02000

FINAL SINGLE POINT ENERGY      -191.655398139197

DIPOLE MOMENT
-------------
                                X             Y             Z
Electronic contribution:     -1.85324      -1.38444      -0.08934
Nuclear contribution   :      2.15129       2.35832       0.17780
                        -----------------------------------------
Total Dipole Moment    :      0.29805       0.97388       0.08846
                        -----------------------------------------
Magnitude (a.u.)       :      1.02230
Magnitude (Debye)      :      2.59849

Rotational constants in cm-1:     0.682321     0.209402     0.160970
Rotational constants in MHz : 20455.456178  6277.718031  4825.746870

                             ****ORCA TERMINATED NORMALLY****
TOTAL RUN TIME: 0 days 0 hours 3 minutes 22 seconds 758 msec
