                         Program Version 5.0.3 -  RELEASE  -
|  1> ! HF-3c
|  2> !TightSCF
|  3> %scf
|  4>  ConvForced true
|  5>  convergence tight
|  6>  MaxIter 500
|  7> end
|  8>
|  9> %tddft
| 10>  nroots 1
| 11> end
| 12>
| 13> # 	31394
| 14> * xyz 0 1
| 15> 		C   -0.629724  -0.462618  -0.034934
| 16> 		O   -0.554986  -1.585808   0.012441
| 17> 		C    0.606257   0.402905   0.083470
| 18> 		C    1.889573  -0.156844  -0.014703
| 19> 		H   -1.618671   0.156071  -0.270680
| 20> 		H    0.337662   1.488723  -0.047265
| 21> 		H    1.978937  -1.264238   0.032517
| 22> 		H    2.802048   0.638819  -0.331072
| 23> *
| 24>
| 25>                          ****END OF INPUT****

CARTESIAN COORDINATES (ANGSTROEM)
---------------------------------
  C     -0.629724   -0.462618   -0.034934
  O     -0.554986   -1.585808    0.012441
  C      0.606257    0.402905    0.083470
  C      1.889573   -0.156844   -0.014703
  H     -1.618671    0.156071   -0.270680
  H      0.337662    1.488723   -0.047265
  H      1.978937   -1.264238    0.032517
  H      2.802048    0.638819   -0.331072

 Total Charge           Charge          ....    0
 Multiplicity           Mult            ....    1
 Number of Electrons    NEL             ....   30
 Basis Dimension        Dim             ....   24

ORBITAL ENERGIES
----------------

  NO   OCC          E(Eh)            E(eV)
   0   2.0000     -20.382760      -554.6431
   1   2.0000     -11.309890      -307.7577
   2   2.0000     -11.177427      -304.1532
   3   2.0000     -11.159355      -303.6615
   4   2.0000      -1.464071       -39.8394
   5   2.0000      -1.033545       -28.1242
   6   2.0000      -0.858780       -23.3686
   7   2.0000      -0.722739       -19.6667
   8   2.0000      -0.688759       -18.7421
   9   2.0000      -0.615121       -16.7383
  10   2.0000      -0.575120       -15.6498
  11   2.0000      -0.557752       -15.1772
  12   2.0000      -0.522141       -14.2082
  13   2.0000      -0.388441       -10.5700
  14   2.0000      -0.366523        -9.9736
  15   0.0000       0.147099         4.0028
  16   0.0000       0.311872         8.4865
  17   0.0000       0.473622        12.8879
  18   0.0000       0.541746        14.7416
  19   0.0000       0.609200        16.5772

MULLIKEN ATOMIC CHARGES
-----------------------
   0 C :    0.200538
   1 O :   -0.380503
   2 C :   -0.176661
   3 C :   -0.202822
   4 H :    0.125571
   5 H :    0.125944
   6 H :    0.157518
   7 H :    0.150414
Sum of atomic charges:   -0.0000000

LOEWDIN ATOMIC CHARGES
----------------------
   0 C :    0.149534
   1 O :   -0.253227
   2 C :   -0.147396
   3 C :   -0.116072
   4 H :    0.067639
   5 H :    0.080926
   6 H :    0.106065
   7 H :    0.112531

  Mayer bond orders larger than 0.100000
B(  0-C ,  1-O ) :   1.9233 B(  0-C ,  2-C ) :   0.9941 B(  0-C ,  4-H ) :   0.8997
B(  2-C ,  3-C ) :   1.9418 B(  2-C ,  5-H ) :   0.9653 B(  3-C ,  6-H ) :   0.9572
B(  3-C ,  7-H ) :   0.9580

-----------------------------------------------------------------------------
         ABSORPTION SPECTRUM VIA TRANSITION ELECTRIC DIPOLE MOMENTS
-----------------------------------------------------------------------------
State   Energy    Wavelength  fosc         T2        TX        TY        TZ
        (cm-1)      (nm)                 (au**2)    (au)      (au)      (au)
-----------------------------------------------------------------------------
   1   37375.2    267.6   0.000101424   0.00089   0.02863   0.00837  -0.00183

Dispersion correction           -0.025199291
FINAL SINGLE POINT ENERGY      -189.271810613028

DIPOLE MOMENT
-------------
                                X             Y             Z
Electronic contribution:     -1.83639      -1.85216       0.39597
Nuclear contribution   :      2.12879       2.74359      -0.57713
                        -----------------------------------------
Total Dipole Moment    :      0.29239       0.89143      -0.18115
                        -----------------------------------------
Magnitude (a.u.)       :      0.95549
Magnitude (Debye)      :      2.42866

Rotational constants in cm-1:     0.739636     0.209187     0.163990
Rotational constants in MHz : 22173.717082  6271.259001  4916.306288

                             ****ORCA TERMINATED NORMALLY****
TOTAL RUN TIME: 0 days 0 hours 0 minutes 16 seconds 72 msec
