                         Program Version 5.0.3 -  RELEASE  -
|  1> ! B3LYP cc-pVDZ
|  2> !TightSCF
|  3> %scf
|  4>  ConvForced true
|  5>  convergence tight
|  6>  MaxIter 500
|  7> end
|  8>
|  9> %tddft
| 10>  nroots 1
| 11> end
| 12>
| 13> # 	10199
| 14> * xyz 0 1
| 15> 		C   -1.198500  -0.309690  -0.107292
| 16> 		O   -2.225377  -0.315836  -0.679366
| 17> 		C    0.026239   0.384477  -0.393270
| 18> 		C    1.041346   0.257610   0.317070
| 19> 		H   -0.933360  -1.048267   0.901042
| 20> 		H   -0.025313   0.816732  -1.287944
| 21> 		H    1.039841  -0.442207   1.281198
| 22> 		H    2.282707   0.644228  -0.086916
| 23> *
| 24>
| 25>                          ****END OF INPUT****

CARTESIAN COORDINATES (ANGSTROEM)
---------------------------------
  C     -1.198500   -0.309690   -0.107292
  O     -2.225377   -0.315836   -0.679366
  C      0.026239    0.384477   -0.393270
  C      1.041346    0.257610    0.317070
  H     -0.933360   -1.048267    0.901042
  H     -0.025313    0.816732   -1.287944
  H      1.039841   -0.442207    1.281198
  H      2.282707    0.644228   -0.086916

 Total Charge           Charge          ....    0
 Multiplicity           Mult            ....    1
 Number of Electrons    NEL             ....   30
 Basis Dimension        Dim             ....   76

ORBITAL ENERGIES
----------------

  NO   OCC          E(Eh)            E(eV)
   0   2.0000     -19.152015      -521.1528
   1   2.0000     -10.284993      -279.8689
   2   2.0000     -10.239980      -278.6440
   3   2.0000     -10.192159      -277.3427
   4   2.0000      -1.075213       -29.2580
   5   2.0000      -0.832935       -22.6653
   6   2.0000      -0.640060       -17.4169
   7   2.0000      -0.569619       -15.5001
   8   2.0000      -0.472674       -12.8621
   9   2.0000      -0.468495       -12.7484
  10   2.0000      -0.429085       -11.6760
  11   2.0000      -0.415612       -11.3094
  12   2.0000      -0.366446        -9.9715
  13   2.0000      -0.316267        -8.6061
  14   2.0000      -0.257334        -7.0024
  15   0.0000      -0.060366        -1.6427
  16   0.0000       0.024232         0.6594
  17   0.0000       0.057856         1.5744
  18   0.0000       0.073860         2.0098
  19   0.0000       0.112984         3.0744

MULLIKEN ATOMIC CHARGES
-----------------------
   0 C :    0.110210
   1 O :   -0.145233
   2 C :    0.094237
   3 C :   -0.075467
   4 H :   -0.062458
   5 H :   -0.049859
   6 H :    0.058293
   7 H :    0.070276
Sum of atomic charges:   -0.0000000

LOEWDIN ATOMIC CHARGES
----------------------
   0 C :   -0.060197
   1 O :    0.045961
   2 C :   -0.081005
   3 C :   -0.007962
   4 H :   -0.027886
   5 H :    0.013868
   6 H :    0.050360
   7 H :    0.066860

  Mayer bond orders larger than 0.100000
B(  0-C ,  1-O ) :   2.2326 B(  0-C ,  2-C ) :   1.0734 B(  0-C ,  4-H ) :   0.8622
B(  2-C ,  3-C ) :   1.9407 B(  2-C ,  5-H ) :   0.9452 B(  3-C ,  6-H ) :   0.9072
B(  3-C ,  7-H ) :   0.9205

-----------------------------------------------------------------------------
         ABSORPTION SPECTRUM VIA TRANSITION ELECTRIC DIPOLE MOMENTS
-----------------------------------------------------------------------------
State   Energy    Wavelength  fosc         T2        TX        TY        TZ
        (cm-1)      (nm)                 (au**2)    (au)      (au)      (au)
-----------------------------------------------------------------------------
   1   30655.9    326.2   0.000652197   0.00700   0.06066  -0.02511  -0.05190

FINAL SINGLE POINT ENERGY      -191.603472042540

DIPOLE MOMENT
-------------
                                X             Y             Z
Electronic contribution:     -3.51246       0.12089      -1.38893
Nuclear contribution   :      4.52294       0.04091       1.57124
                        -----------------------------------------
Total Dipole Moment    :      1.01047       0.16180       0.18231
                        -----------------------------------------
Magnitude (a.u.)       :      1.03946
Magnitude (Debye)      :      2.64209

Rotational constants in cm-1:     1.666579     0.160711     0.146856
Rotational constants in MHz : 49962.779454  4817.981059  4402.620618

                             ****ORCA TERMINATED NORMALLY****
TOTAL RUN TIME: 0 days 0 hours 2 minutes 46 seconds 281 msec
