                         Program Version 5.0.3 -  RELEASE  -
|  1> ! HF-3c
|  2> !TightSCF
|  3> %scf
|  4>  ConvForced true
|  5>  convergence tight
|  6>  MaxIter 500
|  7> end
|  8>
|  9> %tddft
| 10>  nroots 1
| 11> end
| 12>
| 13> # 	12313
| 14> * xyz 0 1
| 15> 		C   -1.231772  -0.410797  -0.013277
| 16> 		O   -2.110187  -0.478474   0.776862
| 17> 		C   -0.027366   0.417219   0.257881
| 18> 		C    1.187824   0.076941  -0.234513
| 19> 		H   -1.179140  -0.930697  -0.910529
| 20> 		H   -0.035404   1.407706   1.031564
| 21> 		H    1.266471  -0.783253  -0.928381
| 22> 		H    2.173745   0.737076  -0.025279
| 23> *
| 24>
| 25>                          ****END OF INPUT****

CARTESIAN COORDINATES (ANGSTROEM)
---------------------------------
  C     -1.231772   -0.410797   -0.013277
  O     -2.110187   -0.478474    0.776862
  C     -0.027366    0.417219    0.257881
  C      1.187824    0.076941   -0.234513
  H     -1.179140   -0.930697   -0.910529
  H     -0.035404    1.407706    1.031564
  H      1.266471   -0.783253   -0.928381
  H      2.173745    0.737076   -0.025279

 Total Charge           Charge          ....    0
 Multiplicity           Mult            ....    1
 Number of Electrons    NEL             ....   30
 Basis Dimension        Dim             ....   24

ORBITAL ENERGIES
----------------

  NO   OCC          E(Eh)            E(eV)
   0   2.0000     -20.380490      -554.5813
   1   2.0000     -11.309751      -307.7540
   2   2.0000     -11.175390      -304.0978
   3   2.0000     -11.173957      -304.0588
   4   2.0000      -1.426932       -38.8288
   5   2.0000      -1.061040       -28.8724
   6   2.0000      -0.871834       -23.7238
   7   2.0000      -0.768765       -20.9192
   8   2.0000      -0.661260       -17.9938
   9   2.0000      -0.630835       -17.1659
  10   2.0000      -0.576324       -15.6826
  11   2.0000      -0.544761       -14.8237
  12   2.0000      -0.503136       -13.6910
  13   2.0000      -0.413639       -11.2557
  14   2.0000      -0.383102       -10.4247
  15   0.0000       0.145002         3.9457
  16   0.0000       0.296703         8.0737
  17   0.0000       0.477238        12.9863
  18   0.0000       0.540506        14.7079
  19   0.0000       0.608126        16.5480

MULLIKEN ATOMIC CHARGES
-----------------------
   0 C :    0.159751
   1 O :   -0.346669
   2 C :   -0.153483
   3 C :   -0.226212
   4 H :    0.140153
   5 H :    0.152974
   6 H :    0.129525
   7 H :    0.143961
Sum of atomic charges:   -0.0000000

LOEWDIN ATOMIC CHARGES
----------------------
   0 C :    0.143699
   1 O :   -0.242784
   2 C :   -0.127657
   3 C :   -0.141813
   4 H :    0.069758
   5 H :    0.112659
   6 H :    0.083415
   7 H :    0.102723

  Mayer bond orders larger than 0.100000
B(  0-C ,  1-O ) :   1.9166 B(  0-C ,  2-C ) :   1.0142 B(  0-C ,  4-H ) :   0.9244
B(  2-C ,  3-C ) :   1.9568 B(  2-C ,  5-H ) :   0.9479 B(  3-C ,  6-H ) :   0.9646
B(  3-C ,  7-H ) :   0.9608

-----------------------------------------------------------------------------
         ABSORPTION SPECTRUM VIA TRANSITION ELECTRIC DIPOLE MOMENTS
-----------------------------------------------------------------------------
State   Energy    Wavelength  fosc         T2        TX        TY        TZ
        (cm-1)      (nm)                 (au**2)    (au)      (au)      (au)
-----------------------------------------------------------------------------
   1   34479.8    290.0   0.000092844   0.00089   0.02700   0.00607  -0.01098

Dispersion correction           -0.025089136
FINAL SINGLE POINT ENERGY      -189.300254018135

DIPOLE MOMENT
-------------
                                X             Y             Z
Electronic contribution:     -3.29827      -0.64511       0.99613
Nuclear contribution   :      4.23239       0.81507      -1.55663
                        -----------------------------------------
Total Dipole Moment    :      0.93412       0.16996      -0.56050
                        -----------------------------------------
Magnitude (a.u.)       :      1.10256
Magnitude (Debye)      :      2.80248

Rotational constants in cm-1:     1.374297     0.157086     0.144414
Rotational constants in MHz : 41200.386052  4709.325898  4329.412099

                             ****ORCA TERMINATED NORMALLY****
TOTAL RUN TIME: 0 days 0 hours 0 minutes 15 seconds 978 msec
