                         Program Version 5.0.3 -  RELEASE  -
|  1> ! HF-3c
|  2> !TightSCF
|  3> %scf
|  4>  ConvForced true
|  5>  convergence tight
|  6>  MaxIter 500
|  7> end
|  8>
|  9> %tddft
| 10>  nroots 1
| 11> end
| 12>
| 13> # 	18792
| 14> * xyz 0 1
| 15> 		C   -1.101342  -0.344894   0.002094
| 16> 		O   -1.635142  -1.132954   0.849610
| 17> 		C    0.001109   0.446012   0.269293
| 18> 		C    1.230551   0.063434  -0.206087
| 19> 		H   -1.713978  -0.198126  -0.954174
| 20> 		H   -0.188519   1.431325   0.797060
| 21> 		H    1.317926  -0.960627  -0.655218
| 22> 		H    2.111556   0.678747  -0.072430
| 23> *
| 24>
| 25>                          ****END OF INPUT****

CARTESIAN COORDINATES (ANGSTROEM)
---------------------------------
  C     -1.101342   -0.344894    0.002094
  O     -1.635142   -1.132954    0.849610
  C      0.001109    0.446012    0.269293
  C      1.230551    0.063434   -0.206087
  H     -1.713978   -0.198126   -0.954174
  H     -0.188519    1.431325    0.797060
  H      1.317926   -0.960627   -0.655218
  H      2.111556    0.678747   -0.072430

 Total Charge           Charge          ....    0
 Multiplicity           Mult            ....    1
 Number of Electrons    NEL             ....   30
 Basis Dimension        Dim             ....   24

ORBITAL ENERGIES
----------------

  NO   OCC          E(Eh)            E(eV)
   0   2.0000     -20.347810      -553.6920
   1   2.0000     -11.281289      -306.9795
   2   2.0000     -11.195122      -304.6347
   3   2.0000     -11.183650      -304.3226
   4   2.0000      -1.357612       -36.9425
   5   2.0000      -1.084208       -29.5028
   6   2.0000      -0.892015       -24.2730
   7   2.0000      -0.748049       -20.3554
   8   2.0000      -0.677093       -18.4246
   9   2.0000      -0.629363       -17.1258
  10   2.0000      -0.586893       -15.9702
  11   2.0000      -0.546034       -14.8583
  12   2.0000      -0.461679       -12.5629
  13   2.0000      -0.415993       -11.3198
  14   2.0000      -0.388137       -10.5617
  15   0.0000       0.168461         4.5840
  16   0.0000       0.194209         5.2847
  17   0.0000       0.575402        15.6575
  18   0.0000       0.605118        16.4661
  19   0.0000       0.646587        17.5945

MULLIKEN ATOMIC CHARGES
-----------------------
   0 C :    0.136816
   1 O :   -0.331344
   2 C :   -0.175173
   3 C :   -0.223631
   4 H :    0.144803
   5 H :    0.161965
   6 H :    0.143286
   7 H :    0.143277
Sum of atomic charges:    0.0000000

LOEWDIN ATOMIC CHARGES
----------------------
   0 C :    0.134638
   1 O :   -0.257682
   2 C :   -0.128378
   3 C :   -0.134873
   4 H :    0.085609
   5 H :    0.112132
   6 H :    0.095935
   7 H :    0.092619

  Mayer bond orders larger than 0.100000
B(  0-C ,  1-O ) :   1.9157 B(  0-C ,  2-C ) :   1.0475 B(  0-C ,  4-H ) :   0.9181
B(  2-C ,  3-C ) :   1.9642 B(  2-C ,  5-H ) :   0.9378 B(  3-C ,  6-H ) :   0.9654
B(  3-C ,  7-H ) :   0.9660

-----------------------------------------------------------------------------
         ABSORPTION SPECTRUM VIA TRANSITION ELECTRIC DIPOLE MOMENTS
-----------------------------------------------------------------------------
State   Energy    Wavelength  fosc         T2        TX        TY        TZ
        (cm-1)      (nm)                 (au**2)    (au)      (au)      (au)
-----------------------------------------------------------------------------
   1   30001.9    333.3   0.000110177   0.00121   0.03425   0.00145   0.00580

Dispersion correction           -0.025251213
FINAL SINGLE POINT ENERGY      -189.319467946894

DIPOLE MOMENT
-------------
                                X             Y             Z
Electronic contribution:     -2.40075      -1.22220       1.08388
Nuclear contribution   :      2.95777       1.89657      -1.72371
                        -----------------------------------------
Total Dipole Moment    :      0.55702       0.67436      -0.63984
                        -----------------------------------------
Magnitude (a.u.)       :      1.08371
Magnitude (Debye)      :      2.75458

Rotational constants in cm-1:     0.996139     0.168400     0.161325
Rotational constants in MHz : 29863.481992  5048.502562  4836.411575

                             ****ORCA TERMINATED NORMALLY****
TOTAL RUN TIME: 0 days 0 hours 0 minutes 12 seconds 415 msec
