                         Program Version 5.0.3 -  RELEASE  -
|  1> ! HF-3c
|  2> !TightSCF
|  3> %scf
|  4>  ConvForced true
|  5>  convergence tight
|  6>  MaxIter 500
|  7> end
|  8>
|  9> %tddft
| 10>  nroots 1
| 11> end
| 12>
| 13> # 	9245
| 14> * xyz 0 1
| 15> 		C   -1.143015  -0.291341   0.068029
| 16> 		O   -1.195602  -1.449026   0.393109
| 17> 		C    0.024794   0.532419   0.111389
| 18> 		C    1.251567  -0.003845  -0.054890
| 19> 		H   -2.125655   0.134833  -0.445740
| 20> 		H   -0.202928   1.606303   0.031168
| 21> 		H    1.210231  -1.175171  -0.079353
| 22> 		H    2.167148   0.582946  -0.052840
| 23> *
| 24>
| 25>                          ****END OF INPUT****

CARTESIAN COORDINATES (ANGSTROEM)
---------------------------------
  C     -1.143015   -0.291341    0.068029
  O     -1.195602   -1.449026    0.393109
  C      0.024794    0.532419    0.111389
  C      1.251567   -0.003845   -0.054890
  H     -2.125655    0.134833   -0.445740
  H     -0.202928    1.606303    0.031168
  H      1.210231   -1.175171   -0.079353
  H      2.167148    0.582946   -0.052840

 Total Charge           Charge          ....    0
 Multiplicity           Mult            ....    1
 Number of Electrons    NEL             ....   30
 Basis Dimension        Dim             ....   24

ORBITAL ENERGIES
----------------

  NO   OCC          E(Eh)            E(eV)
   0   2.0000     -20.352711      -553.8254
   1   2.0000     -11.289148      -307.1933
   2   2.0000     -11.192907      -304.5745
   3   2.0000     -11.185322      -304.3681
   4   2.0000      -1.401011       -38.1234
   5   2.0000      -1.078868       -29.3575
   6   2.0000      -0.885634       -24.0993
   7   2.0000      -0.724367       -19.7110
   8   2.0000      -0.699913       -19.0456
   9   2.0000      -0.611074       -16.6282
  10   2.0000      -0.595427       -16.2024
  11   2.0000      -0.533222       -14.5097
  12   2.0000      -0.516469       -14.0538
  13   2.0000      -0.405222       -11.0267
  14   2.0000      -0.387906       -10.5555
  15   0.0000       0.135491         3.6869
  16   0.0000       0.301276         8.1981
  17   0.0000       0.523744        14.2518
  18   0.0000       0.566141        15.4055
  19   0.0000       0.650617        17.7042

MULLIKEN ATOMIC CHARGES
-----------------------
   0 C :    0.167650
   1 O :   -0.365621
   2 C :   -0.187499
   3 C :   -0.204240
   4 H :    0.131095
   5 H :    0.141981
   6 H :    0.165878
   7 H :    0.150757
Sum of atomic charges:   -0.0000000

LOEWDIN ATOMIC CHARGES
----------------------
   0 C :    0.141922
   1 O :   -0.270535
   2 C :   -0.145143
   3 C :   -0.109622
   4 H :    0.074904
   5 H :    0.091611
   6 H :    0.117784
   7 H :    0.099078

  Mayer bond orders larger than 0.100000
B(  0-C ,  1-O ) :   1.8925 B(  0-C ,  2-C ) :   1.0466 B(  0-C ,  4-H ) :   0.9157
B(  2-C ,  3-C ) :   1.9294 B(  2-C ,  5-H ) :   0.9562 B(  3-C ,  6-H ) :   0.9521
B(  3-C ,  7-H ) :   0.9637

-----------------------------------------------------------------------------
         ABSORPTION SPECTRUM VIA TRANSITION ELECTRIC DIPOLE MOMENTS
-----------------------------------------------------------------------------
State   Energy    Wavelength  fosc         T2        TX        TY        TZ
        (cm-1)      (nm)                 (au**2)    (au)      (au)      (au)
-----------------------------------------------------------------------------
   1   32925.2    303.7   0.000119360   0.00119  -0.02663   0.00235   0.02188

Dispersion correction           -0.025935868
FINAL SINGLE POINT ENERGY      -189.324084744575

DIPOLE MOMENT
-------------
                                X             Y             Z
Electronic contribution:     -1.69103      -1.48813       0.64562
Nuclear contribution   :      2.07303       2.34504      -0.99327
                        -----------------------------------------
Total Dipole Moment    :      0.38200       0.85691      -0.34764
                        -----------------------------------------
Magnitude (a.u.)       :      1.00054
Magnitude (Debye)      :      2.54317

Rotational constants in cm-1:     0.776298     0.209995     0.168043
Rotational constants in MHz : 23272.839714  6295.490262  5037.788009

                             ****ORCA TERMINATED NORMALLY****
TOTAL RUN TIME: 0 days 0 hours 0 minutes 12 seconds 516 msec
