                         Program Version 5.0.3 -  RELEASE  -
|  1> ! B3LYP cc-pVDZ
|  2> !TightSCF
|  3> %scf
|  4>  ConvForced true
|  5>  convergence tight
|  6>  MaxIter 500
|  7> end
|  8>
|  9> %tddft
| 10>  nroots 1
| 11> end
| 12>
| 13> # 	24885
| 14> * xyz 0 1
| 15> 		C   -0.614476  -0.414368   0.024527
| 16> 		O   -0.612882  -1.665172  -0.032051
| 17> 		C    0.633511   0.339687   0.000502
| 18> 		C    1.874476  -0.067108   0.039160
| 19> 		H   -1.538527   0.266892   0.172652
| 20> 		H    0.777896   1.425995  -0.265391
| 21> 		H    2.261605  -0.973273   0.109208
| 22> 		H    2.652606   0.683988  -0.305063
| 23> *
| 24>
| 25>                          ****END OF INPUT****

CARTESIAN COORDINATES (ANGSTROEM)
---------------------------------
  C     -0.614476   -0.414368    0.024527
  O     -0.612882   -1.665172   -0.032051
  C      0.633511    0.339687    0.000502
  C      1.874476   -0.067108    0.039160
  H     -1.538527    0.266892    0.172652
  H      0.777896    1.425995   -0.265391
  H      2.261605   -0.973273    0.109208
  H      2.652606    0.683988   -0.305063

 Total Charge           Charge          ....    0
 Multiplicity           Mult            ....    1
 Number of Electrons    NEL             ....   30
 Basis Dimension        Dim             ....   76

ORBITAL ENERGIES
----------------

  NO   OCC          E(Eh)            E(eV)
   0   2.0000     -19.146520      -521.0033
   1   2.0000     -10.288747      -279.9710
   2   2.0000     -10.204731      -277.6848
   3   2.0000     -10.203619      -277.6546
   4   2.0000      -1.029564       -28.0159
   5   2.0000      -0.805824       -21.9276
   6   2.0000      -0.667311       -18.1585
   7   2.0000      -0.557995       -15.1838
   8   2.0000      -0.505641       -13.7592
   9   2.0000      -0.447143       -12.1674
  10   2.0000      -0.423138       -11.5142
  11   2.0000      -0.389562       -10.6005
  12   2.0000      -0.363117        -9.8809
  13   2.0000      -0.292731        -7.9656
  14   2.0000      -0.262215        -7.1352
  15   0.0000      -0.079006        -2.1499
  16   0.0000       0.049235         1.3398
  17   0.0000       0.058708         1.5975
  18   0.0000       0.090296         2.4571
  19   0.0000       0.120358         3.2751

MULLIKEN ATOMIC CHARGES
-----------------------
   0 C :    0.186090
   1 O :   -0.210715
   2 C :   -0.085610
   3 C :    0.089154
   4 H :    0.007434
   5 H :    0.002362
   6 H :   -0.019173
   7 H :    0.030458
Sum of atomic charges:   -0.0000000

LOEWDIN ATOMIC CHARGES
----------------------
   0 C :   -0.013786
   1 O :   -0.031085
   2 C :   -0.090818
   3 C :    0.038727
   4 H :    0.008481
   5 H :    0.047645
   6 H :   -0.004840
   7 H :    0.045675

  Mayer bond orders larger than 0.100000
B(  0-C ,  1-O ) :   2.1606 B(  0-C ,  2-C ) :   1.0398 B(  0-C ,  4-H ) :   0.9083
B(  2-C ,  3-C ) :   1.9840 B(  2-C ,  5-H ) :   0.9221 B(  3-C ,  6-H ) :   0.9637
B(  3-C ,  7-H ) :   0.9426

-----------------------------------------------------------------------------
         ABSORPTION SPECTRUM VIA TRANSITION ELECTRIC DIPOLE MOMENTS
-----------------------------------------------------------------------------
State   Energy    Wavelength  fosc         T2        TX        TY        TZ
        (cm-1)      (nm)                 (au**2)    (au)      (au)      (au)
-----------------------------------------------------------------------------
   1   26770.1    373.6   0.000234767   0.00289  -0.04194   0.00222   0.03352

FINAL SINGLE POINT ENERGY      -191.652419218834

DIPOLE MOMENT
-------------
                                X             Y             Z
Electronic contribution:     -2.30779      -2.18850       0.23040
Nuclear contribution   :      2.73698       3.10184      -0.26903
                        -----------------------------------------
Total Dipole Moment    :      0.42918       0.91334      -0.03863
                        -----------------------------------------
Magnitude (a.u.)       :      1.00989
Magnitude (Debye)      :      2.56694

Rotational constants in cm-1:     0.809202     0.196650     0.158946
Rotational constants in MHz : 24259.258081  5895.405581  4765.079181

                             ****ORCA TERMINATED NORMALLY****
TOTAL RUN TIME: 0 days 0 hours 3 minutes 7 seconds 360 msec
