                         Program Version 5.0.3 -  RELEASE  -
|  1> ! B3LYP cc-pVDZ
|  2> !TightSCF
|  3> %scf
|  4>  ConvForced true
|  5>  convergence tight
|  6>  MaxIter 500
|  7> end
|  8>
|  9> %tddft
| 10>  nroots 1
| 11> end
| 12>
| 13> # 	12528
| 14> * xyz 0 1
| 15> 		C   -1.184612  -0.323483   0.048377
| 16> 		O   -1.640381  -1.173280   0.675663
| 17> 		C    0.013760   0.533691   0.218893
| 18> 		C    1.192586   0.052460  -0.123610
| 19> 		H   -1.749556  -0.194824  -0.979007
| 20> 		H   -0.205205   1.490273   0.730680
| 21> 		H    1.343861  -1.028221  -0.669601
| 22> 		H    2.170934   0.636911   0.070836
| 23> *
| 24>
| 25>                          ****END OF INPUT****

CARTESIAN COORDINATES (ANGSTROEM)
---------------------------------
  C     -1.184612   -0.323483    0.048377
  O     -1.640381   -1.173280    0.675663
  C      0.013760    0.533691    0.218893
  C      1.192586    0.052460   -0.123610
  H     -1.749556   -0.194824   -0.979007
  H     -0.205205    1.490273    0.730680
  H      1.343861   -1.028221   -0.669601
  H      2.170934    0.636911    0.070836

 Total Charge           Charge          ....    0
 Multiplicity           Mult            ....    1
 Number of Electrons    NEL             ....   30
 Basis Dimension        Dim             ....   76

ORBITAL ENERGIES
----------------

  NO   OCC          E(Eh)            E(eV)
   0   2.0000     -19.144927      -520.9599
   1   2.0000     -10.279034      -279.7067
   2   2.0000     -10.224032      -278.2101
   3   2.0000     -10.211133      -277.8591
   4   2.0000      -1.086916       -29.5765
   5   2.0000      -0.800195       -21.7744
   6   2.0000      -0.638920       -17.3859
   7   2.0000      -0.542483       -14.7617
   8   2.0000      -0.492386       -13.3985
   9   2.0000      -0.464291       -12.6340
  10   2.0000      -0.450565       -12.2605
  11   2.0000      -0.397427       -10.8145
  12   2.0000      -0.377856       -10.2820
  13   2.0000      -0.293723        -7.9926
  14   2.0000      -0.245584        -6.6827
  15   0.0000      -0.016368        -0.4454
  16   0.0000      -0.012353        -0.3362
  17   0.0000       0.065474         1.7816
  18   0.0000       0.077065         2.0970
  19   0.0000       0.100060         2.7228

MULLIKEN ATOMIC CHARGES
-----------------------
   0 C :    0.126306
   1 O :   -0.119557
   2 C :   -0.055364
   3 C :   -0.044444
   4 H :   -0.042220
   5 H :    0.027873
   6 H :    0.057571
   7 H :    0.049835
Sum of atomic charges:    0.0000000

LOEWDIN ATOMIC CHARGES
----------------------
   0 C :   -0.066603
   1 O :    0.067147
   2 C :   -0.074057
   3 C :   -0.043542
   4 H :   -0.021476
   5 H :    0.043248
   6 H :    0.052695
   7 H :    0.042586

  Mayer bond orders larger than 0.100000
B(  0-C ,  1-O ) :   2.3118 B(  0-C ,  2-C ) :   0.9625 B(  0-C ,  4-H ) :   0.8930
B(  2-C ,  3-C ) :   2.0220 B(  2-C ,  5-H ) :   0.9336 B(  3-C ,  6-H ) :   0.9367
B(  3-C ,  7-H ) :   0.9408

-----------------------------------------------------------------------------
         ABSORPTION SPECTRUM VIA TRANSITION ELECTRIC DIPOLE MOMENTS
-----------------------------------------------------------------------------
State   Energy    Wavelength  fosc         T2        TX        TY        TZ
        (cm-1)      (nm)                 (au**2)    (au)      (au)      (au)
-----------------------------------------------------------------------------
   1   35358.9    282.8   0.000204601   0.00190   0.01473  -0.03191  -0.02588

FINAL SINGLE POINT ENERGY      -191.612382763730

DIPOLE MOMENT
-------------
                                X             Y             Z
Electronic contribution:     -2.52975      -1.20424       1.30825
Nuclear contribution   :      3.07974       1.81907      -1.56973
                        -----------------------------------------
Total Dipole Moment    :      0.54999       0.61483      -0.26148
                        -----------------------------------------
Magnitude (a.u.)       :      0.86537
Magnitude (Debye)      :      2.19961

Rotational constants in cm-1:     0.972687     0.172500     0.159695
Rotational constants in MHz : 29160.418765  5171.419989  4787.530916

                             ****ORCA TERMINATED NORMALLY****
TOTAL RUN TIME: 0 days 0 hours 3 minutes 4 seconds 647 msec
