                         Program Version 5.0.3 -  RELEASE  -
|  1> ! HF-3c
|  2> !TightSCF
|  3> %scf
|  4>  ConvForced true
|  5>  convergence tight
|  6>  MaxIter 500
|  7> end
|  8>
|  9> %tddft
| 10>  nroots 1
| 11> end
| 12>
| 13> # 	6077
| 14> * xyz 0 1
| 15> 		C   -1.185538  -0.363778  -0.117350
| 16> 		O   -2.043635  -0.468890  -0.856891
| 17> 		C    0.062950   0.393027  -0.379076
| 18> 		C    1.205965   0.124390   0.235576
| 19> 		H   -1.210135  -0.840360   0.993395
| 20> 		H   -0.018160   1.114146  -1.113908
| 21> 		H    1.118326  -0.643168   1.031041
| 22> 		H    2.031562   0.676355   0.215176
| 23> *
| 24>
| 25>                          ****END OF INPUT****

CARTESIAN COORDINATES (ANGSTROEM)
---------------------------------
  C     -1.185538   -0.363778   -0.117350
  O     -2.043635   -0.468890   -0.856891
  C      0.062950    0.393027   -0.379076
  C      1.205965    0.124390    0.235576
  H     -1.210135   -0.840360    0.993395
  H     -0.018160    1.114146   -1.113908
  H      1.118326   -0.643168    1.031041
  H      2.031562    0.676355    0.215176

 Total Charge           Charge          ....    0
 Multiplicity           Mult            ....    1
 Number of Electrons    NEL             ....   30
 Basis Dimension        Dim             ....   24

ORBITAL ENERGIES
----------------

  NO   OCC          E(Eh)            E(eV)
   0   2.0000     -20.398645      -555.0753
   1   2.0000     -11.320125      -308.0363
   2   2.0000     -11.195940      -304.6570
   3   2.0000     -11.193737      -304.5971
   4   2.0000      -1.466170       -39.8965
   5   2.0000      -1.094552       -29.7843
   6   2.0000      -0.885608       -24.0986
   7   2.0000      -0.778729       -21.1903
   8   2.0000      -0.680712       -18.5231
   9   2.0000      -0.676382       -18.4053
  10   2.0000      -0.609614       -16.5884
  11   2.0000      -0.574482       -15.6325
  12   2.0000      -0.549944       -14.9647
  13   2.0000      -0.411166       -11.1884
  14   2.0000      -0.403427       -10.9778
  15   0.0000       0.142845         3.8870
  16   0.0000       0.306641         8.3441
  17   0.0000       0.533742        14.5239
  18   0.0000       0.578570        15.7437
  19   0.0000       0.694634        18.9019

MULLIKEN ATOMIC CHARGES
-----------------------
   0 C :    0.211310
   1 O :   -0.363360
   2 C :   -0.170164
   3 C :   -0.242439
   4 H :    0.122382
   5 H :    0.152129
   6 H :    0.142415
   7 H :    0.147728
Sum of atomic charges:    0.0000000

LOEWDIN ATOMIC CHARGES
----------------------
   0 C :    0.158986
   1 O :   -0.239421
   2 C :   -0.122345
   3 C :   -0.139668
   4 H :    0.065520
   5 H :    0.093060
   6 H :    0.094764
   7 H :    0.089103

  Mayer bond orders larger than 0.100000
B(  0-C ,  1-O ) :   1.9365 B(  0-C ,  2-C ) :   0.9942 B(  0-C ,  4-H ) :   0.8971
B(  2-C ,  3-C ) :   1.9676 B(  2-C ,  5-H ) :   0.9565 B(  3-C ,  6-H ) :   0.9617
B(  3-C ,  7-H ) :   0.9672

-----------------------------------------------------------------------------
         ABSORPTION SPECTRUM VIA TRANSITION ELECTRIC DIPOLE MOMENTS
-----------------------------------------------------------------------------
State   Energy    Wavelength  fosc         T2        TX        TY        TZ
        (cm-1)      (nm)                 (au**2)    (au)      (au)      (au)
-----------------------------------------------------------------------------
   1   37206.1    268.8   0.000030706   0.00027  -0.01095   0.00718  -0.01001

Dispersion correction           -0.025935400
FINAL SINGLE POINT ENERGY      -189.296454727804

DIPOLE MOMENT
-------------
                                X             Y             Z
Electronic contribution:     -2.97129      -0.52522      -1.44578
Nuclear contribution   :      3.77228       0.64038       2.09900
                        -----------------------------------------
Total Dipole Moment    :      0.80099       0.11516       0.65322
                        -----------------------------------------
Magnitude (a.u.)       :      1.03997
Magnitude (Debye)      :      2.64340

Rotational constants in cm-1:     1.545936     0.160438     0.147673
Rotational constants in MHz : 46346.008026  4809.797620  4427.126441

                             ****ORCA TERMINATED NORMALLY****
TOTAL RUN TIME: 0 days 0 hours 0 minutes 8 seconds 822 msec
