                         Program Version 5.0.3 -  RELEASE  -
|  1> ! B3LYP cc-pVDZ
|  2> !TightSCF
|  3> %scf
|  4>  ConvForced true
|  5>  convergence tight
|  6>  MaxIter 500
|  7> end
|  8>
|  9> %tddft
| 10>  nroots 1
| 11> end
| 12>
| 13> # 	25414
| 14> * xyz 0 1
| 15> 		C   -0.567313  -0.420034   0.080278
| 16> 		O   -0.553700  -1.607059  -0.045717
| 17> 		C    0.615572   0.400171  -0.081643
| 18> 		C    1.806878  -0.151825   0.055196
| 19> 		H   -1.522505   0.093323   0.243437
| 20> 		H    0.507073   1.560531  -0.175022
| 21> 		H    1.872628  -1.201709   0.030273
| 22> 		H    2.780079   0.356545  -0.028657
| 23> *
| 24>
| 25>                          ****END OF INPUT****

CARTESIAN COORDINATES (ANGSTROEM)
---------------------------------
  C     -0.567313   -0.420034    0.080278
  O     -0.553700   -1.607059   -0.045717
  C      0.615572    0.400171   -0.081643
  C      1.806878   -0.151825    0.055196
  H     -1.522505    0.093323    0.243437
  H      0.507073    1.560531   -0.175022
  H      1.872628   -1.201709    0.030273
  H      2.780079    0.356545   -0.028657

 Total Charge           Charge          ....    0
 Multiplicity           Mult            ....    1
 Number of Electrons    NEL             ....   30
 Basis Dimension        Dim             ....   76

ORBITAL ENERGIES
----------------

  NO   OCC          E(Eh)            E(eV)
   0   2.0000     -19.134866      -520.6862
   1   2.0000     -10.269567      -279.4491
   2   2.0000     -10.206539      -277.7340
   3   2.0000     -10.205645      -277.7097
   4   2.0000      -1.055999       -28.7352
   5   2.0000      -0.799338       -21.7511
   6   2.0000      -0.658679       -17.9236
   7   2.0000      -0.543006       -14.7760
   8   2.0000      -0.509473       -13.8635
   9   2.0000      -0.449560       -12.2331
  10   2.0000      -0.428410       -11.6576
  11   2.0000      -0.402677       -10.9574
  12   2.0000      -0.374258       -10.1841
  13   2.0000      -0.289360        -7.8739
  14   2.0000      -0.255883        -6.9629
  15   0.0000      -0.065805        -1.7906
  16   0.0000       0.057218         1.5570
  17   0.0000       0.067742         1.8433
  18   0.0000       0.098187         2.6718
  19   0.0000       0.120905         3.2900

MULLIKEN ATOMIC CHARGES
-----------------------
   0 C :    0.199027
   1 O :   -0.182741
   2 C :   -0.148346
   3 C :    0.095398
   4 H :   -0.028590
   5 H :    0.010259
   6 H :    0.022584
   7 H :    0.032409
Sum of atomic charges:    0.0000000

LOEWDIN ATOMIC CHARGES
----------------------
   0 C :   -0.048193
   1 O :    0.011741
   2 C :   -0.085389
   3 C :    0.031061
   4 H :   -0.006926
   5 H :    0.041069
   6 H :    0.022364
   7 H :    0.034274

  Mayer bond orders larger than 0.100000
B(  0-C ,  1-O ) :   2.1970 B(  0-C ,  2-C ) :   1.0541 B(  0-C ,  4-H ) :   0.9234
B(  2-C ,  3-C ) :   1.9716 B(  2-C ,  5-H ) :   0.9364 B(  3-C ,  6-H ) :   0.9292
B(  3-C ,  7-H ) :   0.9484

-----------------------------------------------------------------------------
         ABSORPTION SPECTRUM VIA TRANSITION ELECTRIC DIPOLE MOMENTS
-----------------------------------------------------------------------------
State   Energy    Wavelength  fosc         T2        TX        TY        TZ
        (cm-1)      (nm)                 (au**2)    (au)      (au)      (au)
-----------------------------------------------------------------------------
   1   28784.5    347.4   0.000124520   0.00142  -0.02890  -0.00484  -0.02378

FINAL SINGLE POINT ENERGY      -191.668543493733

DIPOLE MOMENT
-------------
                                X             Y             Z
Electronic contribution:     -1.87900      -1.70862      -0.01282
Nuclear contribution   :      2.25579       2.54652       0.06598
                        -----------------------------------------
Total Dipole Moment    :      0.37678       0.83790       0.05316
                        -----------------------------------------
Magnitude (a.u.)       :      0.92026
Magnitude (Debye)      :      2.33911

Rotational constants in cm-1:     0.765259     0.220126     0.172068
Rotational constants in MHz : 22941.890338  6599.206735  5158.467168

                             ****ORCA TERMINATED NORMALLY****
TOTAL RUN TIME: 0 days 0 hours 3 minutes 24 seconds 505 msec
