                         Program Version 5.0.3 -  RELEASE  -
|  1> ! B3LYP cc-pVDZ
|  2> !TightSCF
|  3> %scf
|  4>  ConvForced true
|  5>  convergence tight
|  6>  MaxIter 500
|  7> end
|  8>
|  9> %tddft
| 10>  nroots 1
| 11> end
| 12>
| 13> # 	32033
| 14> * xyz 0 1
| 15> 		C   -0.609067  -0.364539   0.074994
| 16> 		O   -0.539161  -1.625865  -0.042811
| 17> 		C    0.611374   0.372199  -0.073231
| 18> 		C    1.866630  -0.138932   0.018986
| 19> 		H   -1.694223   0.088546   0.219327
| 20> 		H    0.323409   1.391666  -0.084749
| 21> 		H    1.855105  -1.365093   0.237879
| 22> 		H    2.720769   0.515892   0.051250
| 23> *
| 24>
| 25>                          ****END OF INPUT****

CARTESIAN COORDINATES (ANGSTROEM)
---------------------------------
  C     -0.609067   -0.364539    0.074994
  O     -0.539161   -1.625865   -0.042811
  C      0.611374    0.372199   -0.073231
  C      1.866630   -0.138932    0.018986
  H     -1.694223    0.088546    0.219327
  H      0.323409    1.391666   -0.084749
  H      1.855105   -1.365093    0.237879
  H      2.720769    0.515892    0.051250

 Total Charge           Charge          ....    0
 Multiplicity           Mult            ....    1
 Number of Electrons    NEL             ....   30
 Basis Dimension        Dim             ....   76

ORBITAL ENERGIES
----------------

  NO   OCC          E(Eh)            E(eV)
   0   2.0000     -19.131064      -520.5827
   1   2.0000     -10.277517      -279.6655
   2   2.0000     -10.230559      -278.3877
   3   2.0000     -10.205275      -277.6996
   4   2.0000      -1.013742       -27.5853
   5   2.0000      -0.793272       -21.5860
   6   2.0000      -0.663128       -18.0446
   7   2.0000      -0.530078       -14.4242
   8   2.0000      -0.503587       -13.7033
   9   2.0000      -0.441062       -12.0019
  10   2.0000      -0.420147       -11.4328
  11   2.0000      -0.384034       -10.4501
  12   2.0000      -0.363437        -9.8896
  13   2.0000      -0.281551        -7.6614
  14   2.0000      -0.250996        -6.8299
  15   0.0000      -0.081232        -2.2104
  16   0.0000       0.051486         1.4010
  17   0.0000       0.060941         1.6583
  18   0.0000       0.075016         2.0413
  19   0.0000       0.108965         2.9651

MULLIKEN ATOMIC CHARGES
-----------------------
   0 C :    0.125857
   1 O :   -0.243238
   2 C :   -0.025066
   3 C :    0.030651
   4 H :    0.014954
   5 H :   -0.029214
   6 H :    0.084209
   7 H :    0.041847
Sum of atomic charges:    0.0000000

LOEWDIN ATOMIC CHARGES
----------------------
   0 C :   -0.016088
   1 O :   -0.063716
   2 C :   -0.080753
   3 C :    0.020507
   4 H :    0.019598
   5 H :    0.018285
   6 H :    0.071859
   7 H :    0.030307

  Mayer bond orders larger than 0.100000
B(  0-C ,  1-O ) :   2.0807 B(  0-C ,  2-C ) :   1.1016 B(  0-C ,  4-H ) :   0.9206
B(  1-O ,  3-C ) :   0.1127 B(  2-C ,  3-C ) :   1.9208 B(  2-C ,  5-H ) :   0.9442
B(  3-C ,  6-H ) :   0.9101 B(  3-C ,  7-H ) :   0.9359

-----------------------------------------------------------------------------
         ABSORPTION SPECTRUM VIA TRANSITION ELECTRIC DIPOLE MOMENTS
-----------------------------------------------------------------------------
State   Energy    Wavelength  fosc         T2        TX        TY        TZ
        (cm-1)      (nm)                 (au**2)    (au)      (au)      (au)
-----------------------------------------------------------------------------
   1   24201.6    413.2   0.000125006   0.00170  -0.01260  -0.00031   0.03926

FINAL SINGLE POINT ENERGY      -191.666700345019

DIPOLE MOMENT
-------------
                                X             Y             Z
Electronic contribution:     -1.50797      -1.42620      -0.26394
Nuclear contribution   :      1.85301       2.37918       0.39746
                        -----------------------------------------
Total Dipole Moment    :      0.34504       0.95299       0.13352
                        -----------------------------------------
Magnitude (a.u.)       :      1.02229
Magnitude (Debye)      :      2.59844

Rotational constants in cm-1:     0.716518     0.215690     0.166705
Rotational constants in MHz : 21480.672571  6466.231546  4997.697923

                             ****ORCA TERMINATED NORMALLY****
TOTAL RUN TIME: 0 days 0 hours 3 minutes 8 seconds 529 msec
