                         Program Version 5.0.3 -  RELEASE  -
|  1> ! HF-3c
|  2> !TightSCF
|  3> %scf
|  4>  ConvForced true
|  5>  convergence tight
|  6>  MaxIter 500
|  7> end
|  8>
|  9> %tddft
| 10>  nroots 1
| 11> end
| 12>
| 13> # 	30599
| 14> * xyz 0 1
| 15> 		C   -0.624889  -0.464514  -0.065542
| 16> 		O   -0.547140  -1.635157   0.026983
| 17> 		C    0.610342   0.471718   0.068512
| 18> 		C    1.865064  -0.135087  -0.017349
| 19> 		H   -1.529784   0.220846  -0.031448
| 20> 		H    0.480118   1.453230  -0.073221
| 21> 		H    1.773226  -1.306571  -0.124512
| 22> 		H    2.842214   0.350412  -0.029480
| 23> *
| 24>
| 25>                          ****END OF INPUT****

CARTESIAN COORDINATES (ANGSTROEM)
---------------------------------
  C     -0.624889   -0.464514   -0.065542
  O     -0.547140   -1.635157    0.026983
  C      0.610342    0.471718    0.068512
  C      1.865064   -0.135087   -0.017349
  H     -1.529784    0.220846   -0.031448
  H      0.480118    1.453230   -0.073221
  H      1.773226   -1.306571   -0.124512
  H      2.842214    0.350412   -0.029480

 Total Charge           Charge          ....    0
 Multiplicity           Mult            ....    1
 Number of Electrons    NEL             ....   30
 Basis Dimension        Dim             ....   24

ORBITAL ENERGIES
----------------

  NO   OCC          E(Eh)            E(eV)
   0   2.0000     -20.380731      -554.5879
   1   2.0000     -11.304808      -307.6195
   2   2.0000     -11.181493      -304.2639
   3   2.0000     -11.164371      -303.7980
   4   2.0000      -1.428935       -38.8833
   5   2.0000      -1.046750       -28.4835
   6   2.0000      -0.871603       -23.7175
   7   2.0000      -0.745894       -20.2968
   8   2.0000      -0.698787       -19.0150
   9   2.0000      -0.612482       -16.6665
  10   2.0000      -0.591516       -16.0960
  11   2.0000      -0.553810       -15.0699
  12   2.0000      -0.521228       -14.1833
  13   2.0000      -0.401232       -10.9181
  14   2.0000      -0.374970       -10.2034
  15   0.0000       0.137055         3.7295
  16   0.0000       0.288403         7.8478
  17   0.0000       0.522498        14.2179
  18   0.0000       0.586364        15.9558
  19   0.0000       0.621502        16.9119

MULLIKEN ATOMIC CHARGES
-----------------------
   0 C :    0.193586
   1 O :   -0.368332
   2 C :   -0.198162
   3 C :   -0.199144
   4 H :    0.136927
   5 H :    0.129950
   6 H :    0.161117
   7 H :    0.144057
Sum of atomic charges:   -0.0000000

LOEWDIN ATOMIC CHARGES
----------------------
   0 C :    0.163030
   1 O :   -0.259139
   2 C :   -0.159643
   3 C :   -0.101767
   4 H :    0.074481
   5 H :    0.075032
   6 H :    0.114087
   7 H :    0.093920

  Mayer bond orders larger than 0.100000
B(  0-C ,  1-O ) :   1.9294 B(  0-C ,  2-C ) :   0.9877 B(  0-C ,  4-H ) :   0.9126
B(  2-C ,  3-C ) :   1.9420 B(  2-C ,  5-H ) :   0.9693 B(  3-C ,  6-H ) :   0.9533
B(  3-C ,  7-H ) :   0.9660

-----------------------------------------------------------------------------
         ABSORPTION SPECTRUM VIA TRANSITION ELECTRIC DIPOLE MOMENTS
-----------------------------------------------------------------------------
State   Energy    Wavelength  fosc         T2        TX        TY        TZ
        (cm-1)      (nm)                 (au**2)    (au)      (au)      (au)
-----------------------------------------------------------------------------
   1   35369.3    282.7   0.000779158   0.00725  -0.08515   0.00032   0.00110

Dispersion correction           -0.025710043
FINAL SINGLE POINT ENERGY      -189.303929814952

DIPOLE MOMENT
-------------
                                X             Y             Z
Electronic contribution:     -1.92882      -1.65547       0.10899
Nuclear contribution   :      2.19032       2.46195      -0.24215
                        -----------------------------------------
Total Dipole Moment    :      0.26150       0.80648      -0.13317
                        -----------------------------------------
Magnitude (a.u.)       :      0.85821
Magnitude (Debye)      :      2.18140

Rotational constants in cm-1:     0.713894     0.209605     0.162486
Rotational constants in MHz : 21402.004543  6283.786590  4871.222237

                             ****ORCA TERMINATED NORMALLY****
TOTAL RUN TIME: 0 days 0 hours 0 minutes 11 seconds 917 msec
