                         Program Version 5.0.3 -  RELEASE  -
|  1> ! HF-3c
|  2> !TightSCF
|  3> %scf
|  4>  ConvForced true
|  5>  convergence tight
|  6>  MaxIter 500
|  7> end
|  8>
|  9> %tddft
| 10>  nroots 1
| 11> end
| 12>
| 13> # 	6078
| 14> * xyz 0 1
| 15> 		C   -1.186504  -0.332832  -0.112037
| 16> 		O   -2.118790  -0.359557  -0.779733
| 17> 		C    0.084719   0.386622  -0.425702
| 18> 		C    1.193660   0.118265   0.281715
| 19> 		H   -1.156976  -0.944564   0.906892
| 20> 		H    0.010653   1.030232  -1.163414
| 21> 		H    1.092569  -0.596199   1.079783
| 22> 		H    2.014602   0.683860   0.196566
| 23> *
| 24>
| 25>                          ****END OF INPUT****

CARTESIAN COORDINATES (ANGSTROEM)
---------------------------------
  C     -1.186504   -0.332832   -0.112037
  O     -2.118790   -0.359557   -0.779733
  C      0.084719    0.386622   -0.425702
  C      1.193660    0.118265    0.281715
  H     -1.156976   -0.944564    0.906892
  H      0.010653    1.030232   -1.163414
  H      1.092569   -0.596199    1.079783
  H      2.014602    0.683860    0.196566

 Total Charge           Charge          ....    0
 Multiplicity           Mult            ....    1
 Number of Electrons    NEL             ....   30
 Basis Dimension        Dim             ....   24

ORBITAL ENERGIES
----------------

  NO   OCC          E(Eh)            E(eV)
   0   2.0000     -20.390890      -554.8643
   1   2.0000     -11.314114      -307.8727
   2   2.0000     -11.201679      -304.8132
   3   2.0000     -11.197684      -304.7045
   4   2.0000      -1.455434       -39.6044
   5   2.0000      -1.096243       -29.8303
   6   2.0000      -0.887055       -24.1380
   7   2.0000      -0.790598       -21.5133
   8   2.0000      -0.681231       -18.5372
   9   2.0000      -0.673105       -18.3161
  10   2.0000      -0.598332       -16.2815
  11   2.0000      -0.577101       -15.7037
  12   2.0000      -0.570170       -15.5151
  13   2.0000      -0.408802       -11.1241
  14   2.0000      -0.404269       -11.0007
  15   0.0000       0.135434         3.6854
  16   0.0000       0.306752         8.3471
  17   0.0000       0.543773        14.7968
  18   0.0000       0.599674        16.3180
  19   0.0000       0.699613        19.0374

MULLIKEN ATOMIC CHARGES
-----------------------
   0 C :    0.206021
   1 O :   -0.364050
   2 C :   -0.174623
   3 C :   -0.238363
   4 H :    0.121693
   5 H :    0.152384
   6 H :    0.147283
   7 H :    0.149655
Sum of atomic charges:   -0.0000000

LOEWDIN ATOMIC CHARGES
----------------------
   0 C :    0.157584
   1 O :   -0.244349
   2 C :   -0.121808
   3 C :   -0.131622
   4 H :    0.063949
   5 H :    0.088875
   6 H :    0.096162
   7 H :    0.091209

  Mayer bond orders larger than 0.100000
B(  0-C ,  1-O ) :   1.9293 B(  0-C ,  2-C ) :   0.9990 B(  0-C ,  4-H ) :   0.9041
B(  2-C ,  3-C ) :   1.9583 B(  2-C ,  5-H ) :   0.9611 B(  3-C ,  6-H ) :   0.9633
B(  3-C ,  7-H ) :   0.9672

-----------------------------------------------------------------------------
         ABSORPTION SPECTRUM VIA TRANSITION ELECTRIC DIPOLE MOMENTS
-----------------------------------------------------------------------------
State   Energy    Wavelength  fosc         T2        TX        TY        TZ
        (cm-1)      (nm)                 (au**2)    (au)      (au)      (au)
-----------------------------------------------------------------------------
   1   36340.1    275.2   0.000051100   0.00046  -0.00138   0.01668  -0.01353

Dispersion correction           -0.026041020
FINAL SINGLE POINT ENERGY      -189.301303772573

DIPOLE MOMENT
-------------
                                X             Y             Z
Electronic contribution:     -2.98361      -0.34769      -1.31596
Nuclear contribution   :      3.87928       0.39325       1.92113
                        -----------------------------------------
Total Dipole Moment    :      0.89567       0.04557       0.60517
                        -----------------------------------------
Magnitude (a.u.)       :      1.08191
Magnitude (Debye)      :      2.75000

Rotational constants in cm-1:     1.582818     0.159245     0.145386
Rotational constants in MHz : 47451.683338  4774.055043  4358.563642

                             ****ORCA TERMINATED NORMALLY****
TOTAL RUN TIME: 0 days 0 hours 0 minutes 16 seconds 57 msec
