                         Program Version 5.0.3 -  RELEASE  -
|  1> ! HF-3c
|  2> !TightSCF
|  3> %scf
|  4>  ConvForced true
|  5>  convergence tight
|  6>  MaxIter 500
|  7> end
|  8>
|  9> %tddft
| 10>  nroots 1
| 11> end
| 12>
| 13> # 	2990
| 14> * xyz 0 1
| 15> 		C   -1.197751  -0.268207   0.034900
| 16> 		O   -1.598791  -1.028710   0.862143
| 17> 		C    0.017453   0.522481   0.128059
| 18> 		C    1.243847   0.067286  -0.194259
| 19> 		H   -1.775724  -0.375336  -0.934440
| 20> 		H   -0.191500   1.443235   0.755106
| 21> 		H    1.246587  -0.932716  -0.557081
| 22> 		H    2.222167   0.611519  -0.167696
| 23> *
| 24>
| 25>                          ****END OF INPUT****

CARTESIAN COORDINATES (ANGSTROEM)
---------------------------------
  C     -1.197751   -0.268207    0.034900
  O     -1.598791   -1.028710    0.862143
  C      0.017453    0.522481    0.128059
  C      1.243847    0.067286   -0.194259
  H     -1.775724   -0.375336   -0.934440
  H     -0.191500    1.443235    0.755106
  H      1.246587   -0.932716   -0.557081
  H      2.222167    0.611519   -0.167696

 Total Charge           Charge          ....    0
 Multiplicity           Mult            ....    1
 Number of Electrons    NEL             ....   30
 Basis Dimension        Dim             ....   24

ORBITAL ENERGIES
----------------

  NO   OCC          E(Eh)            E(eV)
   0   2.0000     -20.371523      -554.3373
   1   2.0000     -11.298727      -307.4540
   2   2.0000     -11.193399      -304.5879
   3   2.0000     -11.186419      -304.3979
   4   2.0000      -1.418571       -38.6013
   5   2.0000      -1.076843       -29.3024
   6   2.0000      -0.885396       -24.0929
   7   2.0000      -0.761099       -20.7105
   8   2.0000      -0.678322       -18.4581
   9   2.0000      -0.641687       -17.4612
  10   2.0000      -0.604632       -16.4529
  11   2.0000      -0.549701       -14.9581
  12   2.0000      -0.501971       -13.6593
  13   2.0000      -0.407145       -11.0790
  14   2.0000      -0.397622       -10.8198
  15   0.0000       0.185069         5.0360
  16   0.0000       0.211350         5.7511
  17   0.0000       0.552558        15.0359
  18   0.0000       0.595889        16.2150
  19   0.0000       0.652159        17.7462

MULLIKEN ATOMIC CHARGES
-----------------------
   0 C :    0.161442
   1 O :   -0.346836
   2 C :   -0.163045
   3 C :   -0.236214
   4 H :    0.139545
   5 H :    0.153672
   6 H :    0.139021
   7 H :    0.152416
Sum of atomic charges:    0.0000000

LOEWDIN ATOMIC CHARGES
----------------------
   0 C :    0.139350
   1 O :   -0.247798
   2 C :   -0.121010
   3 C :   -0.144293
   4 H :    0.077318
   5 H :    0.104918
   6 H :    0.088037
   7 H :    0.103479

  Mayer bond orders larger than 0.100000
B(  0-C ,  1-O ) :   1.9375 B(  0-C ,  2-C ) :   1.0019 B(  0-C ,  4-H ) :   0.9168
B(  2-C ,  3-C ) :   1.9891 B(  2-C ,  5-H ) :   0.9440 B(  3-C ,  6-H ) :   0.9655
B(  3-C ,  7-H ) :   0.9619

-----------------------------------------------------------------------------
         ABSORPTION SPECTRUM VIA TRANSITION ELECTRIC DIPOLE MOMENTS
-----------------------------------------------------------------------------
State   Energy    Wavelength  fosc         T2        TX        TY        TZ
        (cm-1)      (nm)                 (au**2)    (au)      (au)      (au)
-----------------------------------------------------------------------------
   1   34518.3    289.7   0.000097512   0.00093   0.01332   0.01074   0.02524

Dispersion correction           -0.025139868
FINAL SINGLE POINT ENERGY      -189.309058922699

DIPOLE MOMENT
-------------
                                X             Y             Z
Electronic contribution:     -2.44869      -0.90954       1.09027
Nuclear contribution   :      2.95096       1.48120      -1.67588
                        -----------------------------------------
Total Dipole Moment    :      0.50227       0.57166      -0.58561
                        -----------------------------------------
Magnitude (a.u.)       :      0.96021
Magnitude (Debye)      :      2.44067

Rotational constants in cm-1:     1.000294     0.169848     0.160794
Rotational constants in MHz : 29988.070529  5091.928605  4820.472089

                             ****ORCA TERMINATED NORMALLY****
TOTAL RUN TIME: 0 days 0 hours 0 minutes 16 seconds 50 msec
