                         Program Version 5.0.3 -  RELEASE  -
|  1> ! HF-3c
|  2> !TightSCF
|  3> %scf
|  4>  ConvForced true
|  5>  convergence tight
|  6>  MaxIter 500
|  7> end
|  8>
|  9> %tddft
| 10>  nroots 1
| 11> end
| 12>
| 13> # 	19790
| 14> * xyz 0 1
| 15> 		C   -1.143981  -0.298876   0.040974
| 16> 		O   -1.478636  -1.140949   0.902200
| 17> 		C    0.042808   0.480808   0.117271
| 18> 		C    1.192519   0.064115  -0.210216
| 19> 		H   -1.989436  -0.069393  -0.806754
| 20> 		H   -0.077424   1.442053   0.664536
| 21> 		H    1.301983  -1.109915  -0.568133
| 22> 		H    2.126379   0.645823  -0.150703
| 23> *
| 24>
| 25>                          ****END OF INPUT****

CARTESIAN COORDINATES (ANGSTROEM)
---------------------------------
  C     -1.143981   -0.298876    0.040974
  O     -1.478636   -1.140949    0.902200
  C      0.042808    0.480808    0.117271
  C      1.192519    0.064115   -0.210216
  H     -1.989436   -0.069393   -0.806754
  H     -0.077424    1.442053    0.664536
  H      1.301983   -1.109915   -0.568133
  H      2.126379    0.645823   -0.150703

 Total Charge           Charge          ....    0
 Multiplicity           Mult            ....    1
 Number of Electrons    NEL             ....   30
 Basis Dimension        Dim             ....   24

ORBITAL ENERGIES
----------------

  NO   OCC          E(Eh)            E(eV)
   0   2.0000     -20.352466      -553.8188
   1   2.0000     -11.284596      -307.0695
   2   2.0000     -11.195864      -304.6549
   3   2.0000     -11.186784      -304.4079
   4   2.0000      -1.372029       -37.3348
   5   2.0000      -1.100590       -29.9486
   6   2.0000      -0.882237       -24.0069
   7   2.0000      -0.730218       -19.8702
   8   2.0000      -0.679921       -18.5016
   9   2.0000      -0.633787       -17.2462
  10   2.0000      -0.590932       -16.0801
  11   2.0000      -0.516707       -14.0603
  12   2.0000      -0.474139       -12.9020
  13   2.0000      -0.416150       -11.3240
  14   2.0000      -0.405058       -11.0222
  15   0.0000       0.183604         4.9961
  16   0.0000       0.230300         6.2668
  17   0.0000       0.490349        13.3431
  18   0.0000       0.543422        14.7873
  19   0.0000       0.624715        16.9994

MULLIKEN ATOMIC CHARGES
-----------------------
   0 C :    0.165353
   1 O :   -0.342930
   2 C :   -0.199150
   3 C :   -0.212848
   4 H :    0.139799
   5 H :    0.159794
   6 H :    0.145208
   7 H :    0.144775
Sum of atomic charges:    0.0000000

LOEWDIN ATOMIC CHARGES
----------------------
   0 C :    0.148021
   1 O :   -0.261231
   2 C :   -0.147732
   3 C :   -0.133688
   4 H :    0.086530
   5 H :    0.108573
   6 H :    0.104729
   7 H :    0.094797

  Mayer bond orders larger than 0.100000
B(  0-C ,  1-O ) :   1.9314 B(  0-C ,  2-C ) :   1.0170 B(  0-C ,  4-H ) :   0.9110
B(  2-C ,  3-C ) :   1.9953 B(  2-C ,  5-H ) :   0.9327 B(  3-C ,  6-H ) :   0.9544
B(  3-C ,  7-H ) :   0.9603

-----------------------------------------------------------------------------
         ABSORPTION SPECTRUM VIA TRANSITION ELECTRIC DIPOLE MOMENTS
-----------------------------------------------------------------------------
State   Energy    Wavelength  fosc         T2        TX        TY        TZ
        (cm-1)      (nm)                 (au**2)    (au)      (au)      (au)
-----------------------------------------------------------------------------
   1   32092.6    311.6   0.000153541   0.00158  -0.03892   0.00260  -0.00730

Dispersion correction           -0.025319949
FINAL SINGLE POINT ENERGY      -189.301895291247

DIPOLE MOMENT
-------------
                                X             Y             Z
Electronic contribution:     -2.23162      -1.15685       1.03131
Nuclear contribution   :      2.67924       1.80206      -1.66419
                        -----------------------------------------
Total Dipole Moment    :      0.44762       0.64520      -0.63288
                        -----------------------------------------
Magnitude (a.u.)       :      1.00856
Magnitude (Debye)      :      2.56355

Rotational constants in cm-1:     0.934457     0.178972     0.165465
Rotational constants in MHz : 28014.323202  5365.440948  4960.510722

                             ****ORCA TERMINATED NORMALLY****
TOTAL RUN TIME: 0 days 0 hours 0 minutes 16 seconds 97 msec
