                         Program Version 5.0.3 -  RELEASE  -
|  1> ! B3LYP cc-pVDZ
|  2> !TightSCF
|  3> %scf
|  4>  ConvForced true
|  5>  convergence tight
|  6>  MaxIter 500
|  7> end
|  8>
|  9> %tddft
| 10>  nroots 1
| 11> end
| 12>
| 13> # 	10669
| 14> * xyz 0 1
| 15> 		C   -1.234990  -0.318070  -0.012985
| 16> 		O   -1.586954  -1.145007   0.737328
| 17> 		C    0.030391   0.525968   0.159703
| 18> 		C    1.196496   0.070650  -0.157813
| 19> 		H   -1.610118  -0.254343  -1.068506
| 20> 		H   -0.200979   1.481045   0.699851
| 21> 		H    1.309233  -1.013097  -0.410723
| 22> 		H    2.072909   0.655775   0.014836
| 23> *
| 24>
| 25>                          ****END OF INPUT****

CARTESIAN COORDINATES (ANGSTROEM)
---------------------------------
  C     -1.234990   -0.318070   -0.012985
  O     -1.586954   -1.145007    0.737328
  C      0.030391    0.525968    0.159703
  C      1.196496    0.070650   -0.157813
  H     -1.610118   -0.254343   -1.068506
  H     -0.200979    1.481045    0.699851
  H      1.309233   -1.013097   -0.410723
  H      2.072909    0.655775    0.014836

 Total Charge           Charge          ....    0
 Multiplicity           Mult            ....    1
 Number of Electrons    NEL             ....   30
 Basis Dimension        Dim             ....   76

ORBITAL ENERGIES
----------------

  NO   OCC          E(Eh)            E(eV)
   0   2.0000     -19.149612      -521.0874
   1   2.0000     -10.280231      -279.7393
   2   2.0000     -10.201399      -277.5942
   3   2.0000     -10.197017      -277.4749
   4   2.0000      -1.077014       -29.3071
   5   2.0000      -0.797216       -21.6934
   6   2.0000      -0.643862       -17.5204
   7   2.0000      -0.551304       -15.0017
   8   2.0000      -0.490331       -13.3426
   9   2.0000      -0.467170       -12.7123
  10   2.0000      -0.448370       -12.2008
  11   2.0000      -0.397719       -10.8225
  12   2.0000      -0.381074       -10.3696
  13   2.0000      -0.290378        -7.9016
  14   2.0000      -0.252317        -6.8659
  15   0.0000      -0.027436        -0.7466
  16   0.0000      -0.001131        -0.0308
  17   0.0000       0.082366         2.2413
  18   0.0000       0.091701         2.4953
  19   0.0000       0.100819         2.7434

MULLIKEN ATOMIC CHARGES
-----------------------
   0 C :    0.148334
   1 O :   -0.141949
   2 C :   -0.115126
   3 C :    0.052797
   4 H :   -0.014169
   5 H :    0.019874
   6 H :    0.028497
   7 H :    0.021741
Sum of atomic charges:    0.0000000

LOEWDIN ATOMIC CHARGES
----------------------
   0 C :   -0.041692
   1 O :    0.051566
   2 C :   -0.064549
   3 C :   -0.038514
   4 H :   -0.009929
   5 H :    0.037968
   6 H :    0.038013
   7 H :    0.027138

  Mayer bond orders larger than 0.100000
B(  0-C ,  1-O ) :   2.2781 B(  0-C ,  2-C ) :   0.9571 B(  0-C ,  4-H ) :   0.9022
B(  2-C ,  3-C ) :   2.0647 B(  2-C ,  5-H ) :   0.9334 B(  3-C ,  6-H ) :   0.9344
B(  3-C ,  7-H ) :   0.9399

-----------------------------------------------------------------------------
         ABSORPTION SPECTRUM VIA TRANSITION ELECTRIC DIPOLE MOMENTS
-----------------------------------------------------------------------------
State   Energy    Wavelength  fosc         T2        TX        TY        TZ
        (cm-1)      (nm)                 (au**2)    (au)      (au)      (au)
-----------------------------------------------------------------------------
   1   34227.2    292.2   0.000751571   0.00723   0.05252   0.00768   0.06642

FINAL SINGLE POINT ENERGY      -191.629202884898

DIPOLE MOMENT
-------------
                                X             Y             Z
Electronic contribution:     -2.66709      -1.18624       1.06910
Nuclear contribution   :      3.05675       1.74601      -1.43835
                        -----------------------------------------
Total Dipole Moment    :      0.38967       0.55977      -0.36926
                        -----------------------------------------
Magnitude (a.u.)       :      0.77559
Magnitude (Debye)      :      1.97139

Rotational constants in cm-1:     0.956811     0.174052     0.162469
Rotational constants in MHz : 28684.483959  5217.933594  4870.706836

                             ****ORCA TERMINATED NORMALLY****
TOTAL RUN TIME: 0 days 0 hours 3 minutes 21 seconds 57 msec
