                         Program Version 5.0.3 -  RELEASE  -
|  1> ! B3LYP cc-pVDZ
|  2> !TightSCF
|  3> %scf
|  4>  ConvForced true
|  5>  convergence tight
|  6>  MaxIter 500
|  7> end
|  8>
|  9> %tddft
| 10>  nroots 1
| 11> end
| 12>
| 13> # 	10218
| 14> * xyz 0 1
| 15> 		C   -1.091180  -0.390809   0.142394
| 16> 		O   -2.086508  -0.368044   0.887665
| 17> 		C    0.112764   0.362410   0.422059
| 18> 		C    1.197241   0.182040  -0.300796
| 19> 		H   -1.076918  -0.975790  -0.975162
| 20> 		H   -0.049779   1.189393   1.004157
| 21> 		H    1.180266  -0.649680  -1.134371
| 22> 		H    1.913148   0.689419  -0.053224
| 23> *
| 24>
| 25>                          ****END OF INPUT****

CARTESIAN COORDINATES (ANGSTROEM)
---------------------------------
  C     -1.091180   -0.390809    0.142394
  O     -2.086508   -0.368044    0.887665
  C      0.112764    0.362410    0.422059
  C      1.197241    0.182040   -0.300796
  H     -1.076918   -0.975790   -0.975162
  H     -0.049779    1.189393    1.004157
  H      1.180266   -0.649680   -1.134371
  H      1.913148    0.689419   -0.053224

 Total Charge           Charge          ....    0
 Multiplicity           Mult            ....    1
 Number of Electrons    NEL             ....   30
 Basis Dimension        Dim             ....   76

ORBITAL ENERGIES
----------------

  NO   OCC          E(Eh)            E(eV)
   0   2.0000     -19.143093      -520.9101
   1   2.0000     -10.285461      -279.8816
   2   2.0000     -10.209721      -277.8206
   3   2.0000     -10.200739      -277.5762
   4   2.0000      -1.030887       -28.0519
   5   2.0000      -0.821742       -22.3607
   6   2.0000      -0.664623       -18.0853
   7   2.0000      -0.563889       -15.3442
   8   2.0000      -0.494182       -13.4474
   9   2.0000      -0.459621       -12.5069
  10   2.0000      -0.418539       -11.3890
  11   2.0000      -0.408049       -11.1036
  12   2.0000      -0.382215       -10.4006
  13   2.0000      -0.298130        -8.1125
  14   2.0000      -0.256688        -6.9848
  15   0.0000      -0.070009        -1.9051
  16   0.0000       0.033922         0.9231
  17   0.0000       0.062306         1.6954
  18   0.0000       0.091982         2.5030
  19   0.0000       0.107266         2.9189

MULLIKEN ATOMIC CHARGES
-----------------------
   0 C :    0.119283
   1 O :   -0.213535
   2 C :   -0.040875
   3 C :    0.175620
   4 H :   -0.009753
   5 H :   -0.019227
   6 H :    0.045461
   7 H :   -0.056974
Sum of atomic charges:   -0.0000000

LOEWDIN ATOMIC CHARGES
----------------------
   0 C :   -0.025758
   1 O :   -0.028768
   2 C :   -0.042987
   3 C :    0.050341
   4 H :   -0.000043
   5 H :    0.021738
   6 H :    0.054630
   7 H :   -0.029152

  Mayer bond orders larger than 0.100000
B(  0-C ,  1-O ) :   2.1232 B(  0-C ,  2-C ) :   1.0862 B(  0-C ,  4-H ) :   0.8870
B(  2-C ,  3-C ) :   1.9416 B(  2-C ,  5-H ) :   0.9511 B(  3-C ,  6-H ) :   0.9367
B(  3-C ,  7-H ) :   0.9091

-----------------------------------------------------------------------------
         ABSORPTION SPECTRUM VIA TRANSITION ELECTRIC DIPOLE MOMENTS
-----------------------------------------------------------------------------
State   Energy    Wavelength  fosc         T2        TX        TY        TZ
        (cm-1)      (nm)                 (au**2)    (au)      (au)      (au)
-----------------------------------------------------------------------------
   1   28055.1    356.4   0.000141080   0.00166   0.00034  -0.03228   0.02476

FINAL SINGLE POINT ENERGY      -191.627990372999

DIPOLE MOMENT
-------------
                                X             Y             Z
Electronic contribution:     -2.69223      -0.24594       1.67147
Nuclear contribution   :      3.74770       0.48676      -2.16253
                        -----------------------------------------
Total Dipole Moment    :      1.05547       0.24082      -0.49106
                        -----------------------------------------
Magnitude (a.u.)       :      1.18876
Magnitude (Debye)      :      3.02158

Rotational constants in cm-1:     1.516467     0.159498     0.145076
Rotational constants in MHz : 45462.544606  4781.635060  4349.258508

                             ****ORCA TERMINATED NORMALLY****
TOTAL RUN TIME: 0 days 0 hours 3 minutes 26 seconds 225 msec
