                         Program Version 5.0.3 -  RELEASE  -
|  1> ! HF-3c
|  2> !TightSCF
|  3> %scf
|  4>  ConvForced true
|  5>  convergence tight
|  6>  MaxIter 500
|  7> end
|  8>
|  9> %tddft
| 10>  nroots 1
| 11> end
| 12>
| 13> # 	30902
| 14> * xyz 0 1
| 15> 		C   -0.551333  -0.431498  -0.018634
| 16> 		O   -0.614927  -1.650511  -0.007680
| 17> 		C    0.648264   0.395344   0.014124
| 18> 		C    1.822768  -0.082490   0.012763
| 19> 		H   -1.418849   0.140784   0.231555
| 20> 		H    0.432742   1.462221  -0.185901
| 21> 		H    2.030191  -1.268074   0.041392
| 22> 		H    2.820843   0.535833  -0.079751
| 23> *
| 24>
| 25>                          ****END OF INPUT****

CARTESIAN COORDINATES (ANGSTROEM)
---------------------------------
  C     -0.551333   -0.431498   -0.018634
  O     -0.614927   -1.650511   -0.007680
  C      0.648264    0.395344    0.014124
  C      1.822768   -0.082490    0.012763
  H     -1.418849    0.140784    0.231555
  H      0.432742    1.462221   -0.185901
  H      2.030191   -1.268074    0.041392
  H      2.820843    0.535833   -0.079751

 Total Charge           Charge          ....    0
 Multiplicity           Mult            ....    1
 Number of Electrons    NEL             ....   30
 Basis Dimension        Dim             ....   24

ORBITAL ENERGIES
----------------

  NO   OCC          E(Eh)            E(eV)
   0   2.0000     -20.362055      -554.0797
   1   2.0000     -11.290724      -307.2362
   2   2.0000     -11.193602      -304.5934
   3   2.0000     -11.187366      -304.4237
   4   2.0000      -1.392552       -37.8933
   5   2.0000      -1.093653       -29.7598
   6   2.0000      -0.894974       -24.3535
   7   2.0000      -0.732249       -19.9255
   8   2.0000      -0.697189       -18.9715
   9   2.0000      -0.617453       -16.8018
  10   2.0000      -0.589055       -16.0290
  11   2.0000      -0.537599       -14.6288
  12   2.0000      -0.499589       -13.5945
  13   2.0000      -0.412959       -11.2372
  14   2.0000      -0.406052       -11.0492
  15   0.0000       0.137398         3.7388
  16   0.0000       0.322866         8.7856
  17   0.0000       0.491701        13.3799
  18   0.0000       0.560377        15.2486
  19   0.0000       0.643931        17.5223

MULLIKEN ATOMIC CHARGES
-----------------------
   0 C :    0.160110
   1 O :   -0.348815
   2 C :   -0.205708
   3 C :   -0.188257
   4 H :    0.132829
   5 H :    0.145089
   6 H :    0.158268
   7 H :    0.146484
Sum of atomic charges:    0.0000000

LOEWDIN ATOMIC CHARGES
----------------------
   0 C :    0.147383
   1 O :   -0.257547
   2 C :   -0.161683
   3 C :   -0.103849
   4 H :    0.066964
   5 H :    0.094605
   6 H :    0.112531
   7 H :    0.101596

  Mayer bond orders larger than 0.100000
B(  0-C ,  1-O ) :   1.9049 B(  0-C ,  2-C ) :   1.0241 B(  0-C ,  4-H ) :   0.9304
B(  2-C ,  3-C ) :   1.9570 B(  2-C ,  5-H ) :   0.9503 B(  3-C ,  6-H ) :   0.9496
B(  3-C ,  7-H ) :   0.9572

-----------------------------------------------------------------------------
         ABSORPTION SPECTRUM VIA TRANSITION ELECTRIC DIPOLE MOMENTS
-----------------------------------------------------------------------------
State   Energy    Wavelength  fosc         T2        TX        TY        TZ
        (cm-1)      (nm)                 (au**2)    (au)      (au)      (au)
-----------------------------------------------------------------------------
   1   31528.4    317.2   0.000174094   0.00182   0.04005   0.00251  -0.01441

Dispersion correction           -0.025756347
FINAL SINGLE POINT ENERGY      -189.324269739260

DIPOLE MOMENT
-------------
                                X             Y             Z
Electronic contribution:     -1.99296      -1.70734      -0.03527
Nuclear contribution   :      2.46675       2.60381       0.00783
                        -----------------------------------------
Total Dipole Moment    :      0.47379       0.89648      -0.02744
                        -----------------------------------------
Magnitude (a.u.)       :      1.01435
Magnitude (Debye)      :      2.57827

Rotational constants in cm-1:     0.808125     0.205374     0.164097
Rotational constants in MHz : 24226.978561  6156.969851  4919.503044

                             ****ORCA TERMINATED NORMALLY****
TOTAL RUN TIME: 0 days 0 hours 0 minutes 13 seconds 768 msec
