                         Program Version 5.0.3 -  RELEASE  -
|  1> ! B3LYP cc-pVDZ
|  2> !TightSCF
|  3> %scf
|  4>  ConvForced true
|  5>  convergence tight
|  6>  MaxIter 500
|  7> end
|  8>
|  9> %tddft
| 10>  nroots 1
| 11> end
| 12>
| 13> # 	1136
| 14> * xyz 0 1
| 15> 		C   -1.210968  -0.304105   0.062328
| 16> 		O   -2.071886  -0.533799   0.903359
| 17> 		C    0.024484   0.450151   0.314121
| 18> 		C    1.151708   0.105774  -0.266435
| 19> 		H   -1.164144  -0.698125  -0.917975
| 20> 		H   -0.185636   1.038922   1.091843
| 21> 		H    1.171837  -0.636561  -1.048443
| 22> 		H    2.267777   0.632169  -0.136259
| 23> *
| 24>
| 25>                          ****END OF INPUT****

CARTESIAN COORDINATES (ANGSTROEM)
---------------------------------
  C     -1.210968   -0.304105    0.062328
  O     -2.071886   -0.533799    0.903359
  C      0.024484    0.450151    0.314121
  C      1.151708    0.105774   -0.266435
  H     -1.164144   -0.698125   -0.917975
  H     -0.185636    1.038922    1.091843
  H      1.171837   -0.636561   -1.048443
  H      2.267777    0.632169   -0.136259

 Total Charge           Charge          ....    0
 Multiplicity           Mult            ....    1
 Number of Electrons    NEL             ....   30
 Basis Dimension        Dim             ....   76

ORBITAL ENERGIES
----------------

  NO   OCC          E(Eh)            E(eV)
   0   2.0000     -19.143487      -520.9208
   1   2.0000     -10.271897      -279.5125
   2   2.0000     -10.229754      -278.3658
   3   2.0000     -10.197701      -277.4935
   4   2.0000      -1.040962       -28.3260
   5   2.0000      -0.812527       -22.1100
   6   2.0000      -0.652777       -17.7630
   7   2.0000      -0.588757       -16.0209
   8   2.0000      -0.482554       -13.1310
   9   2.0000      -0.462679       -12.5901
  10   2.0000      -0.433769       -11.8034
  11   2.0000      -0.391514       -10.6536
  12   2.0000      -0.378178       -10.2907
  13   2.0000      -0.297992        -8.1088
  14   2.0000      -0.257008        -6.9935
  15   0.0000      -0.065268        -1.7760
  16   0.0000       0.036132         0.9832
  17   0.0000       0.061201         1.6654
  18   0.0000       0.087164         2.3719
  19   0.0000       0.129191         3.5155

MULLIKEN ATOMIC CHARGES
-----------------------
   0 C :    0.180669
   1 O :   -0.205702
   2 C :    0.025963
   3 C :   -0.011297
   4 H :   -0.038094
   5 H :   -0.046417
   6 H :    0.028210
   7 H :    0.066667
Sum of atomic charges:   -0.0000000

LOEWDIN ATOMIC CHARGES
----------------------
   0 C :   -0.012476
   1 O :   -0.008833
   2 C :   -0.045936
   3 C :   -0.007071
   4 H :   -0.016374
   5 H :    0.006807
   6 H :    0.025428
   7 H :    0.058456

  Mayer bond orders larger than 0.100000
B(  0-C ,  1-O ) :   2.1629 B(  0-C ,  2-C ) :   1.0790 B(  0-C ,  4-H ) :   0.9224
B(  2-C ,  3-C ) :   1.9330 B(  2-C ,  5-H ) :   0.9544 B(  3-C ,  6-H ) :   0.9313
B(  3-C ,  7-H ) :   0.9430

-----------------------------------------------------------------------------
         ABSORPTION SPECTRUM VIA TRANSITION ELECTRIC DIPOLE MOMENTS
-----------------------------------------------------------------------------
State   Energy    Wavelength  fosc         T2        TX        TY        TZ
        (cm-1)      (nm)                 (au**2)    (au)      (au)      (au)
-----------------------------------------------------------------------------
   1   28995.7    344.9   0.000223830   0.00254  -0.04489   0.01713   0.01526

FINAL SINGLE POINT ENERGY      -191.646947393532

DIPOLE MOMENT
-------------
                                X             Y             Z
Electronic contribution:     -3.12745      -0.41895       1.32588
Nuclear contribution   :      4.04405       0.65558      -1.92654
                        -----------------------------------------
Total Dipole Moment    :      0.91660       0.23663      -0.60066
                        -----------------------------------------
Magnitude (a.u.)       :      1.12113
Magnitude (Debye)      :      2.84969

Rotational constants in cm-1:     1.504943     0.156447     0.146193
Rotational constants in MHz : 45117.069284  4690.150957  4382.741911

                             ****ORCA TERMINATED NORMALLY****
TOTAL RUN TIME: 0 days 0 hours 3 minutes 13 seconds 303 msec
