                         Program Version 5.0.3 -  RELEASE  -
|  1> ! B3LYP cc-pVDZ
|  2> !TightSCF
|  3> %scf
|  4>  ConvForced true
|  5>  convergence tight
|  6>  MaxIter 500
|  7> end
|  8>
|  9> %tddft
| 10>  nroots 1
| 11> end
| 12>
| 13> # 	27464
| 14> * xyz 0 1
| 15> 		C   -0.606250  -0.424331  -0.057967
| 16> 		O   -0.625664  -1.658086   0.040637
| 17> 		C    0.698708   0.375684   0.023665
| 18> 		C    1.856386  -0.054560  -0.023750
| 19> 		H   -1.495515  -0.001226  -0.168002
| 20> 		H    0.472862   1.295361   0.297717
| 21> 		H    1.980966  -1.111945  -0.124032
| 22> 		H    2.707437   0.589438   0.062280
| 23> *
| 24>
| 25>                          ****END OF INPUT****

CARTESIAN COORDINATES (ANGSTROEM)
---------------------------------
  C     -0.606250   -0.424331   -0.057967
  O     -0.625664   -1.658086    0.040637
  C      0.698708    0.375684    0.023665
  C      1.856386   -0.054560   -0.023750
  H     -1.495515   -0.001226   -0.168002
  H      0.472862    1.295361    0.297717
  H      1.980966   -1.111945   -0.124032
  H      2.707437    0.589438    0.062280

 Total Charge           Charge          ....    0
 Multiplicity           Mult            ....    1
 Number of Electrons    NEL             ....   30
 Basis Dimension        Dim             ....   76

ORBITAL ENERGIES
----------------

  NO   OCC          E(Eh)            E(eV)
   0   2.0000     -19.136314      -520.7256
   1   2.0000     -10.267460      -279.3918
   2   2.0000     -10.190800      -277.3058
   3   2.0000     -10.182970      -277.0927
   4   2.0000      -1.030677       -28.0461
   5   2.0000      -0.813504       -22.1366
   6   2.0000      -0.664242       -18.0749
   7   2.0000      -0.564148       -15.3512
   8   2.0000      -0.518363       -14.1054
   9   2.0000      -0.456380       -12.4187
  10   2.0000      -0.432724       -11.7750
  11   2.0000      -0.390639       -10.6298
  12   2.0000      -0.370862       -10.0917
  13   2.0000      -0.300372        -8.1735
  14   2.0000      -0.251941        -6.8557
  15   0.0000      -0.060759        -1.6533
  16   0.0000       0.061306         1.6682
  17   0.0000       0.078824         2.1449
  18   0.0000       0.103935         2.8282
  19   0.0000       0.132224         3.5980

MULLIKEN ATOMIC CHARGES
-----------------------
   0 C :    0.224228
   1 O :   -0.216330
   2 C :   -0.081068
   3 C :    0.149997
   4 H :   -0.042264
   5 H :   -0.064096
   6 H :    0.011012
   7 H :    0.018520
Sum of atomic charges:    0.0000000

LOEWDIN ATOMIC CHARGES
----------------------
   0 C :    0.024189
   1 O :   -0.024891
   2 C :   -0.066297
   3 C :    0.019218
   4 H :   -0.021863
   5 H :    0.002242
   6 H :    0.032377
   7 H :    0.035024

  Mayer bond orders larger than 0.100000
B(  0-C ,  1-O ) :   2.1696 B(  0-C ,  2-C ) :   1.0299 B(  0-C ,  4-H ) :   0.9423
B(  2-C ,  3-C ) :   2.0515 B(  2-C ,  5-H ) :   0.9447 B(  3-C ,  6-H ) :   0.9059
B(  3-C ,  7-H ) :   0.9239

-----------------------------------------------------------------------------
         ABSORPTION SPECTRUM VIA TRANSITION ELECTRIC DIPOLE MOMENTS
-----------------------------------------------------------------------------
State   Energy    Wavelength  fosc         T2        TX        TY        TZ
        (cm-1)      (nm)                 (au**2)    (au)      (au)      (au)
-----------------------------------------------------------------------------
   1   27895.8    358.5   0.000212203   0.00250   0.04560   0.01331   0.01573

FINAL SINGLE POINT ENERGY      -191.638487375943

DIPOLE MOMENT
-------------
                                X             Y             Z
Electronic contribution:     -2.01708      -1.56453      -0.07839
Nuclear contribution   :      2.28124       2.51310       0.06292
                        -----------------------------------------
Total Dipole Moment    :      0.26417       0.94857      -0.01546
                        -----------------------------------------
Magnitude (a.u.)       :      0.98478
Magnitude (Debye)      :      2.50312

Rotational constants in cm-1:     0.863640     0.196854     0.160978
Rotational constants in MHz : 25891.280756  5901.521901  4825.991885

                             ****ORCA TERMINATED NORMALLY****
TOTAL RUN TIME: 0 days 0 hours 3 minutes 14 seconds 36 msec
