                         Program Version 5.0.3 -  RELEASE  -
|  1> ! B3LYP cc-pVDZ
|  2> !TightSCF
|  3> %scf
|  4>  ConvForced true
|  5>  convergence tight
|  6>  MaxIter 500
|  7> end
|  8>
|  9> %tddft
| 10>  nroots 1
| 11> end
| 12>
| 13> # 	13087
| 14> * xyz 0 1
| 15> 		C   -1.180511  -0.336153   0.005647
| 16> 		O   -1.505173  -1.209276   0.799199
| 17> 		C    0.044903   0.468873   0.234311
| 18> 		C    1.241834   0.049232  -0.136490
| 19> 		H   -1.840550  -0.088385  -0.861185
| 20> 		H   -0.203502   1.474884   0.776186
| 21> 		H    1.340672  -0.932657  -0.688737
| 22> 		H    2.056127   0.638718  -0.041669
| 23> *
| 24>
| 25>                          ****END OF INPUT****

CARTESIAN COORDINATES (ANGSTROEM)
---------------------------------
  C     -1.180511   -0.336153    0.005647
  O     -1.505173   -1.209276    0.799199
  C      0.044903    0.468873    0.234311
  C      1.241834    0.049232   -0.136490
  H     -1.840550   -0.088385   -0.861185
  H     -0.203502    1.474884    0.776186
  H      1.340672   -0.932657   -0.688737
  H      2.056127    0.638718   -0.041669

 Total Charge           Charge          ....    0
 Multiplicity           Mult            ....    1
 Number of Electrons    NEL             ....   30
 Basis Dimension        Dim             ....   76

ORBITAL ENERGIES
----------------

  NO   OCC          E(Eh)            E(eV)
   0   2.0000     -19.142936      -520.9058
   1   2.0000     -10.280848      -279.7561
   2   2.0000     -10.211856      -277.8787
   3   2.0000     -10.199449      -277.5411
   4   2.0000      -1.043483       -28.3946
   5   2.0000      -0.795742       -21.6532
   6   2.0000      -0.654861       -17.8197
   7   2.0000      -0.551244       -15.0001
   8   2.0000      -0.494770       -13.4634
   9   2.0000      -0.461139       -12.5482
  10   2.0000      -0.439074       -11.9478
  11   2.0000      -0.389475       -10.5982
  12   2.0000      -0.367307        -9.9949
  13   2.0000      -0.290075        -7.8933
  14   2.0000      -0.252982        -6.8840
  15   0.0000      -0.035075        -0.9544
  16   0.0000      -0.007678        -0.2089
  17   0.0000       0.073773         2.0075
  18   0.0000       0.092806         2.5254
  19   0.0000       0.096976         2.6388

MULLIKEN ATOMIC CHARGES
-----------------------
   0 C :    0.161587
   1 O :   -0.193819
   2 C :   -0.120354
   3 C :    0.081738
   4 H :   -0.001921
   5 H :    0.039333
   6 H :    0.031691
   7 H :    0.001746
Sum of atomic charges:    0.0000000

LOEWDIN ATOMIC CHARGES
----------------------
   0 C :   -0.013046
   1 O :   -0.004894
   2 C :   -0.060844
   3 C :   -0.020705
   4 H :   -0.002059
   5 H :    0.052306
   6 H :    0.041026
   7 H :    0.008216

  Mayer bond orders larger than 0.100000
B(  0-C ,  1-O ) :   2.2089 B(  0-C ,  2-C ) :   0.9918 B(  0-C ,  4-H ) :   0.9169
B(  2-C ,  3-C ) :   2.0408 B(  2-C ,  5-H ) :   0.9254 B(  3-C ,  6-H ) :   0.9409
B(  3-C ,  7-H ) :   0.9420

-----------------------------------------------------------------------------
         ABSORPTION SPECTRUM VIA TRANSITION ELECTRIC DIPOLE MOMENTS
-----------------------------------------------------------------------------
State   Energy    Wavelength  fosc         T2        TX        TY        TZ
        (cm-1)      (nm)                 (au**2)    (au)      (au)      (au)
-----------------------------------------------------------------------------
   1   32191.8    310.6   0.000167539   0.00171  -0.03787  -0.01633  -0.00352

FINAL SINGLE POINT ENERGY      -191.640837759613

DIPOLE MOMENT
-------------
                                X             Y             Z
Electronic contribution:     -2.29025      -1.37944       1.10861
Nuclear contribution   :      2.68774       2.08639      -1.64070
                        -----------------------------------------
Total Dipole Moment    :      0.39750       0.70696      -0.53208
                        -----------------------------------------
Magnitude (a.u.)       :      0.97000
Magnitude (Debye)      :      2.46555

Rotational constants in cm-1:     0.910928     0.175246     0.163198
Rotational constants in MHz : 27308.947061  5253.746200  4892.540805

                             ****ORCA TERMINATED NORMALLY****
TOTAL RUN TIME: 0 days 0 hours 3 minutes 17 seconds 630 msec
