                         Program Version 5.0.3 -  RELEASE  -
|  1> ! B3LYP cc-pVDZ
|  2> !TightSCF
|  3> %scf
|  4>  ConvForced true
|  5>  convergence tight
|  6>  MaxIter 500
|  7> end
|  8>
|  9> %tddft
| 10>  nroots 1
| 11> end
| 12>
| 13> # 	2247
| 14> * xyz 0 1
| 15> 		C   -1.214179  -0.312549   0.066282
| 16> 		O   -1.414131  -1.351223   0.685391
| 17> 		C    0.021116   0.525956   0.155013
| 18> 		C    1.172727   0.029798  -0.181298
| 19> 		H   -1.951482  -0.065647  -0.878207
| 20> 		H   -0.057860   1.548086   0.610744
| 21> 		H    1.282120  -1.051924  -0.456201
| 22> 		H    2.144134   0.643472  -0.016983
| 23> *
| 24>
| 25>                          ****END OF INPUT****

CARTESIAN COORDINATES (ANGSTROEM)
---------------------------------
  C     -1.214179   -0.312549    0.066282
  O     -1.414131   -1.351223    0.685391
  C      0.021116    0.525956    0.155013
  C      1.172727    0.029798   -0.181298
  H     -1.951482   -0.065647   -0.878207
  H     -0.057860    1.548086    0.610744
  H      1.282120   -1.051924   -0.456201
  H      2.144134    0.643472   -0.016983

 Total Charge           Charge          ....    0
 Multiplicity           Mult            ....    1
 Number of Electrons    NEL             ....   30
 Basis Dimension        Dim             ....   76

ORBITAL ENERGIES
----------------

  NO   OCC          E(Eh)            E(eV)
   0   2.0000     -19.150361      -521.1078
   1   2.0000     -10.292681      -280.0781
   2   2.0000     -10.211678      -277.8739
   3   2.0000     -10.209528      -277.8154
   4   2.0000      -1.046084       -28.4654
   5   2.0000      -0.802512       -21.8375
   6   2.0000      -0.642034       -17.4706
   7   2.0000      -0.541198       -14.7267
   8   2.0000      -0.490531       -13.3480
   9   2.0000      -0.450876       -12.2690
  10   2.0000      -0.443664       -12.0727
  11   2.0000      -0.380616       -10.3571
  12   2.0000      -0.374648       -10.1947
  13   2.0000      -0.294788        -8.0216
  14   2.0000      -0.256959        -6.9922
  15   0.0000      -0.045539        -1.2392
  16   0.0000      -0.001453        -0.0395
  17   0.0000       0.069915         1.9025
  18   0.0000       0.082290         2.2392
  19   0.0000       0.091057         2.4778

MULLIKEN ATOMIC CHARGES
-----------------------
   0 C :    0.132678
   1 O :   -0.182936
   2 C :   -0.067614
   3 C :    0.005724
   4 H :    0.004196
   5 H :    0.024929
   6 H :    0.038020
   7 H :    0.045002
Sum of atomic charges:    0.0000000

LOEWDIN ATOMIC CHARGES
----------------------
   0 C :   -0.016931
   1 O :   -0.004530
   2 C :   -0.078272
   3 C :   -0.030205
   4 H :    0.002430
   5 H :    0.043765
   6 H :    0.037575
   7 H :    0.046168

  Mayer bond orders larger than 0.100000
B(  0-C ,  1-O ) :   2.2134 B(  0-C ,  2-C ) :   0.9673 B(  0-C ,  4-H ) :   0.8921
B(  2-C ,  3-C ) :   2.0429 B(  2-C ,  5-H ) :   0.9297 B(  3-C ,  6-H ) :   0.9378
B(  3-C ,  7-H ) :   0.9381

-----------------------------------------------------------------------------
         ABSORPTION SPECTRUM VIA TRANSITION ELECTRIC DIPOLE MOMENTS
-----------------------------------------------------------------------------
State   Energy    Wavelength  fosc         T2        TX        TY        TZ
        (cm-1)      (nm)                 (au**2)    (au)      (au)      (au)
-----------------------------------------------------------------------------
   1   31496.5    317.5   0.000480338   0.00502  -0.04829  -0.01391  -0.04995

FINAL SINGLE POINT ENERGY      -191.643368904950

DIPOLE MOMENT
-------------
                                X             Y             Z
Electronic contribution:     -2.31386      -1.43104       1.08264
Nuclear contribution   :      2.74921       2.17130      -1.40372
                        -----------------------------------------
Total Dipole Moment    :      0.43536       0.74026      -0.32108
                        -----------------------------------------
Magnitude (a.u.)       :      0.91685
Magnitude (Debye)      :      2.33045

Rotational constants in cm-1:     0.837572     0.183804     0.162257
Rotational constants in MHz : 25109.770933  5510.311290  4864.333547

                             ****ORCA TERMINATED NORMALLY****
TOTAL RUN TIME: 0 days 0 hours 3 minutes 22 seconds 869 msec
