                         Program Version 5.0.3 -  RELEASE  -
|  1> ! B3LYP cc-pVDZ
|  2> !TightSCF
|  3> %scf
|  4>  ConvForced true
|  5>  convergence tight
|  6>  MaxIter 500
|  7> end
|  8>
|  9> %tddft
| 10>  nroots 1
| 11> end
| 12>
| 13> # 	11304
| 14> * xyz 0 1
| 15> 		C   -1.212014  -0.316646  -0.030524
| 16> 		O   -1.304029  -1.489284  -0.375036
| 17> 		C    0.006309   0.419355  -0.157438
| 18> 		C    1.188308  -0.020425   0.020917
| 19> 		H   -2.022554   0.310118   0.413104
| 20> 		H   -0.255437   1.463289  -0.238941
| 21> 		H    1.517745  -0.972265   0.358149
| 22> 		H    2.079122   0.564326   0.072182
| 23> *
| 24>
| 25>                          ****END OF INPUT****

CARTESIAN COORDINATES (ANGSTROEM)
---------------------------------
  C     -1.212014   -0.316646   -0.030524
  O     -1.304029   -1.489284   -0.375036
  C      0.006309    0.419355   -0.157438
  C      1.188308   -0.020425    0.020917
  H     -2.022554    0.310118    0.413104
  H     -0.255437    1.463289   -0.238941
  H      1.517745   -0.972265    0.358149
  H      2.079122    0.564326    0.072182

 Total Charge           Charge          ....    0
 Multiplicity           Mult            ....    1
 Number of Electrons    NEL             ....   30
 Basis Dimension        Dim             ....   76

ORBITAL ENERGIES
----------------

  NO   OCC          E(Eh)            E(eV)
   0   2.0000     -19.136895      -520.7414
   1   2.0000     -10.271702      -279.5072
   2   2.0000     -10.202520      -277.6247
   3   2.0000     -10.195615      -277.4368
   4   2.0000      -1.036970       -28.2174
   5   2.0000      -0.812538       -22.1103
   6   2.0000      -0.677306       -18.4304
   7   2.0000      -0.553554       -15.0630
   8   2.0000      -0.505616       -13.7585
   9   2.0000      -0.465455       -12.6657
  10   2.0000      -0.433445       -11.7946
  11   2.0000      -0.386862       -10.5270
  12   2.0000      -0.369663       -10.0591
  13   2.0000      -0.297264        -8.0890
  14   2.0000      -0.253535        -6.8990
  15   0.0000      -0.062515        -1.7011
  16   0.0000       0.049142         1.3372
  17   0.0000       0.065287         1.7765
  18   0.0000       0.095266         2.5923
  19   0.0000       0.123823         3.3694

MULLIKEN ATOMIC CHARGES
-----------------------
   0 C :    0.164690
   1 O :   -0.201411
   2 C :   -0.058471
   3 C :    0.098428
   4 H :   -0.019283
   5 H :   -0.016614
   6 H :    0.015759
   7 H :    0.016902
Sum of atomic charges:   -0.0000000

LOEWDIN ATOMIC CHARGES
----------------------
   0 C :   -0.029299
   1 O :   -0.012692
   2 C :   -0.075282
   3 C :    0.021744
   4 H :   -0.001114
   5 H :    0.033953
   6 H :    0.030982
   7 H :    0.031708

  Mayer bond orders larger than 0.100000
B(  0-C ,  1-O ) :   2.1973 B(  0-C ,  2-C ) :   1.0858 B(  0-C ,  4-H ) :   0.9067
B(  2-C ,  3-C ) :   1.9868 B(  2-C ,  5-H ) :   0.9255 B(  3-C ,  6-H ) :   0.9445
B(  3-C ,  7-H ) :   0.9407

-----------------------------------------------------------------------------
         ABSORPTION SPECTRUM VIA TRANSITION ELECTRIC DIPOLE MOMENTS
-----------------------------------------------------------------------------
State   Energy    Wavelength  fosc         T2        TX        TY        TZ
        (cm-1)      (nm)                 (au**2)    (au)      (au)      (au)
-----------------------------------------------------------------------------
   1   28462.4    351.3   0.000066570   0.00077   0.01028   0.01720   0.01919

FINAL SINGLE POINT ENERGY      -191.658037983001

DIPOLE MOMENT
-------------
                                X             Y             Z
Electronic contribution:     -2.07134      -1.81396      -0.73194
Nuclear contribution   :      2.54476       2.70129       1.05867
                        -----------------------------------------
Total Dipole Moment    :      0.47342       0.88733       0.32673
                        -----------------------------------------
Magnitude (a.u.)       :      1.05747
Magnitude (Debye)      :      2.68788

Rotational constants in cm-1:     0.831719     0.203909     0.167474
Rotational constants in MHz : 24934.299408  6113.039146  5020.747910

                             ****ORCA TERMINATED NORMALLY****
TOTAL RUN TIME: 0 days 0 hours 3 minutes 22 seconds 175 msec
