                         Program Version 5.0.3 -  RELEASE  -
|  1> ! HF-3c
|  2> !TightSCF
|  3> %scf
|  4>  ConvForced true
|  5>  convergence tight
|  6>  MaxIter 500
|  7> end
|  8>
|  9> %tddft
| 10>  nroots 1
| 11> end
| 12>
| 13> # 	15976
| 14> * xyz 0 1
| 15> 		C   -1.184660  -0.278435   0.035775
| 16> 		O   -2.072213  -0.356765   0.843264
| 17> 		C    0.086530   0.407813   0.295056
| 18> 		C    1.213390   0.112933  -0.282269
| 19> 		H   -1.308420  -1.057297  -0.934074
| 20> 		H   -0.076165   1.145291   1.212798
| 21> 		H    1.280207  -0.678724  -1.128417
| 22> 		H    2.146114   0.618728   0.014824
| 23> *
| 24>
| 25>                          ****END OF INPUT****

CARTESIAN COORDINATES (ANGSTROEM)
---------------------------------
  C     -1.184660   -0.278435    0.035775
  O     -2.072213   -0.356765    0.843264
  C      0.086530    0.407813    0.295056
  C      1.213390    0.112933   -0.282269
  H     -1.308420   -1.057297   -0.934074
  H     -0.076165    1.145291    1.212798
  H      1.280207   -0.678724   -1.128417
  H      2.146114    0.618728    0.014824

 Total Charge           Charge          ....    0
 Multiplicity           Mult            ....    1
 Number of Electrons    NEL             ....   30
 Basis Dimension        Dim             ....   24

ORBITAL ENERGIES
----------------

  NO   OCC          E(Eh)            E(eV)
   0   2.0000     -20.358225      -553.9755
   1   2.0000     -11.288096      -307.1647
   2   2.0000     -11.193497      -304.5905
   3   2.0000     -11.192528      -304.5642
   4   2.0000      -1.402714       -38.1698
   5   2.0000      -1.084400       -29.5080
   6   2.0000      -0.866656       -23.5829
   7   2.0000      -0.740379       -20.1467
   8   2.0000      -0.652974       -17.7683
   9   2.0000      -0.641864       -17.4660
  10   2.0000      -0.567236       -15.4353
  11   2.0000      -0.540216       -14.7000
  12   2.0000      -0.518049       -14.0968
  13   2.0000      -0.403001       -10.9662
  14   2.0000      -0.393471       -10.7069
  15   0.0000       0.144488         3.9317
  16   0.0000       0.315587         8.5876
  17   0.0000       0.482997        13.1430
  18   0.0000       0.499390        13.5891
  19   0.0000       0.607666        16.5354

MULLIKEN ATOMIC CHARGES
-----------------------
   0 C :    0.177605
   1 O :   -0.361965
   2 C :   -0.168411
   3 C :   -0.228783
   4 H :    0.125272
   5 H :    0.161100
   6 H :    0.147413
   7 H :    0.147767
Sum of atomic charges:    0.0000000

LOEWDIN ATOMIC CHARGES
----------------------
   0 C :    0.142741
   1 O :   -0.263927
   2 C :   -0.128251
   3 C :   -0.138287
   4 H :    0.074347
   5 H :    0.113454
   6 H :    0.102177
   7 H :    0.097746

  Mayer bond orders larger than 0.100000
B(  0-C ,  1-O ) :   1.9082 B(  0-C ,  2-C ) :   1.0218 B(  0-C ,  4-H ) :   0.9086
B(  2-C ,  3-C ) :   1.9641 B(  2-C ,  5-H ) :   0.9424 B(  3-C ,  6-H ) :   0.9567
B(  3-C ,  7-H ) :   0.9602

-----------------------------------------------------------------------------
         ABSORPTION SPECTRUM VIA TRANSITION ELECTRIC DIPOLE MOMENTS
-----------------------------------------------------------------------------
State   Energy    Wavelength  fosc         T2        TX        TY        TZ
        (cm-1)      (nm)                 (au**2)    (au)      (au)      (au)
-----------------------------------------------------------------------------
   1   32834.0    304.6   0.000205753   0.00206  -0.00085  -0.03901  -0.02325

Dispersion correction           -0.025072570
FINAL SINGLE POINT ENERGY      -189.316065154765

DIPOLE MOMENT
-------------
                                X             Y             Z
Electronic contribution:     -2.92379      -0.14169       1.07150
Nuclear contribution   :      3.88143       0.20709      -1.66005
                        -----------------------------------------
Total Dipole Moment    :      0.95764       0.06539      -0.58855
                        -----------------------------------------
Magnitude (a.u.)       :      1.12594
Magnitude (Debye)      :      2.86191

Rotational constants in cm-1:     1.435971     0.157554     0.144225
Rotational constants in MHz : 43049.312892  4723.343230  4323.748944

                             ****ORCA TERMINATED NORMALLY****
TOTAL RUN TIME: 0 days 0 hours 0 minutes 15 seconds 547 msec
