                         Program Version 5.0.3 -  RELEASE  -
|  1> ! B3LYP cc-pVDZ
|  2> !TightSCF
|  3> %scf
|  4>  ConvForced true
|  5>  convergence tight
|  6>  MaxIter 500
|  7> end
|  8>
|  9> %tddft
| 10>  nroots 1
| 11> end
| 12>
| 13> # 	29412
| 14> * xyz 0 1
| 15> 		C   -0.592151  -0.406968   0.030520
| 16> 		O   -0.536366  -1.639151  -0.017659
| 17> 		C    0.618008   0.456119  -0.065625
| 18> 		C    1.836056  -0.166665   0.038701
| 19> 		H   -1.797073   0.075678   0.245434
| 20> 		H    0.462400   1.465821  -0.024091
| 21> 		H    1.819803  -1.263632  -0.054193
| 22> 		H    2.782669   0.386680   0.069703
| 23> *
| 24>
| 25>                          ****END OF INPUT****

CARTESIAN COORDINATES (ANGSTROEM)
---------------------------------
  C     -0.592151   -0.406968    0.030520
  O     -0.536366   -1.639151   -0.017659
  C      0.618008    0.456119   -0.065625
  C      1.836056   -0.166665    0.038701
  H     -1.797073    0.075678    0.245434
  H      0.462400    1.465821   -0.024091
  H      1.819803   -1.263632   -0.054193
  H      2.782669    0.386680    0.069703

 Total Charge           Charge          ....    0
 Multiplicity           Mult            ....    1
 Number of Electrons    NEL             ....   30
 Basis Dimension        Dim             ....   76

ORBITAL ENERGIES
----------------

  NO   OCC          E(Eh)            E(eV)
   0   2.0000     -19.139999      -520.8258
   1   2.0000     -10.291178      -280.0372
   2   2.0000     -10.223033      -278.1829
   3   2.0000     -10.211169      -277.8600
   4   2.0000      -1.035259       -28.1708
   5   2.0000      -0.793737       -21.5987
   6   2.0000      -0.649057       -17.6617
   7   2.0000      -0.537550       -14.6275
   8   2.0000      -0.501368       -13.6429
   9   2.0000      -0.444839       -12.1047
  10   2.0000      -0.414240       -11.2721
  11   2.0000      -0.393062       -10.6958
  12   2.0000      -0.389108       -10.5882
  13   2.0000      -0.285521        -7.7694
  14   2.0000      -0.254398        -6.9225
  15   0.0000      -0.076237        -2.0745
  16   0.0000       0.041556         1.1308
  17   0.0000       0.058040         1.5793
  18   0.0000       0.084674         2.3041
  19   0.0000       0.112270         3.0550

MULLIKEN ATOMIC CHARGES
-----------------------
   0 C :    0.114262
   1 O :   -0.204771
   2 C :   -0.040491
   3 C :    0.067713
   4 H :    0.001163
   5 H :   -0.031852
   6 H :    0.051993
   7 H :    0.041981
Sum of atomic charges:   -0.0000000

LOEWDIN ATOMIC CHARGES
----------------------
   0 C :   -0.028981
   1 O :   -0.032779
   2 C :   -0.065673
   3 C :    0.043060
   4 H :    0.005566
   5 H :    0.008174
   6 H :    0.037511
   7 H :    0.033121

  Mayer bond orders larger than 0.100000
B(  0-C ,  1-O ) :   2.1386 B(  0-C ,  2-C ) :   1.0337 B(  0-C ,  4-H ) :   0.8829
B(  2-C ,  3-C ) :   1.9407 B(  2-C ,  5-H ) :   0.9581 B(  3-C ,  6-H ) :   0.9257
B(  3-C ,  7-H ) :   0.9482

-----------------------------------------------------------------------------
         ABSORPTION SPECTRUM VIA TRANSITION ELECTRIC DIPOLE MOMENTS
-----------------------------------------------------------------------------
State   Energy    Wavelength  fosc         T2        TX        TY        TZ
        (cm-1)      (nm)                 (au**2)    (au)      (au)      (au)
-----------------------------------------------------------------------------
   1   26647.3    375.3   0.000393021   0.00486  -0.05220  -0.00176  -0.04613

FINAL SINGLE POINT ENERGY      -191.664621544199

DIPOLE MOMENT
-------------
                                X             Y             Z
Electronic contribution:     -1.41793      -1.53907      -0.18627
Nuclear contribution   :      1.91033       2.41136       0.22199
                        -----------------------------------------
Total Dipole Moment    :      0.49240       0.87229       0.03572
                        -----------------------------------------
Magnitude (a.u.)       :      1.00230
Magnitude (Debye)      :      2.54765

Rotational constants in cm-1:     0.700566     0.215236     0.165150
Rotational constants in MHz : 21002.431746  6452.616179  4951.081100

                             ****ORCA TERMINATED NORMALLY****
TOTAL RUN TIME: 0 days 0 hours 3 minutes 20 seconds 415 msec
