                         Program Version 5.0.3 -  RELEASE  -
|  1> ! HF-3c
|  2> !TightSCF
|  3> %scf
|  4>  ConvForced true
|  5>  convergence tight
|  6>  MaxIter 500
|  7> end
|  8>
|  9> %tddft
| 10>  nroots 1
| 11> end
| 12>
| 13> # 	32299
| 14> * xyz 0 1
| 15> 		C   -0.675285  -0.456180  -0.090529
| 16> 		O   -0.555301  -1.621087   0.064772
| 17> 		C    0.642895   0.383375   0.139207
| 18> 		C    1.889252  -0.113293  -0.110923
| 19> 		H   -1.445189   0.271280  -0.629891
| 20> 		H    0.525894   1.545215   0.264081
| 21> 		H    1.896325  -1.189448   0.016058
| 22> 		H    2.660325   0.586433   0.090035
| 23> *
| 24>
| 25>                          ****END OF INPUT****

CARTESIAN COORDINATES (ANGSTROEM)
---------------------------------
  C     -0.675285   -0.456180   -0.090529
  O     -0.555301   -1.621087    0.064772
  C      0.642895    0.383375    0.139207
  C      1.889252   -0.113293   -0.110923
  H     -1.445189    0.271280   -0.629891
  H      0.525894    1.545215    0.264081
  H      1.896325   -1.189448    0.016058
  H      2.660325    0.586433    0.090035

 Total Charge           Charge          ....    0
 Multiplicity           Mult            ....    1
 Number of Electrons    NEL             ....   30
 Basis Dimension        Dim             ....   24

ORBITAL ENERGIES
----------------

  NO   OCC          E(Eh)            E(eV)
   0   2.0000     -20.389725      -554.8326
   1   2.0000     -11.309148      -307.7376
   2   2.0000     -11.163181      -303.7656
   3   2.0000     -11.159915      -303.6767
   4   2.0000      -1.432829       -38.9893
   5   2.0000      -1.046711       -28.4825
   6   2.0000      -0.866682       -23.5836
   7   2.0000      -0.722682       -19.6652
   8   2.0000      -0.685770       -18.6607
   9   2.0000      -0.621074       -16.9003
  10   2.0000      -0.588554       -16.0154
  11   2.0000      -0.548800       -14.9336
  12   2.0000      -0.510915       -13.9027
  13   2.0000      -0.396371       -10.7858
  14   2.0000      -0.378563       -10.3012
  15   0.0000       0.148706         4.0465
  16   0.0000       0.269571         7.3354
  17   0.0000       0.512121        13.9355
  18   0.0000       0.551348        15.0029
  19   0.0000       0.586887        15.9700

MULLIKEN ATOMIC CHARGES
-----------------------
   0 C :    0.188195
   1 O :   -0.354347
   2 C :   -0.136730
   3 C :   -0.272946
   4 H :    0.153267
   5 H :    0.119402
   6 H :    0.159493
   7 H :    0.143667
Sum of atomic charges:   -0.0000000

LOEWDIN ATOMIC CHARGES
----------------------
   0 C :    0.154601
   1 O :   -0.246046
   2 C :   -0.104740
   3 C :   -0.176784
   4 H :    0.094491
   5 H :    0.077642
   6 H :    0.107233
   7 H :    0.093603

  Mayer bond orders larger than 0.100000
B(  0-C ,  1-O ) :   1.9496 B(  0-C ,  2-C ) :   0.9683 B(  0-C ,  4-H ) :   0.9022
B(  2-C ,  3-C ) :   1.9690 B(  2-C ,  5-H ) :   0.9629 B(  3-C ,  6-H ) :   0.9561
B(  3-C ,  7-H ) :   0.9642

-----------------------------------------------------------------------------
         ABSORPTION SPECTRUM VIA TRANSITION ELECTRIC DIPOLE MOMENTS
-----------------------------------------------------------------------------
State   Energy    Wavelength  fosc         T2        TX        TY        TZ
        (cm-1)      (nm)                 (au**2)    (au)      (au)      (au)
-----------------------------------------------------------------------------
   1   34180.5    292.6   0.000223774   0.00216  -0.04381   0.01172  -0.00992

Dispersion correction           -0.025393280
FINAL SINGLE POINT ENERGY      -189.294530950415

DIPOLE MOMENT
-------------
                                X             Y             Z
Electronic contribution:     -2.31757      -1.97758       0.12296
Nuclear contribution   :      2.25616       2.92537      -0.24451
                        -----------------------------------------
Total Dipole Moment    :     -0.06141       0.94779      -0.12154
                        -----------------------------------------
Magnitude (a.u.)       :      0.95752
Magnitude (Debye)      :      2.43383

Rotational constants in cm-1:     0.733153     0.203101     0.162176
Rotational constants in MHz : 21979.384048  6088.804684  4861.921480

                             ****ORCA TERMINATED NORMALLY****
TOTAL RUN TIME: 0 days 0 hours 0 minutes 13 seconds 306 msec
