                         Program Version 5.0.3 -  RELEASE  -
|  1> ! HF-3c
|  2> !TightSCF
|  3> %scf
|  4>  ConvForced true
|  5>  convergence tight
|  6>  MaxIter 500
|  7> end
|  8>
|  9> %tddft
| 10>  nroots 1
| 11> end
| 12>
| 13> # 	22913
| 14> * xyz 0 1
| 15> 		C   -0.577304  -0.450782   0.070083
| 16> 		O   -0.616463  -1.637006  -0.031832
| 17> 		C    0.683054   0.392050  -0.044877
| 18> 		C    1.826590  -0.096606   0.019182
| 19> 		H   -1.539426   0.049797   0.042087
| 20> 		H    0.640482   1.460048  -0.163656
| 21> 		H    2.022234  -1.042637   0.007071
| 22> 		H    2.632540   0.604806   0.086930
| 23> *
| 24>
| 25>                          ****END OF INPUT****

CARTESIAN COORDINATES (ANGSTROEM)
---------------------------------
  C     -0.577304   -0.450782    0.070083
  O     -0.616463   -1.637006   -0.031832
  C      0.683054    0.392050   -0.044877
  C      1.826590   -0.096606    0.019182
  H     -1.539426    0.049797    0.042087
  H      0.640482    1.460048   -0.163656
  H      2.022234   -1.042637    0.007071
  H      2.632540    0.604806    0.086930

 Total Charge           Charge          ....    0
 Multiplicity           Mult            ....    1
 Number of Electrons    NEL             ....   30
 Basis Dimension        Dim             ....   24

ORBITAL ENERGIES
----------------

  NO   OCC          E(Eh)            E(eV)
   0   2.0000     -20.380733      -554.5879
   1   2.0000     -11.305731      -307.6446
   2   2.0000     -11.202223      -304.8280
   3   2.0000     -11.197918      -304.7108
   4   2.0000      -1.423558       -38.7370
   5   2.0000      -1.118305       -30.4306
   6   2.0000      -0.893102       -24.3025
   7   2.0000      -0.772549       -21.0221
   8   2.0000      -0.731489       -19.9048
   9   2.0000      -0.631812       -17.1925
  10   2.0000      -0.613028       -16.6814
  11   2.0000      -0.558698       -15.2030
  12   2.0000      -0.546645       -14.8750
  13   2.0000      -0.431149       -11.7322
  14   2.0000      -0.413659       -11.2562
  15   0.0000       0.144014         3.9188
  16   0.0000       0.314409         8.5555
  17   0.0000       0.545045        14.8314
  18   0.0000       0.602310        16.3897
  19   0.0000       0.727359        19.7924

MULLIKEN ATOMIC CHARGES
-----------------------
   0 C :    0.173825
   1 O :   -0.346703
   2 C :   -0.168090
   3 C :   -0.259092
   4 H :    0.139184
   5 H :    0.150639
   6 H :    0.156348
   7 H :    0.153891
Sum of atomic charges:   -0.0000000

LOEWDIN ATOMIC CHARGES
----------------------
   0 C :    0.149870
   1 O :   -0.244413
   2 C :   -0.118534
   3 C :   -0.148660
   4 H :    0.072570
   5 H :    0.095857
   6 H :    0.092301
   7 H :    0.101009

  Mayer bond orders larger than 0.100000
B(  0-C ,  1-O ) :   1.9309 B(  0-C ,  2-C ) :   0.9885 B(  0-C ,  4-H ) :   0.9283
B(  2-C ,  3-C ) :   1.9833 B(  2-C ,  5-H ) :   0.9550 B(  3-C ,  6-H ) :   0.9600
B(  3-C ,  7-H ) :   0.9574

-----------------------------------------------------------------------------
         ABSORPTION SPECTRUM VIA TRANSITION ELECTRIC DIPOLE MOMENTS
-----------------------------------------------------------------------------
State   Energy    Wavelength  fosc         T2        TX        TY        TZ
        (cm-1)      (nm)                 (au**2)    (au)      (au)      (au)
-----------------------------------------------------------------------------
   1   33389.4    299.5   0.000166715   0.00164   0.03935   0.00665   0.00713

Dispersion correction           -0.026042910
FINAL SINGLE POINT ENERGY      -189.313488176436

DIPOLE MOMENT
-------------
                                X             Y             Z
Electronic contribution:     -2.12250      -1.83110       0.06841
Nuclear contribution   :      2.36322       2.79429      -0.02607
                        -----------------------------------------
Total Dipole Moment    :      0.24072       0.96319       0.04234
                        -----------------------------------------
Magnitude (a.u.)       :      0.99371
Magnitude (Debye)      :      2.52582

Rotational constants in cm-1:     0.866135     0.202709     0.164714
Rotational constants in MHz : 25966.065303  6077.049328  4938.010417

                             ****ORCA TERMINATED NORMALLY****
TOTAL RUN TIME: 0 days 0 hours 0 minutes 12 seconds 88 msec
