                         Program Version 5.0.3 -  RELEASE  -
|  1> ! B3LYP cc-pVDZ
|  2> !TightSCF
|  3> %scf
|  4>  ConvForced true
|  5>  convergence tight
|  6>  MaxIter 500
|  7> end
|  8>
|  9> %tddft
| 10>  nroots 1
| 11> end
| 12>
| 13> # 	31701
| 14> * xyz 0 1
| 15> 		C   -0.629884  -0.473720  -0.002635
| 16> 		O   -0.582127  -1.620065   0.014744
| 17> 		C    0.647569   0.443067  -0.050683
| 18> 		C    1.878036  -0.111511   0.026531
| 19> 		H   -1.758175  -0.084973   0.007135
| 20> 		H    0.422227   1.445508   0.225182
| 21> 		H    1.973201  -1.187258  -0.239755
| 22> 		H    2.948140   0.458349   0.111770
| 23> *
| 24>
| 25>                          ****END OF INPUT****

CARTESIAN COORDINATES (ANGSTROEM)
---------------------------------
  C     -0.629884   -0.473720   -0.002635
  O     -0.582127   -1.620065    0.014744
  C      0.647569    0.443067   -0.050683
  C      1.878036   -0.111511    0.026531
  H     -1.758175   -0.084973    0.007135
  H      0.422227    1.445508    0.225182
  H      1.973201   -1.187258   -0.239755
  H      2.948140    0.458349    0.111770

 Total Charge           Charge          ....    0
 Multiplicity           Mult            ....    1
 Number of Electrons    NEL             ....   30
 Basis Dimension        Dim             ....   76

ORBITAL ENERGIES
----------------

  NO   OCC          E(Eh)            E(eV)
   0   2.0000     -19.140178      -520.8307
   1   2.0000     -10.281454      -279.7726
   2   2.0000     -10.225084      -278.2387
   3   2.0000     -10.209713      -277.8204
   4   2.0000      -1.086461       -29.5641
   5   2.0000      -0.779847       -21.2207
   6   2.0000      -0.629029       -17.1168
   7   2.0000      -0.536552       -14.6003
   8   2.0000      -0.499589       -13.5945
   9   2.0000      -0.449375       -12.2281
  10   2.0000      -0.429782       -11.6950
  11   2.0000      -0.416865       -11.3435
  12   2.0000      -0.372656       -10.1405
  13   2.0000      -0.287789        -7.8311
  14   2.0000      -0.250624        -6.8198
  15   0.0000      -0.058719        -1.5978
  16   0.0000       0.053316         1.4508
  17   0.0000       0.055976         1.5232
  18   0.0000       0.083694         2.2774
  19   0.0000       0.110175         2.9980

MULLIKEN ATOMIC CHARGES
-----------------------
   0 C :    0.118987
   1 O :   -0.124415
   2 C :   -0.083713
   3 C :   -0.004229
   4 H :   -0.017389
   5 H :   -0.004141
   6 H :    0.049725
   7 H :    0.065176
Sum of atomic charges:    0.0000000

LOEWDIN ATOMIC CHARGES
----------------------
   0 C :   -0.069464
   1 O :    0.055525
   2 C :   -0.083580
   3 C :   -0.003757
   4 H :   -0.004024
   5 H :    0.016756
   6 H :    0.034330
   7 H :    0.054214

  Mayer bond orders larger than 0.100000
B(  0-C ,  1-O ) :   2.2667 B(  0-C ,  2-C ) :   0.9547 B(  0-C ,  4-H ) :   0.8997
B(  2-C ,  3-C ) :   1.9643 B(  2-C ,  5-H ) :   0.9503 B(  3-C ,  6-H ) :   0.9299
B(  3-C ,  7-H ) :   0.9468

-----------------------------------------------------------------------------
         ABSORPTION SPECTRUM VIA TRANSITION ELECTRIC DIPOLE MOMENTS
-----------------------------------------------------------------------------
State   Energy    Wavelength  fosc         T2        TX        TY        TZ
        (cm-1)      (nm)                 (au**2)    (au)      (au)      (au)
-----------------------------------------------------------------------------
   1   30011.3    333.2   0.001535410   0.01684   0.12353   0.02514   0.03086

FINAL SINGLE POINT ENERGY      -191.640887912687

DIPOLE MOMENT
-------------
                                X             Y             Z
Electronic contribution:     -1.89290      -1.68896      -0.07496
Nuclear contribution   :      2.20801       2.38236       0.09680
                        -----------------------------------------
Total Dipole Moment    :      0.31511       0.69340       0.02185
                        -----------------------------------------
Magnitude (a.u.)       :      0.76195
Magnitude (Debye)      :      1.93673

Rotational constants in cm-1:     0.772600     0.198730     0.158560
Rotational constants in MHz : 23161.965653  5957.788361  4753.517398

                             ****ORCA TERMINATED NORMALLY****
TOTAL RUN TIME: 0 days 0 hours 3 minutes 14 seconds 923 msec
