                         Program Version 5.0.3 -  RELEASE  -
|  1> ! HF-3c
|  2> !TightSCF
|  3> %scf
|  4>  ConvForced true
|  5>  convergence tight
|  6>  MaxIter 500
|  7> end
|  8>
|  9> %tddft
| 10>  nroots 1
| 11> end
| 12>
| 13> # 	13815
| 14> * xyz 0 1
| 15> 		C   -1.143260  -0.301506   0.119914
| 16> 		O   -2.031256  -0.445280   0.835085
| 17> 		C    0.107033   0.339430   0.367711
| 18> 		C    1.188668   0.167702  -0.306276
| 19> 		H   -1.160020  -0.885150  -1.009238
| 20> 		H    0.025330   0.890150   1.207511
| 21> 		H    1.043125  -0.417648  -1.138531
| 22> 		H    1.998237   0.706044  -0.077615
| 23> *
| 24>
| 25>                          ****END OF INPUT****

CARTESIAN COORDINATES (ANGSTROEM)
---------------------------------
  C     -1.143260   -0.301506    0.119914
  O     -2.031256   -0.445280    0.835085
  C      0.107033    0.339430    0.367711
  C      1.188668    0.167702   -0.306276
  H     -1.160020   -0.885150   -1.009238
  H      0.025330    0.890150    1.207511
  H      1.043125   -0.417648   -1.138531
  H      1.998237    0.706044   -0.077615

 Total Charge           Charge          ....    0
 Multiplicity           Mult            ....    1
 Number of Electrons    NEL             ....   30
 Basis Dimension        Dim             ....   24

ORBITAL ENERGIES
----------------

  NO   OCC          E(Eh)            E(eV)
   0   2.0000     -20.392922      -554.9196
   1   2.0000     -11.314156      -307.8738
   2   2.0000     -11.212677      -305.1125
   3   2.0000     -11.206169      -304.9354
   4   2.0000      -1.455055       -39.5941
   5   2.0000      -1.129073       -30.7237
   6   2.0000      -0.909928       -24.7604
   7   2.0000      -0.783252       -21.3134
   8   2.0000      -0.688793       -18.7430
   9   2.0000      -0.679943       -18.5022
  10   2.0000      -0.601966       -16.3803
  11   2.0000      -0.583453       -15.8766
  12   2.0000      -0.570392       -15.5211
  13   2.0000      -0.428412       -11.6577
  14   2.0000      -0.395839       -10.7713
  15   0.0000       0.132530         3.6063
  16   0.0000       0.328572         8.9409
  17   0.0000       0.501195        13.6382
  18   0.0000       0.619693        16.8627
  19   0.0000       0.703444        19.1417

MULLIKEN ATOMIC CHARGES
-----------------------
   0 C :    0.215183
   1 O :   -0.361797
   2 C :   -0.178287
   3 C :   -0.251848
   4 H :    0.104877
   5 H :    0.155929
   6 H :    0.155108
   7 H :    0.160834
Sum of atomic charges:   -0.0000000

LOEWDIN ATOMIC CHARGES
----------------------
   0 C :    0.159581
   1 O :   -0.243376
   2 C :   -0.123910
   3 C :   -0.138219
   4 H :    0.053909
   5 H :    0.093080
   6 H :    0.098760
   7 H :    0.100177

  Mayer bond orders larger than 0.100000
B(  0-C ,  1-O ) :   1.9233 B(  0-C ,  2-C ) :   1.0202 B(  0-C ,  4-H ) :   0.8922
B(  2-C ,  3-C ) :   1.9548 B(  2-C ,  5-H ) :   0.9524 B(  3-C ,  6-H ) :   0.9588
B(  3-C ,  7-H ) :   0.9622

-----------------------------------------------------------------------------
         ABSORPTION SPECTRUM VIA TRANSITION ELECTRIC DIPOLE MOMENTS
-----------------------------------------------------------------------------
State   Energy    Wavelength  fosc         T2        TX        TY        TZ
        (cm-1)      (nm)                 (au**2)    (au)      (au)      (au)
-----------------------------------------------------------------------------
   1   34786.6    287.5   0.000167904   0.00159   0.00406   0.03608   0.01646

Dispersion correction           -0.026656789
FINAL SINGLE POINT ENERGY      -189.285962019500

DIPOLE MOMENT
-------------
                                X             Y             Z
Electronic contribution:     -2.80869      -0.39780       1.35174
Nuclear contribution   :      3.69043       0.56156      -1.91785
                        -----------------------------------------
Total Dipole Moment    :      0.88174       0.16377      -0.56611
                        -----------------------------------------
Magnitude (a.u.)       :      1.06054
Magnitude (Debye)      :      2.69569

Rotational constants in cm-1:     1.725851     0.163232     0.150285
Rotational constants in MHz : 51739.699108  4893.580278  4505.445875

                             ****ORCA TERMINATED NORMALLY****
TOTAL RUN TIME: 0 days 0 hours 0 minutes 12 seconds 275 msec
