                         Program Version 5.0.3 -  RELEASE  -
|  1> ! HF-3c
|  2> !TightSCF
|  3> %scf
|  4>  ConvForced true
|  5>  convergence tight
|  6>  MaxIter 500
|  7> end
|  8>
|  9> %tddft
| 10>  nroots 1
| 11> end
| 12>
| 13> # 	13220
| 14> * xyz 0 1
| 15> 		C   -1.204121  -0.358120   0.100465
| 16> 		O   -1.155478  -1.585491   0.056608
| 17> 		C    0.023692   0.538828   0.103652
| 18> 		C    1.192936  -0.086042   0.047946
| 19> 		H   -2.016067   0.383202  -0.316142
| 20> 		H    0.017783   1.616456   0.059608
| 21> 		H    1.208141  -1.074084  -0.064425
| 22> 		H    2.030814   0.545507   0.021344
| 23> *
| 24>
| 25>                          ****END OF INPUT****

CARTESIAN COORDINATES (ANGSTROEM)
---------------------------------
  C     -1.204121   -0.358120    0.100465
  O     -1.155478   -1.585491    0.056608
  C      0.023692    0.538828    0.103652
  C      1.192936   -0.086042    0.047946
  H     -2.016067    0.383202   -0.316142
  H      0.017783    1.616456    0.059608
  H      1.208141   -1.074084   -0.064425
  H      2.030814    0.545507    0.021344

 Total Charge           Charge          ....    0
 Multiplicity           Mult            ....    1
 Number of Electrons    NEL             ....   30
 Basis Dimension        Dim             ....   24

ORBITAL ENERGIES
----------------

  NO   OCC          E(Eh)            E(eV)
   0   2.0000     -20.371527      -554.3374
   1   2.0000     -11.294108      -307.3283
   2   2.0000     -11.186254      -304.3934
   3   2.0000     -11.182550      -304.2927
   4   2.0000      -1.391609       -37.8676
   5   2.0000      -1.088157       -29.6102
   6   2.0000      -0.889481       -24.2040
   7   2.0000      -0.751208       -20.4414
   8   2.0000      -0.701851       -19.0983
   9   2.0000      -0.619741       -16.8640
  10   2.0000      -0.585002       -15.9187
  11   2.0000      -0.554906       -15.0998
  12   2.0000      -0.530950       -14.4479
  13   2.0000      -0.409061       -11.1311
  14   2.0000      -0.393570       -10.7096
  15   0.0000       0.127710         3.4752
  16   0.0000       0.287515         7.8237
  17   0.0000       0.554290        15.0830
  18   0.0000       0.563015        15.3204
  19   0.0000       0.655484        17.8366

MULLIKEN ATOMIC CHARGES
-----------------------
   0 C :    0.180312
   1 O :   -0.350859
   2 C :   -0.170314
   3 C :   -0.246387
   4 H :    0.137082
   5 H :    0.143750
   6 H :    0.159741
   7 H :    0.146675
Sum of atomic charges:    0.0000000

LOEWDIN ATOMIC CHARGES
----------------------
   0 C :    0.159195
   1 O :   -0.260078
   2 C :   -0.127112
   3 C :   -0.134681
   4 H :    0.080007
   5 H :    0.091348
   6 H :    0.097588
   7 H :    0.093734

  Mayer bond orders larger than 0.100000
B(  0-C ,  1-O ) :   1.9227 B(  0-C ,  2-C ) :   1.0048 B(  0-C ,  4-H ) :   0.9144
B(  2-C ,  3-C ) :   1.9522 B(  2-C ,  5-H ) :   0.9627 B(  3-C ,  6-H ) :   0.9616
B(  3-C ,  7-H ) :   0.9662

-----------------------------------------------------------------------------
         ABSORPTION SPECTRUM VIA TRANSITION ELECTRIC DIPOLE MOMENTS
-----------------------------------------------------------------------------
State   Energy    Wavelength  fosc         T2        TX        TY        TZ
        (cm-1)      (nm)                 (au**2)    (au)      (au)      (au)
-----------------------------------------------------------------------------
   1   31079.1    321.8   0.000194194   0.00206   0.03624  -0.00709   0.02633

Dispersion correction           -0.026340435
FINAL SINGLE POINT ENERGY      -189.321398378796

DIPOLE MOMENT
-------------
                                X             Y             Z
Electronic contribution:     -2.09741      -1.85988       0.42234
Nuclear contribution   :      2.29504       2.88524      -0.52427
                        -----------------------------------------
Total Dipole Moment    :      0.19763       1.02536      -0.10193
                        -----------------------------------------
Magnitude (a.u.)       :      1.04920
Magnitude (Debye)      :      2.66685

Rotational constants in cm-1:     0.728441     0.216110     0.167325
Rotational constants in MHz : 21838.099859  6478.811113  5016.274123

                             ****ORCA TERMINATED NORMALLY****
TOTAL RUN TIME: 0 days 0 hours 0 minutes 13 seconds 820 msec
