                         Program Version 5.0.3 -  RELEASE  -
|  1> ! B3LYP cc-pVDZ
|  2> !TightSCF
|  3> %scf
|  4>  ConvForced true
|  5>  convergence tight
|  6>  MaxIter 500
|  7> end
|  8>
|  9> %tddft
| 10>  nroots 1
| 11> end
| 12>
| 13> # 	13668
| 14> * xyz 0 1
| 15> 		C   -1.193713  -0.279572   0.038151
| 16> 		O   -1.532045  -1.182402  -0.721894
| 17> 		C   -0.043587   0.514594  -0.212406
| 18> 		C    1.231338   0.001376   0.108967
| 19> 		H   -1.754868  -0.003564   0.926801
| 20> 		H   -0.126223   1.458819  -0.673583
| 21> 		H    1.280340  -1.002789   0.541671
| 22> 		H    2.107196   0.517116  -0.017981
| 23> *
| 24>
| 25>                          ****END OF INPUT****

CARTESIAN COORDINATES (ANGSTROEM)
---------------------------------
  C     -1.193713   -0.279572    0.038151
  O     -1.532045   -1.182402   -0.721894
  C     -0.043587    0.514594   -0.212406
  C      1.231338    0.001376    0.108967
  H     -1.754868   -0.003564    0.926801
  H     -0.126223    1.458819   -0.673583
  H      1.280340   -1.002789    0.541671
  H      2.107196    0.517116   -0.017981

 Total Charge           Charge          ....    0
 Multiplicity           Mult            ....    1
 Number of Electrons    NEL             ....   30
 Basis Dimension        Dim             ....   76

ORBITAL ENERGIES
----------------

  NO   OCC          E(Eh)            E(eV)
   0   2.0000     -19.142748      -520.9007
   1   2.0000     -10.276632      -279.6414
   2   2.0000     -10.208154      -277.7780
   3   2.0000     -10.207510      -277.7605
   4   2.0000      -1.041792       -28.3486
   5   2.0000      -0.792165       -21.5559
   6   2.0000      -0.664964       -18.0946
   7   2.0000      -0.565152       -15.3786
   8   2.0000      -0.504602       -13.7309
   9   2.0000      -0.456136       -12.4121
  10   2.0000      -0.438412       -11.9298
  11   2.0000      -0.401634       -10.9290
  12   2.0000      -0.366353        -9.9690
  13   2.0000      -0.276171        -7.5150
  14   2.0000      -0.255256        -6.9459
  15   0.0000      -0.039573        -1.0768
  16   0.0000      -0.023619        -0.6427
  17   0.0000       0.089925         2.4470
  18   0.0000       0.099979         2.7206
  19   0.0000       0.104050         2.8313

MULLIKEN ATOMIC CHARGES
-----------------------
   0 C :    0.191156
   1 O :   -0.198681
   2 C :   -0.071156
   3 C :    0.041185
   4 H :   -0.009260
   5 H :    0.007536
   6 H :    0.027095
   7 H :    0.012125
Sum of atomic charges:    0.0000000

LOEWDIN ATOMIC CHARGES
----------------------
   0 C :   -0.019903
   1 O :   -0.003777
   2 C :   -0.038599
   3 C :    0.000022
   4 H :   -0.003257
   5 H :    0.028320
   6 H :    0.028837
   7 H :    0.008358

  Mayer bond orders larger than 0.100000
B(  0-C ,  1-O ) :   2.2083 B(  0-C ,  2-C ) :   1.0197 B(  0-C ,  4-H ) :   0.9207
B(  2-C ,  3-C ) :   2.0062 B(  2-C ,  5-H ) :   0.9439 B(  3-C ,  6-H ) :   0.9538
B(  3-C ,  7-H ) :   0.9565

-----------------------------------------------------------------------------
         ABSORPTION SPECTRUM VIA TRANSITION ELECTRIC DIPOLE MOMENTS
-----------------------------------------------------------------------------
State   Energy    Wavelength  fosc         T2        TX        TY        TZ
        (cm-1)      (nm)                 (au**2)    (au)      (au)      (au)
-----------------------------------------------------------------------------
   1   32072.5    311.8   0.000043102   0.00044  -0.01031  -0.01763  -0.00501

FINAL SINGLE POINT ENERGY      -191.636922584271

DIPOLE MOMENT
-------------
                                X             Y             Z
Electronic contribution:     -2.49195      -1.17305      -1.00776
Nuclear contribution   :      2.94057       1.90691       1.49440
                        -----------------------------------------
Total Dipole Moment    :      0.44862       0.73386       0.48664
                        -----------------------------------------
Magnitude (a.u.)       :      0.98825
Magnitude (Debye)      :      2.51192

Rotational constants in cm-1:     0.863366     0.182456     0.165826
Rotational constants in MHz : 25883.051374  5469.896247  4971.337446

                             ****ORCA TERMINATED NORMALLY****
TOTAL RUN TIME: 0 days 0 hours 3 minutes 25 seconds 299 msec
