                         Program Version 5.0.3 -  RELEASE  -
|  1> ! HF-3c
|  2> !TightSCF
|  3> %scf
|  4>  ConvForced true
|  5>  convergence tight
|  6>  MaxIter 500
|  7> end
|  8>
|  9> %tddft
| 10>  nroots 1
| 11> end
| 12>
| 13> # 	18780
| 14> * xyz 0 1
| 15> 		C   -1.150684  -0.355362   0.023971
| 16> 		O   -1.224240  -1.510094  -0.004225
| 17> 		C    0.041495   0.394089  -0.025647
| 18> 		C    1.235027   0.011236   0.014252
| 19> 		H   -2.212686   0.313550   0.048731
| 20> 		H   -0.192593   1.534510  -0.028712
| 21> 		H    1.379207  -1.050584  -0.071332
| 22> 		H    2.092573   0.650882   0.044722
| 23> *
| 24>
| 25>                          ****END OF INPUT****

CARTESIAN COORDINATES (ANGSTROEM)
---------------------------------
  C     -1.150684   -0.355362    0.023971
  O     -1.224240   -1.510094   -0.004225
  C      0.041495    0.394089   -0.025647
  C      1.235027    0.011236    0.014252
  H     -2.212686    0.313550    0.048731
  H     -0.192593    1.534510   -0.028712
  H      1.379207   -1.050584   -0.071332
  H      2.092573    0.650882    0.044722

 Total Charge           Charge          ....    0
 Multiplicity           Mult            ....    1
 Number of Electrons    NEL             ....   30
 Basis Dimension        Dim             ....   24

ORBITAL ENERGIES
----------------

  NO   OCC          E(Eh)            E(eV)
   0   2.0000     -20.379195      -554.5461
   1   2.0000     -11.308386      -307.7168
   2   2.0000     -11.199496      -304.7538
   3   2.0000     -11.195018      -304.6319
   4   2.0000      -1.443800       -39.2878
   5   2.0000      -1.111110       -30.2349
   6   2.0000      -0.903341       -24.5812
   7   2.0000      -0.724853       -19.7243
   8   2.0000      -0.714047       -19.4302
   9   2.0000      -0.636770       -17.3274
  10   2.0000      -0.611495       -16.6396
  11   2.0000      -0.574367       -15.6293
  12   2.0000      -0.506175       -13.7737
  13   2.0000      -0.420607       -11.4453
  14   2.0000      -0.402024       -10.9396
  15   0.0000       0.141695         3.8557
  16   0.0000       0.355718         9.6796
  17   0.0000       0.462922        12.5968
  18   0.0000       0.596760        16.2387
  19   0.0000       0.679146        18.4805

MULLIKEN ATOMIC CHARGES
-----------------------
   0 C :    0.194628
   1 O :   -0.362494
   2 C :   -0.176468
   3 C :   -0.233682
   4 H :    0.123257
   5 H :    0.140053
   6 H :    0.159521
   7 H :    0.155185
Sum of atomic charges:    0.0000000

LOEWDIN ATOMIC CHARGES
----------------------
   0 C :    0.147022
   1 O :   -0.248947
   2 C :   -0.136907
   3 C :   -0.130440
   4 H :    0.070527
   5 H :    0.093349
   6 H :    0.104049
   7 H :    0.101346

  Mayer bond orders larger than 0.100000
B(  0-C ,  1-O ) :   1.9083 B(  0-C ,  2-C ) :   1.0317 B(  0-C ,  4-H ) :   0.9009
B(  2-C ,  3-C ) :   1.9586 B(  2-C ,  5-H ) :   0.9477 B(  3-C ,  6-H ) :   0.9525
B(  3-C ,  7-H ) :   0.9592

-----------------------------------------------------------------------------
         ABSORPTION SPECTRUM VIA TRANSITION ELECTRIC DIPOLE MOMENTS
-----------------------------------------------------------------------------
State   Energy    Wavelength  fosc         T2        TX        TY        TZ
        (cm-1)      (nm)                 (au**2)    (au)      (au)      (au)
-----------------------------------------------------------------------------
   1   34379.0    290.9   0.000095409   0.00091   0.02527  -0.00405   0.01608

Dispersion correction           -0.026165860
FINAL SINGLE POINT ENERGY      -189.297481522467

DIPOLE MOMENT
-------------
                                X             Y             Z
Electronic contribution:     -1.81180      -1.88159       0.02149
Nuclear contribution   :      2.12487       2.82160      -0.01141
                        -----------------------------------------
Total Dipole Moment    :      0.31306       0.94001       0.01008
                        -----------------------------------------
Magnitude (a.u.)       :      0.99082
Magnitude (Debye)      :      2.51846

Rotational constants in cm-1:     0.885186     0.209278     0.169354
Rotational constants in MHz : 26537.222910  6274.007210  5077.118281

                             ****ORCA TERMINATED NORMALLY****
TOTAL RUN TIME: 0 days 0 hours 0 minutes 13 seconds 608 msec
