                         Program Version 5.0.3 -  RELEASE  -
|  1> ! HF-3c
|  2> !TightSCF
|  3> %scf
|  4>  ConvForced true
|  5>  convergence tight
|  6>  MaxIter 500
|  7> end
|  8>
|  9> %tddft
| 10>  nroots 1
| 11> end
| 12>
| 13> # 	16696
| 14> * xyz 0 1
| 15> 		C   -1.177529  -0.231901  -0.190002
| 16> 		O   -1.980951  -0.415017  -1.005572
| 17> 		C    0.091074   0.484715  -0.315125
| 18> 		C    1.215550   0.070173   0.233317
| 19> 		H   -1.358096  -0.895427   0.895869
| 20> 		H    0.037618   1.263768  -0.874137
| 21> 		H    1.099858  -0.966486   1.055269
| 22> 		H    2.121212   0.691226   0.253166
| 23> *
| 24>
| 25>                          ****END OF INPUT****

CARTESIAN COORDINATES (ANGSTROEM)
---------------------------------
  C     -1.177529   -0.231901   -0.190002
  O     -1.980951   -0.415017   -1.005572
  C      0.091074    0.484715   -0.315125
  C      1.215550    0.070173    0.233317
  H     -1.358096   -0.895427    0.895869
  H      0.037618    1.263768   -0.874137
  H      1.099858   -0.966486    1.055269
  H      2.121212    0.691226    0.253166

 Total Charge           Charge          ....    0
 Multiplicity           Mult            ....    1
 Number of Electrons    NEL             ....   30
 Basis Dimension        Dim             ....   24

ORBITAL ENERGIES
----------------

  NO   OCC          E(Eh)            E(eV)
   0   2.0000     -20.378725      -554.5333
   1   2.0000     -11.304219      -307.6034
   2   2.0000     -11.197116      -304.6890
   3   2.0000     -11.191728      -304.5424
   4   2.0000      -1.438472       -39.1428
   5   2.0000      -1.091266       -29.6948
   6   2.0000      -0.866395       -23.5758
   7   2.0000      -0.763304       -20.7706
   8   2.0000      -0.663095       -18.0437
   9   2.0000      -0.652179       -17.7467
  10   2.0000      -0.592550       -16.1241
  11   2.0000      -0.548694       -14.9307
  12   2.0000      -0.513362       -13.9693
  13   2.0000      -0.408207       -11.1079
  14   2.0000      -0.386991       -10.5305
  15   0.0000       0.149804         4.0764
  16   0.0000       0.300694         8.1823
  17   0.0000       0.422629        11.5003
  18   0.0000       0.489569        13.3219
  19   0.0000       0.599291        16.3075

MULLIKEN ATOMIC CHARGES
-----------------------
   0 C :    0.211380
   1 O :   -0.365240
   2 C :   -0.219823
   3 C :   -0.185209
   4 H :    0.109540
   5 H :    0.151045
   6 H :    0.148120
   7 H :    0.150187
Sum of atomic charges:    0.0000000

LOEWDIN ATOMIC CHARGES
----------------------
   0 C :    0.159859
   1 O :   -0.250812
   2 C :   -0.163784
   3 C :   -0.106449
   4 H :    0.060438
   5 H :    0.087356
   6 H :    0.114254
   7 H :    0.099138

  Mayer bond orders larger than 0.100000
B(  0-C ,  1-O ) :   1.9322 B(  0-C ,  2-C ) :   1.0035 B(  0-C ,  4-H ) :   0.8943
B(  2-C ,  3-C ) :   1.9615 B(  2-C ,  5-H ) :   0.9548 B(  3-C ,  6-H ) :   0.9509
B(  3-C ,  7-H ) :   0.9604

-----------------------------------------------------------------------------
         ABSORPTION SPECTRUM VIA TRANSITION ELECTRIC DIPOLE MOMENTS
-----------------------------------------------------------------------------
State   Energy    Wavelength  fosc         T2        TX        TY        TZ
        (cm-1)      (nm)                 (au**2)    (au)      (au)      (au)
-----------------------------------------------------------------------------
   1   35563.2    281.2   0.000445901   0.00413   0.03680   0.04744  -0.02287

Dispersion correction           -0.025596433
FINAL SINGLE POINT ENERGY      -189.252081614562

DIPOLE MOMENT
-------------
                                X             Y             Z
Electronic contribution:     -2.71243      -0.18633      -1.64740
Nuclear contribution   :      3.65064       0.26039       2.44347
                        -----------------------------------------
Total Dipole Moment    :      0.93821       0.07405       0.79606
                        -----------------------------------------
Magnitude (a.u.)       :      1.23265
Magnitude (Debye)      :      3.13316

Rotational constants in cm-1:     1.391720     0.158988     0.147744
Rotational constants in MHz : 41722.720053  4766.334754  4429.257939

                             ****ORCA TERMINATED NORMALLY****
TOTAL RUN TIME: 0 days 0 hours 0 minutes 10 seconds 242 msec
