                         Program Version 5.0.3 -  RELEASE  -
|  1> ! HF-3c
|  2> !TightSCF
|  3> %scf
|  4>  ConvForced true
|  5>  convergence tight
|  6>  MaxIter 500
|  7> end
|  8>
|  9> %tddft
| 10>  nroots 1
| 11> end
| 12>
| 13> # 	24448
| 14> * xyz 0 1
| 15> 		C   -0.574228  -0.411405  -0.029877
| 16> 		O   -0.600564  -1.660630   0.033285
| 17> 		C    0.677793   0.397045   0.036369
| 18> 		C    1.812574  -0.086213  -0.030260
| 19> 		H   -1.640737   0.087529  -0.325128
| 20> 		H    0.437324   1.413520   0.179821
| 21> 		H    2.029146  -1.107677  -0.182299
| 22> 		H    2.828469   0.422016   0.103852
| 23> *
| 24>
| 25>                          ****END OF INPUT****

CARTESIAN COORDINATES (ANGSTROEM)
---------------------------------
  C     -0.574228   -0.411405   -0.029877
  O     -0.600564   -1.660630    0.033285
  C      0.677793    0.397045    0.036369
  C      1.812574   -0.086213   -0.030260
  H     -1.640737    0.087529   -0.325128
  H      0.437324    1.413520    0.179821
  H      2.029146   -1.107677   -0.182299
  H      2.828469    0.422016    0.103852

 Total Charge           Charge          ....    0
 Multiplicity           Mult            ....    1
 Number of Electrons    NEL             ....   30
 Basis Dimension        Dim             ....   24

ORBITAL ENERGIES
----------------

  NO   OCC          E(Eh)            E(eV)
   0   2.0000     -20.348567      -553.7127
   1   2.0000     -11.279689      -306.9359
   2   2.0000     -11.205685      -304.9222
   3   2.0000     -11.200730      -304.7874
   4   2.0000      -1.368016       -37.2256
   5   2.0000      -1.109335       -30.1865
   6   2.0000      -0.885280       -24.0897
   7   2.0000      -0.747831       -20.3495
   8   2.0000      -0.693979       -18.8841
   9   2.0000      -0.641245       -17.4492
  10   2.0000      -0.579872       -15.7791
  11   2.0000      -0.522880       -14.2283
  12   2.0000      -0.512519       -13.9463
  13   2.0000      -0.419057       -11.4031
  14   2.0000      -0.404487       -11.0067
  15   0.0000       0.141450         3.8491
  16   0.0000       0.318555         8.6683
  17   0.0000       0.457652        12.4533
  18   0.0000       0.601537        16.3687
  19   0.0000       0.665652        18.1133

MULLIKEN ATOMIC CHARGES
-----------------------
   0 C :    0.168956
   1 O :   -0.349643
   2 C :   -0.196619
   3 C :   -0.223479
   4 H :    0.139751
   5 H :    0.149553
   6 H :    0.157190
   7 H :    0.154292
Sum of atomic charges:    0.0000000

LOEWDIN ATOMIC CHARGES
----------------------
   0 C :    0.146222
   1 O :   -0.266312
   2 C :   -0.139228
   3 C :   -0.125875
   4 H :    0.086485
   5 H :    0.093417
   6 H :    0.099538
   7 H :    0.105753

  Mayer bond orders larger than 0.100000
B(  0-C ,  1-O ) :   1.9141 B(  0-C ,  2-C ) :   1.0072 B(  0-C ,  4-H ) :   0.9226
B(  2-C ,  3-C ) :   1.9810 B(  2-C ,  5-H ) :   0.9504 B(  3-C ,  6-H ) :   0.9542
B(  3-C ,  7-H ) :   0.9541

-----------------------------------------------------------------------------
         ABSORPTION SPECTRUM VIA TRANSITION ELECTRIC DIPOLE MOMENTS
-----------------------------------------------------------------------------
State   Energy    Wavelength  fosc         T2        TX        TY        TZ
        (cm-1)      (nm)                 (au**2)    (au)      (au)      (au)
-----------------------------------------------------------------------------
   1   30327.4    329.7   0.000111380   0.00121   0.02896   0.00073   0.01923

Dispersion correction           -0.025564295
FINAL SINGLE POINT ENERGY      -189.327481785529

DIPOLE MOMENT
-------------
                                X             Y             Z
Electronic contribution:     -1.95616      -1.60929       0.13649
Nuclear contribution   :      2.27097       2.55176      -0.21087
                        -----------------------------------------
Total Dipole Moment    :      0.31482       0.94246      -0.07439
                        -----------------------------------------
Magnitude (a.u.)       :      0.99643
Magnitude (Debye)      :      2.53273

Rotational constants in cm-1:     0.795805     0.204259     0.163291
Rotational constants in MHz : 23857.626409  6123.530845  4895.348373

                             ****ORCA TERMINATED NORMALLY****
TOTAL RUN TIME: 0 days 0 hours 0 minutes 10 seconds 858 msec
