                         Program Version 5.0.3 -  RELEASE  -
|  1> ! B3LYP cc-pVDZ
|  2> !TightSCF
|  3> %scf
|  4>  ConvForced true
|  5>  convergence tight
|  6>  MaxIter 500
|  7> end
|  8>
|  9> %tddft
| 10>  nroots 1
| 11> end
| 12>
| 13> # 	5396
| 14> * xyz 0 1
| 15> 		C   -1.196364  -0.358261   0.015131
| 16> 		O   -2.108449  -0.523297   0.707192
| 17> 		C   -0.070822   0.486141   0.340356
| 18> 		C    1.197267   0.041097  -0.257056
| 19> 		H   -1.059556  -0.877975  -0.939217
| 20> 		H   -0.063604   1.365689   1.055057
| 21> 		H    1.339871  -0.697440  -0.924649
| 22> 		H    1.988366   0.595016  -0.006044
| 23> *
| 24>
| 25>                          ****END OF INPUT****

CARTESIAN COORDINATES (ANGSTROEM)
---------------------------------
  C     -1.196364   -0.358261    0.015131
  O     -2.108449   -0.523297    0.707192
  C     -0.070822    0.486141    0.340356
  C      1.197267    0.041097   -0.257056
  H     -1.059556   -0.877975   -0.939217
  H     -0.063604    1.365689    1.055057
  H      1.339871   -0.697440   -0.924649
  H      1.988366    0.595016   -0.006044

 Total Charge           Charge          ....    0
 Multiplicity           Mult            ....    1
 Number of Electrons    NEL             ....   30
 Basis Dimension        Dim             ....   76

ORBITAL ENERGIES
----------------

  NO   OCC          E(Eh)            E(eV)
   0   2.0000     -19.131895      -520.6053
   1   2.0000     -10.264859      -279.3210
   2   2.0000     -10.221260      -278.1346
   3   2.0000     -10.214587      -277.9531
   4   2.0000      -1.073875       -29.2216
   5   2.0000      -0.786641       -21.4056
   6   2.0000      -0.660775       -17.9806
   7   2.0000      -0.572000       -15.5649
   8   2.0000      -0.487314       -13.2605
   9   2.0000      -0.465410       -12.6645
  10   2.0000      -0.425271       -11.5722
  11   2.0000      -0.418468       -11.3871
  12   2.0000      -0.394830       -10.7439
  13   2.0000      -0.274971        -7.4823
  14   2.0000      -0.252245        -6.8639
  15   0.0000      -0.069329        -1.8865
  16   0.0000       0.039514         1.0752
  17   0.0000       0.080275         2.1844
  18   0.0000       0.088032         2.3955
  19   0.0000       0.125906         3.4261

MULLIKEN ATOMIC CHARGES
-----------------------
   0 C :    0.200384
   1 O :   -0.153095
   2 C :   -0.131550
   3 C :    0.088607
   4 H :   -0.044370
   5 H :    0.030224
   6 H :    0.005853
   7 H :    0.003946
Sum of atomic charges:   -0.0000000

LOEWDIN ATOMIC CHARGES
----------------------
   0 C :   -0.100543
   1 O :    0.050799
   2 C :   -0.033318
   3 C :    0.047637
   4 H :   -0.012621
   5 H :    0.041472
   6 H :    0.003094
   7 H :    0.003480

  Mayer bond orders larger than 0.100000
B(  0-C ,  1-O ) :   2.2299 B(  0-C ,  2-C ) :   1.0659 B(  0-C ,  4-H ) :   0.9138
B(  2-C ,  3-C ) :   1.8981 B(  2-C ,  5-H ) :   0.9476 B(  3-C ,  6-H ) :   0.9661
B(  3-C ,  7-H ) :   0.9586

-----------------------------------------------------------------------------
         ABSORPTION SPECTRUM VIA TRANSITION ELECTRIC DIPOLE MOMENTS
-----------------------------------------------------------------------------
State   Energy    Wavelength  fosc         T2        TX        TY        TZ
        (cm-1)      (nm)                 (au**2)    (au)      (au)      (au)
-----------------------------------------------------------------------------
   1   28706.0    348.4   0.000500611   0.00574  -0.06795  -0.02449   0.02291

FINAL SINGLE POINT ENERGY      -191.639789379993

DIPOLE MOMENT
-------------
                                X             Y             Z
Electronic contribution:     -3.24227      -0.50151       1.10898
Nuclear contribution   :      4.21150       0.75386      -1.53859
                        -----------------------------------------
Total Dipole Moment    :      0.96922       0.25235      -0.42961
                        -----------------------------------------
Magnitude (a.u.)       :      1.08979
Magnitude (Debye)      :      2.77002

Rotational constants in cm-1:     1.337165     0.160692     0.146883
Rotational constants in MHz : 40087.203544  4817.416485  4403.452310

                             ****ORCA TERMINATED NORMALLY****
TOTAL RUN TIME: 0 days 0 hours 3 minutes 23 seconds 58 msec
