                         Program Version 5.0.3 -  RELEASE  -
|  1> ! B3LYP cc-pVDZ
|  2> !TightSCF
|  3> %scf
|  4>  ConvForced true
|  5>  convergence tight
|  6>  MaxIter 500
|  7> end
|  8>
|  9> %tddft
| 10>  nroots 1
| 11> end
| 12>
| 13> # 	6141
| 14> * xyz 0 1
| 15> 		C   -1.152590  -0.275218  -0.050507
| 16> 		O   -1.230275  -1.526521  -0.115566
| 17> 		C   -0.004288   0.625226  -0.050491
| 18> 		C    1.187953   0.024176  -0.036751
| 19> 		H   -2.220723   0.128872   0.034784
| 20> 		H   -0.079362   1.658910  -0.210931
| 21> 		H    1.327338  -1.107049   0.237672
| 22> 		H    2.166690   0.520625   0.095950
| 23> *
| 24>
| 25>                          ****END OF INPUT****

CARTESIAN COORDINATES (ANGSTROEM)
---------------------------------
  C     -1.152590   -0.275218   -0.050507
  O     -1.230275   -1.526521   -0.115566
  C     -0.004288    0.625226   -0.050491
  C      1.187953    0.024176   -0.036751
  H     -2.220723    0.128872    0.034784
  H     -0.079362    1.658910   -0.210931
  H      1.327338   -1.107049    0.237672
  H      2.166690    0.520625    0.095950

 Total Charge           Charge          ....    0
 Multiplicity           Mult            ....    1
 Number of Electrons    NEL             ....   30
 Basis Dimension        Dim             ....   76

ORBITAL ENERGIES
----------------

  NO   OCC          E(Eh)            E(eV)
   0   2.0000     -19.132796      -520.6298
   1   2.0000     -10.276702      -279.6433
   2   2.0000     -10.226594      -278.2798
   3   2.0000     -10.212883      -277.9067
   4   2.0000      -1.018278       -27.7088
   5   2.0000      -0.806563       -21.9477
   6   2.0000      -0.652699       -17.7608
   7   2.0000      -0.547757       -14.9052
   8   2.0000      -0.511320       -13.9137
   9   2.0000      -0.446679       -12.1548
  10   2.0000      -0.410362       -11.1665
  11   2.0000      -0.385446       -10.4885
  12   2.0000      -0.375400       -10.2152
  13   2.0000      -0.292665        -7.9638
  14   2.0000      -0.246652        -6.7118
  15   0.0000      -0.077536        -2.1099
  16   0.0000       0.048515         1.3201
  17   0.0000       0.069717         1.8971
  18   0.0000       0.083625         2.2756
  19   0.0000       0.117526         3.1980

MULLIKEN ATOMIC CHARGES
-----------------------
   0 C :    0.169203
   1 O :   -0.228583
   2 C :   -0.046356
   3 C :    0.025543
   4 H :   -0.013609
   5 H :   -0.007963
   6 H :    0.064948
   7 H :    0.036816
Sum of atomic charges:   -0.0000000

LOEWDIN ATOMIC CHARGES
----------------------
   0 C :   -0.012869
   1 O :   -0.053831
   2 C :   -0.077500
   3 C :    0.033645
   4 H :    0.000003
   5 H :    0.027026
   6 H :    0.052072
   7 H :    0.031453

  Mayer bond orders larger than 0.100000
B(  0-C ,  1-O ) :   2.1348 B(  0-C ,  2-C ) :   1.0511 B(  0-C ,  4-H ) :   0.9356
B(  2-C ,  3-C ) :   1.9211 B(  2-C ,  5-H ) :   0.9537 B(  3-C ,  6-H ) :   0.9386
B(  3-C ,  7-H ) :   0.9487

-----------------------------------------------------------------------------
         ABSORPTION SPECTRUM VIA TRANSITION ELECTRIC DIPOLE MOMENTS
-----------------------------------------------------------------------------
State   Energy    Wavelength  fosc         T2        TX        TY        TZ
        (cm-1)      (nm)                 (au**2)    (au)      (au)      (au)
-----------------------------------------------------------------------------
   1   24440.5    409.2   0.000104352   0.00141  -0.01511   0.00112   0.03429

FINAL SINGLE POINT ENERGY      -191.677093904008

DIPOLE MOMENT
-------------
                                X             Y             Z
Electronic contribution:     -1.75031      -1.38032      -0.28173
Nuclear contribution   :      2.31868       2.36232       0.37079
                        -----------------------------------------
Total Dipole Moment    :      0.56838       0.98201       0.08907
                        -----------------------------------------
Magnitude (a.u.)       :      1.13812
Magnitude (Debye)      :      2.89288

Rotational constants in cm-1:     0.747523     0.206826     0.162469
Rotational constants in MHz : 22410.162040  6200.487746  4870.711341

                             ****ORCA TERMINATED NORMALLY****
TOTAL RUN TIME: 0 days 0 hours 3 minutes 10 seconds 810 msec
