                         Program Version 5.0.3 -  RELEASE  -
|  1> ! HF-3c
|  2> !TightSCF
|  3> %scf
|  4>  ConvForced true
|  5>  convergence tight
|  6>  MaxIter 500
|  7> end
|  8>
|  9> %tddft
| 10>  nroots 1
| 11> end
| 12>
| 13> # 	6219
| 14> * xyz 0 1
| 15> 		C   -1.215618  -0.358276   0.025818
| 16> 		O   -2.215129  -0.471080   0.611120
| 17> 		C   -0.050525   0.355758   0.355704
| 18> 		C    1.193400   0.092674  -0.316170
| 19> 		H   -1.084402  -0.888926  -0.745735
| 20> 		H   -0.021857   1.167876   1.241635
| 21> 		H    1.355048  -0.557030  -1.110393
| 22> 		H    2.080324   0.689982  -0.061081
| 23> *
| 24>
| 25>                          ****END OF INPUT****

CARTESIAN COORDINATES (ANGSTROEM)
---------------------------------
  C     -1.215618   -0.358276    0.025818
  O     -2.215129   -0.471080    0.611120
  C     -0.050525    0.355758    0.355704
  C      1.193400    0.092674   -0.316170
  H     -1.084402   -0.888926   -0.745735
  H     -0.021857    1.167876    1.241635
  H      1.355048   -0.557030   -1.110393
  H      2.080324    0.689982   -0.061081

 Total Charge           Charge          ....    0
 Multiplicity           Mult            ....    1
 Number of Electrons    NEL             ....   30
 Basis Dimension        Dim             ....   24

ORBITAL ENERGIES
----------------

  NO   OCC          E(Eh)            E(eV)
   0   2.0000     -20.380516      -554.5820
   1   2.0000     -11.315871      -307.9205
   2   2.0000     -11.196559      -304.6739
   3   2.0000     -11.190752      -304.5158
   4   2.0000      -1.441331       -39.2206
   5   2.0000      -1.073815       -29.2200
   6   2.0000      -0.908705       -24.7271
   7   2.0000      -0.805677       -21.9236
   8   2.0000      -0.683739       -18.6055
   9   2.0000      -0.644444       -17.5362
  10   2.0000      -0.580274       -15.7901
  11   2.0000      -0.568916       -15.4810
  12   2.0000      -0.541608       -14.7379
  13   2.0000      -0.421506       -11.4697
  14   2.0000      -0.373342       -10.1591
  15   0.0000       0.107922         2.9367
  16   0.0000       0.310126         8.4390
  17   0.0000       0.521760        14.1978
  18   0.0000       0.618835        16.8393
  19   0.0000       0.681065        18.5327

MULLIKEN ATOMIC CHARGES
-----------------------
   0 C :    0.131074
   1 O :   -0.345811
   2 C :   -0.144192
   3 C :   -0.216941
   4 H :    0.135120
   5 H :    0.155848
   6 H :    0.140954
   7 H :    0.143948
Sum of atomic charges:   -0.0000000

LOEWDIN ATOMIC CHARGES
----------------------
   0 C :    0.121411
   1 O :   -0.238599
   2 C :   -0.116480
   3 C :   -0.113999
   4 H :    0.056435
   5 H :    0.110174
   6 H :    0.086713
   7 H :    0.094343

  Mayer bond orders larger than 0.100000
B(  0-C ,  1-O ) :   1.8749 B(  0-C ,  2-C ) :   1.0655 B(  0-C ,  4-H ) :   0.9304
B(  2-C ,  3-C ) :   1.9016 B(  2-C ,  5-H ) :   0.9536 B(  3-C ,  6-H ) :   0.9693
B(  3-C ,  7-H ) :   0.9691

-----------------------------------------------------------------------------
         ABSORPTION SPECTRUM VIA TRANSITION ELECTRIC DIPOLE MOMENTS
-----------------------------------------------------------------------------
State   Energy    Wavelength  fosc         T2        TX        TY        TZ
        (cm-1)      (nm)                 (au**2)    (au)      (au)      (au)
-----------------------------------------------------------------------------
   1   33128.2    301.9   0.000009826   0.00010   0.00465  -0.00487  -0.00723

Dispersion correction           -0.025389899
FINAL SINGLE POINT ENERGY      -189.276796657752

DIPOLE MOMENT
-------------
                                X             Y             Z
Electronic contribution:     -3.28968      -0.56074       0.88502
Nuclear contribution   :      4.43486       0.78527      -1.28879
                        -----------------------------------------
Total Dipole Moment    :      1.14518       0.22453      -0.40377
                        -----------------------------------------
Magnitude (a.u.)       :      1.23486
Magnitude (Debye)      :      3.13876

Rotational constants in cm-1:     1.647041     0.153755     0.141363
Rotational constants in MHz : 49377.035779  4609.459438  4237.946764

                             ****ORCA TERMINATED NORMALLY****
TOTAL RUN TIME: 0 days 0 hours 0 minutes 9 seconds 675 msec
