                         Program Version 5.0.3 -  RELEASE  -
|  1> ! B3LYP cc-pVDZ
|  2> !TightSCF
|  3> %scf
|  4>  ConvForced true
|  5>  convergence tight
|  6>  MaxIter 500
|  7> end
|  8>
|  9> %tddft
| 10>  nroots 1
| 11> end
| 12>
| 13> # 	17953
| 14> * xyz 0 1
| 15> 		C   -1.200175  -0.252476  -0.051286
| 16> 		O   -1.854151  -0.806843  -0.932578
| 17> 		C    0.054537   0.504504  -0.258217
| 18> 		C    1.223606   0.025546   0.217615
| 19> 		H   -1.479250  -0.457154   0.994254
| 20> 		H    0.096675   1.240343  -0.992065
| 21> 		H    1.118060  -0.789343   0.924011
| 22> 		H    2.076234   0.560723   0.102561
| 23> *
| 24>
| 25>                          ****END OF INPUT****

CARTESIAN COORDINATES (ANGSTROEM)
---------------------------------
  C     -1.200175   -0.252476   -0.051286
  O     -1.854151   -0.806843   -0.932578
  C      0.054537    0.504504   -0.258217
  C      1.223606    0.025546    0.217615
  H     -1.479250   -0.457154    0.994254
  H      0.096675    1.240343   -0.992065
  H      1.118060   -0.789343    0.924011
  H      2.076234    0.560723    0.102561

 Total Charge           Charge          ....    0
 Multiplicity           Mult            ....    1
 Number of Electrons    NEL             ....   30
 Basis Dimension        Dim             ....   76

ORBITAL ENERGIES
----------------

  NO   OCC          E(Eh)            E(eV)
   0   2.0000     -19.143064      -520.9093
   1   2.0000     -10.280302      -279.7412
   2   2.0000     -10.205617      -277.7090
   3   2.0000     -10.204755      -277.6855
   4   2.0000      -1.039158       -28.2769
   5   2.0000      -0.804044       -21.8792
   6   2.0000      -0.654464       -17.8089
   7   2.0000      -0.574041       -15.6204
   8   2.0000      -0.494845       -13.4654
   9   2.0000      -0.464865       -12.6496
  10   2.0000      -0.431051       -11.7295
  11   2.0000      -0.402106       -10.9419
  12   2.0000      -0.374648       -10.1947
  13   2.0000      -0.289185        -7.8691
  14   2.0000      -0.256534        -6.9807
  15   0.0000      -0.058149        -1.5823
  16   0.0000       0.007826         0.2130
  17   0.0000       0.086964         2.3664
  18   0.0000       0.092211         2.5092
  19   0.0000       0.118708         3.2302

MULLIKEN ATOMIC CHARGES
-----------------------
   0 C :    0.171863
   1 O :   -0.198415
   2 C :   -0.069338
   3 C :    0.085171
   4 H :   -0.010047
   5 H :   -0.004475
   6 H :    0.016256
   7 H :    0.008985
Sum of atomic charges:   -0.0000000

LOEWDIN ATOMIC CHARGES
----------------------
   0 C :   -0.012842
   1 O :   -0.010954
   2 C :   -0.042361
   3 C :    0.009314
   4 H :   -0.004263
   5 H :    0.021335
   6 H :    0.028024
   7 H :    0.011748

  Mayer bond orders larger than 0.100000
B(  0-C ,  1-O ) :   2.1897 B(  0-C ,  2-C ) :   1.0170 B(  0-C ,  4-H ) :   0.9193
B(  2-C ,  3-C ) :   2.0037 B(  2-C ,  5-H ) :   0.9435 B(  3-C ,  6-H ) :   0.9467
B(  3-C ,  7-H ) :   0.9443

-----------------------------------------------------------------------------
         ABSORPTION SPECTRUM VIA TRANSITION ELECTRIC DIPOLE MOMENTS
-----------------------------------------------------------------------------
State   Energy    Wavelength  fosc         T2        TX        TY        TZ
        (cm-1)      (nm)                 (au**2)    (au)      (au)      (au)
-----------------------------------------------------------------------------
   1   29966.7    333.7   0.001079848   0.01186  -0.09860   0.00034  -0.04628

FINAL SINGLE POINT ENERGY      -191.652251807289

DIPOLE MOMENT
-------------
                                X             Y             Z
Electronic contribution:     -2.75133      -0.64056      -1.38159
Nuclear contribution   :      3.48009       1.11421       1.95849
                        -----------------------------------------
Total Dipole Moment    :      0.72877       0.47365       0.57690
                        -----------------------------------------
Magnitude (a.u.)       :      1.04320
Magnitude (Debye)      :      2.65160

Rotational constants in cm-1:     1.154989     0.159088     0.154302
Rotational constants in MHz : 34625.685612  4769.352723  4625.845826

                             ****ORCA TERMINATED NORMALLY****
TOTAL RUN TIME: 0 days 0 hours 3 minutes 22 seconds 307 msec
