                         Program Version 5.0.3 -  RELEASE  -
|  1> ! B3LYP cc-pVDZ
|  2> !TightSCF
|  3> %scf
|  4>  ConvForced true
|  5>  convergence tight
|  6>  MaxIter 500
|  7> end
|  8>
|  9> %tddft
| 10>  nroots 1
| 11> end
| 12>
| 13> # 	27751
| 14> * xyz 0 1
| 15> 		C   -0.609240  -0.375709   0.026474
| 16> 		O   -0.566678  -1.656527  -0.027795
| 17> 		C    0.628811   0.419049   0.007901
| 18> 		C    1.878531  -0.145394   0.004707
| 19> 		H   -1.573618  -0.049708   0.125226
| 20> 		H    0.300687   1.539449  -0.245061
| 21> 		H    1.998107  -1.338946   0.186027
| 22> 		H    2.616136   0.618931  -0.112272
| 23> *
| 24>
| 25>                          ****END OF INPUT****

CARTESIAN COORDINATES (ANGSTROEM)
---------------------------------
  C     -0.609240   -0.375709    0.026474
  O     -0.566678   -1.656527   -0.027795
  C      0.628811    0.419049    0.007901
  C      1.878531   -0.145394    0.004707
  H     -1.573618   -0.049708    0.125226
  H      0.300687    1.539449   -0.245061
  H      1.998107   -1.338946    0.186027
  H      2.616136    0.618931   -0.112272

 Total Charge           Charge          ....    0
 Multiplicity           Mult            ....    1
 Number of Electrons    NEL             ....   30
 Basis Dimension        Dim             ....   76

ORBITAL ENERGIES
----------------

  NO   OCC          E(Eh)            E(eV)
   0   2.0000     -19.128423      -520.5109
   1   2.0000     -10.265541      -279.3396
   2   2.0000     -10.229860      -278.3686
   3   2.0000     -10.221148      -278.1316
   4   2.0000      -1.003782       -27.3143
   5   2.0000      -0.786446       -21.4003
   6   2.0000      -0.663154       -18.0453
   7   2.0000      -0.548261       -14.9189
   8   2.0000      -0.493440       -13.4272
   9   2.0000      -0.434037       -11.8107
  10   2.0000      -0.418706       -11.3936
  11   2.0000      -0.377863       -10.2822
  12   2.0000      -0.365639        -9.9496
  13   2.0000      -0.280869        -7.6428
  14   2.0000      -0.248070        -6.7503
  15   0.0000      -0.080675        -2.1953
  16   0.0000       0.045146         1.2285
  17   0.0000       0.058198         1.5836
  18   0.0000       0.072259         1.9663
  19   0.0000       0.118701         3.2300

MULLIKEN ATOMIC CHARGES
-----------------------
   0 C :    0.223337
   1 O :   -0.260623
   2 C :   -0.145303
   3 C :    0.056781
   4 H :   -0.026278
   5 H :    0.023593
   6 H :    0.091750
   7 H :    0.036744
Sum of atomic charges:    0.0000000

LOEWDIN ATOMIC CHARGES
----------------------
   0 C :    0.010310
   1 O :   -0.076053
   2 C :   -0.088416
   3 C :    0.015175
   4 H :   -0.009096
   5 H :    0.044878
   6 H :    0.072615
   7 H :    0.030587

  Mayer bond orders larger than 0.100000
B(  0-C ,  1-O ) :   2.0869 B(  0-C ,  2-C ) :   1.0886 B(  0-C ,  4-H ) :   0.9543
B(  1-O ,  3-C ) :   0.1060 B(  2-C ,  3-C ) :   1.9205 B(  2-C ,  5-H ) :   0.9350
B(  3-C ,  6-H ) :   0.9201 B(  3-C ,  7-H ) :   0.9313

-----------------------------------------------------------------------------
         ABSORPTION SPECTRUM VIA TRANSITION ELECTRIC DIPOLE MOMENTS
-----------------------------------------------------------------------------
State   Energy    Wavelength  fosc         T2        TX        TY        TZ
        (cm-1)      (nm)                 (au**2)    (au)      (au)      (au)
-----------------------------------------------------------------------------
   1   23517.8    425.2   0.000289030   0.00405  -0.05294  -0.00903   0.03408

FINAL SINGLE POINT ENERGY      -191.663546354409

DIPOLE MOMENT
-------------
                                X             Y             Z
Electronic contribution:     -1.63925      -1.55370       0.05381
Nuclear contribution   :      1.97725       2.50886      -0.04218
                        -----------------------------------------
Total Dipole Moment    :      0.33800       0.95516       0.01162
                        -----------------------------------------
Magnitude (a.u.)       :      1.01326
Magnitude (Debye)      :      2.57551

Rotational constants in cm-1:     0.699852     0.208590     0.161142
Rotational constants in MHz : 20981.033263  6253.358277  4830.905639

                             ****ORCA TERMINATED NORMALLY****
TOTAL RUN TIME: 0 days 0 hours 3 minutes 22 seconds 689 msec
