                         Program Version 5.0.3 -  RELEASE  -
|  1> ! HF-3c
|  2> !TightSCF
|  3> %scf
|  4>  ConvForced true
|  5>  convergence tight
|  6>  MaxIter 500
|  7> end
|  8>
|  9> %tddft
| 10>  nroots 1
| 11> end
| 12>
| 13> # 	6225
| 14> * xyz 0 1
| 15> 		C   -1.185730  -0.365710   0.068832
| 16> 		O   -1.344394  -1.522744   0.296354
| 17> 		C    0.033001   0.498200   0.088014
| 18> 		C    1.218016   0.053833  -0.008223
| 19> 		H   -2.148053   0.192916  -0.386745
| 20> 		H   -0.229394   1.489651   0.054035
| 21> 		H    1.480108  -1.011171  -0.128263
| 22> 		H    2.205075   0.710532   0.010839
| 23> *
| 24>
| 25>                          ****END OF INPUT****

CARTESIAN COORDINATES (ANGSTROEM)
---------------------------------
  C     -1.185730   -0.365710    0.068832
  O     -1.344394   -1.522744    0.296354
  C      0.033001    0.498200    0.088014
  C      1.218016    0.053833   -0.008223
  H     -2.148053    0.192916   -0.386745
  H     -0.229394    1.489651    0.054035
  H      1.480108   -1.011171   -0.128263
  H      2.205075    0.710532    0.010839

 Total Charge           Charge          ....    0
 Multiplicity           Mult            ....    1
 Number of Electrons    NEL             ....   30
 Basis Dimension        Dim             ....   24

ORBITAL ENERGIES
----------------

  NO   OCC          E(Eh)            E(eV)
   0   2.0000     -20.370294      -554.3039
   1   2.0000     -11.295846      -307.3756
   2   2.0000     -11.200371      -304.7776
   3   2.0000     -11.198432      -304.7248
   4   2.0000      -1.413018       -38.4502
   5   2.0000      -1.099528       -29.9197
   6   2.0000      -0.882529       -24.0148
   7   2.0000      -0.742593       -20.2070
   8   2.0000      -0.697371       -18.9764
   9   2.0000      -0.632916       -17.2225
  10   2.0000      -0.597549       -16.2601
  11   2.0000      -0.541787       -14.7428
  12   2.0000      -0.522916       -14.2293
  13   2.0000      -0.422011       -11.4835
  14   2.0000      -0.393260       -10.7011
  15   0.0000       0.149730         4.0744
  16   0.0000       0.315220         8.5776
  17   0.0000       0.475151        12.9295
  18   0.0000       0.603848        16.4315
  19   0.0000       0.618854        16.8399

MULLIKEN ATOMIC CHARGES
-----------------------
   0 C :    0.193942
   1 O :   -0.359990
   2 C :   -0.205681
   3 C :   -0.201718
   4 H :    0.120844
   5 H :    0.148220
   6 H :    0.153971
   7 H :    0.150413
Sum of atomic charges:   -0.0000000

LOEWDIN ATOMIC CHARGES
----------------------
   0 C :    0.157678
   1 O :   -0.256763
   2 C :   -0.153262
   3 C :   -0.110569
   4 H :    0.065741
   5 H :    0.090619
   6 H :    0.101089
   7 H :    0.105468

  Mayer bond orders larger than 0.100000
B(  0-C ,  1-O ) :   1.9283 B(  0-C ,  2-C ) :   0.9971 B(  0-C ,  4-H ) :   0.9126
B(  2-C ,  3-C ) :   1.9730 B(  2-C ,  5-H ) :   0.9541 B(  3-C ,  6-H ) :   0.9572
B(  3-C ,  7-H ) :   0.9553

-----------------------------------------------------------------------------
         ABSORPTION SPECTRUM VIA TRANSITION ELECTRIC DIPOLE MOMENTS
-----------------------------------------------------------------------------
State   Energy    Wavelength  fosc         T2        TX        TY        TZ
        (cm-1)      (nm)                 (au**2)    (au)      (au)      (au)
-----------------------------------------------------------------------------
   1   33739.3    296.4   0.000076385   0.00075  -0.01995   0.00308   0.01838

Dispersion correction           -0.025302668
FINAL SINGLE POINT ENERGY      -189.316733991070

DIPOLE MOMENT
-------------
                                X             Y             Z
Electronic contribution:     -2.00802      -1.77107       0.56759
Nuclear contribution   :      2.51113       2.66712      -0.82601
                        -----------------------------------------
Total Dipole Moment    :      0.50310       0.89606      -0.25842
                        -----------------------------------------
Magnitude (a.u.)       :      1.05963
Magnitude (Debye)      :      2.69336

Rotational constants in cm-1:     0.878026     0.189515     0.157276
Rotational constants in MHz : 26322.554677  5681.530459  4715.021978

                             ****ORCA TERMINATED NORMALLY****
TOTAL RUN TIME: 0 days 0 hours 0 minutes 11 seconds 885 msec
