                         Program Version 5.0.3 -  RELEASE  -
|  1> ! B3LYP cc-pVDZ
|  2> !TightSCF
|  3> %scf
|  4>  ConvForced true
|  5>  convergence tight
|  6>  MaxIter 500
|  7> end
|  8>
|  9> %tddft
| 10>  nroots 1
| 11> end
| 12>
| 13> # 	1534
| 14> * xyz 0 1
| 15> 		C   -1.214339  -0.296594  -0.034840
| 16> 		O   -1.873217  -0.918591   0.822615
| 17> 		C   -0.001875   0.469472   0.224203
| 18> 		C    1.132587   0.091736  -0.233187
| 19> 		H   -1.418965  -0.285440  -1.020521
| 20> 		H   -0.132398   1.144501   0.972956
| 21> 		H    1.222937  -0.671508  -0.864507
| 22> 		H    2.271553   0.427264   0.118946
| 23> *
| 24>
| 25>                          ****END OF INPUT****

CARTESIAN COORDINATES (ANGSTROEM)
---------------------------------
  C     -1.214339   -0.296594   -0.034840
  O     -1.873217   -0.918591    0.822615
  C     -0.001875    0.469472    0.224203
  C      1.132587    0.091736   -0.233187
  H     -1.418965   -0.285440   -1.020521
  H     -0.132398    1.144501    0.972956
  H      1.222937   -0.671508   -0.864507
  H      2.271553    0.427264    0.118946

 Total Charge           Charge          ....    0
 Multiplicity           Mult            ....    1
 Number of Electrons    NEL             ....   30
 Basis Dimension        Dim             ....   76

ORBITAL ENERGIES
----------------

  NO   OCC          E(Eh)            E(eV)
   0   2.0000     -19.144100      -520.9375
   1   2.0000     -10.272777      -279.5365
   2   2.0000     -10.209337      -277.8102
   3   2.0000     -10.193944      -277.3913
   4   2.0000      -1.029667       -28.0187
   5   2.0000      -0.819863       -22.3096
   6   2.0000      -0.664603       -18.0848
   7   2.0000      -0.591333       -16.0910
   8   2.0000      -0.488516       -13.2932
   9   2.0000      -0.474299       -12.9063
  10   2.0000      -0.439801       -11.9676
  11   2.0000      -0.379318       -10.3218
  12   2.0000      -0.369253       -10.0479
  13   2.0000      -0.298012        -8.1093
  14   2.0000      -0.257191        -6.9985
  15   0.0000      -0.052800        -1.4368
  16   0.0000       0.008202         0.2232
  17   0.0000       0.070164         1.9093
  18   0.0000       0.100555         2.7362
  19   0.0000       0.123538         3.3616

MULLIKEN ATOMIC CHARGES
-----------------------
   0 C :    0.215349
   1 O :   -0.220351
   2 C :   -0.018172
   3 C :    0.033309
   4 H :   -0.027761
   5 H :   -0.019634
   6 H :   -0.016309
   7 H :    0.053568
Sum of atomic charges:   -0.0000000

LOEWDIN ATOMIC CHARGES
----------------------
   0 C :    0.019853
   1 O :   -0.024853
   2 C :   -0.048483
   3 C :   -0.005408
   4 H :   -0.019240
   5 H :    0.020969
   6 H :    0.000152
   7 H :    0.057011

  Mayer bond orders larger than 0.100000
B(  0-C ,  1-O ) :   2.1782 B(  0-C ,  2-C ) :   1.0303 B(  0-C ,  4-H ) :   0.9326
B(  2-C ,  3-C ) :   2.0085 B(  2-C ,  5-H ) :   0.9411 B(  3-C ,  6-H ) :   0.9366
B(  3-C ,  7-H ) :   0.9451

-----------------------------------------------------------------------------
         ABSORPTION SPECTRUM VIA TRANSITION ELECTRIC DIPOLE MOMENTS
-----------------------------------------------------------------------------
State   Energy    Wavelength  fosc         T2        TX        TY        TZ
        (cm-1)      (nm)                 (au**2)    (au)      (au)      (au)
-----------------------------------------------------------------------------
   1   30368.8    329.3   0.000079171   0.00086  -0.02685  -0.00781   0.00875

FINAL SINGLE POINT ENERGY      -191.618987911735

DIPOLE MOMENT
-------------
                                X             Y             Z
Electronic contribution:     -3.03089      -0.82866       0.96034
Nuclear contribution   :      3.74512       1.29560      -1.52725
                        -----------------------------------------
Total Dipole Moment    :      0.71423       0.46694      -0.56691
                        -----------------------------------------
Magnitude (a.u.)       :      1.02447
Magnitude (Debye)      :      2.60400

Rotational constants in cm-1:     1.209240     0.160945     0.158272
Rotational constants in MHz : 36252.096813  4825.008621  4744.885663

                             ****ORCA TERMINATED NORMALLY****
TOTAL RUN TIME: 0 days 0 hours 3 minutes 21 seconds 927 msec
