                         Program Version 5.0.3 -  RELEASE  -
|  1> ! HF-3c
|  2> !TightSCF
|  3> %scf
|  4>  ConvForced true
|  5>  convergence tight
|  6>  MaxIter 500
|  7> end
|  8>
|  9> %tddft
| 10>  nroots 1
| 11> end
| 12>
| 13> # 	18771
| 14> * xyz 0 1
| 15> 		C   -1.215404  -0.392913   0.022619
| 16> 		O   -1.631697  -1.181390   0.791510
| 17> 		C    0.028643   0.467698   0.229077
| 18> 		C    1.190641   0.055940  -0.133525
| 19> 		H   -1.878802  -0.222660  -0.935285
| 20> 		H   -0.118269   1.368049   0.606048
| 21> 		H    1.470492  -0.745101  -0.585030
| 22> 		H    2.095613   0.676177  -0.018408
| 23> *
| 24>
| 25>                          ****END OF INPUT****

CARTESIAN COORDINATES (ANGSTROEM)
---------------------------------
  C     -1.215404   -0.392913    0.022619
  O     -1.631697   -1.181390    0.791510
  C      0.028643    0.467698    0.229077
  C      1.190641    0.055940   -0.133525
  H     -1.878802   -0.222660   -0.935285
  H     -0.118269    1.368049    0.606048
  H      1.470492   -0.745101   -0.585030
  H      2.095613    0.676177   -0.018408

 Total Charge           Charge          ....    0
 Multiplicity           Mult            ....    1
 Number of Electrons    NEL             ....   30
 Basis Dimension        Dim             ....   24

ORBITAL ENERGIES
----------------

  NO   OCC          E(Eh)            E(eV)
   0   2.0000     -20.386261      -554.7384
   1   2.0000     -11.308179      -307.7112
   2   2.0000     -11.209481      -305.0255
   3   2.0000     -11.195371      -304.6415
   4   2.0000      -1.433011       -38.9942
   5   2.0000      -1.103734       -30.0341
   6   2.0000      -0.889081       -24.1931
   7   2.0000      -0.785450       -21.3732
   8   2.0000      -0.702574       -19.1180
   9   2.0000      -0.665126       -18.0990
  10   2.0000      -0.621213       -16.9041
  11   2.0000      -0.556374       -15.1397
  12   2.0000      -0.527467       -14.3531
  13   2.0000      -0.430833       -11.7236
  14   2.0000      -0.403173       -10.9709
  15   0.0000       0.203461         5.5365
  16   0.0000       0.216571         5.8932
  17   0.0000       0.499990        13.6054
  18   0.0000       0.628598        17.1050
  19   0.0000       0.699369        19.0308

MULLIKEN ATOMIC CHARGES
-----------------------
   0 C :    0.195704
   1 O :   -0.350272
   2 C :   -0.175401
   3 C :   -0.254400
   4 H :    0.136927
   5 H :    0.155944
   6 H :    0.143535
   7 H :    0.147962
Sum of atomic charges:    0.0000000

LOEWDIN ATOMIC CHARGES
----------------------
   0 C :    0.158321
   1 O :   -0.241995
   2 C :   -0.116683
   3 C :   -0.151792
   4 H :    0.078076
   5 H :    0.093754
   6 H :    0.082560
   7 H :    0.097760

  Mayer bond orders larger than 0.100000
B(  0-C ,  1-O ) :   1.9626 B(  0-C ,  2-C ) :   0.9639 B(  0-C ,  4-H ) :   0.9081
B(  2-C ,  3-C ) :   2.0088 B(  2-C ,  5-H ) :   0.9530 B(  3-C ,  6-H ) :   0.9675
B(  3-C ,  7-H ) :   0.9584

-----------------------------------------------------------------------------
         ABSORPTION SPECTRUM VIA TRANSITION ELECTRIC DIPOLE MOMENTS
-----------------------------------------------------------------------------
State   Energy    Wavelength  fosc         T2        TX        TY        TZ
        (cm-1)      (nm)                 (au**2)    (au)      (au)      (au)
-----------------------------------------------------------------------------
   1   36761.3    272.0   0.000111818   0.00100   0.03105  -0.00547   0.00273

Dispersion correction           -0.025182809
FINAL SINGLE POINT ENERGY      -189.286377935653

DIPOLE MOMENT
-------------
                                X             Y             Z
Electronic contribution:     -2.64072      -1.42662       1.12624
Nuclear contribution   :      3.09277       2.08416      -1.74649
                        -----------------------------------------
Total Dipole Moment    :      0.45206       0.65754      -0.62025
                        -----------------------------------------
Magnitude (a.u.)       :      1.01066
Magnitude (Debye)      :      2.56888

Rotational constants in cm-1:     1.051797     0.167501     0.158970
Rotational constants in MHz : 31532.067354  5021.554873  4765.807699

                             ****ORCA TERMINATED NORMALLY****
TOTAL RUN TIME: 0 days 0 hours 0 minutes 12 seconds 62 msec
