                         Program Version 5.0.3 -  RELEASE  -
|  1> ! HF-3c
|  2> !TightSCF
|  3> %scf
|  4>  ConvForced true
|  5>  convergence tight
|  6>  MaxIter 500
|  7> end
|  8>
|  9> %tddft
| 10>  nroots 1
| 11> end
| 12>
| 13> # 	12662
| 14> * xyz 0 1
| 15> 		C   -1.200698  -0.316712  -0.066743
| 16> 		O   -1.172993  -1.459360   0.186792
| 17> 		C    0.013188   0.498292   0.090020
| 18> 		C    1.256993  -0.038771  -0.135688
| 19> 		H   -2.066243   0.159489  -0.570044
| 20> 		H   -0.262526   1.565999   0.382348
| 21> 		H    1.441370  -1.052388  -0.090793
| 22> 		H    2.025671   0.599678   0.199100
| 23> *
| 24>
| 25>                          ****END OF INPUT****

CARTESIAN COORDINATES (ANGSTROEM)
---------------------------------
  C     -1.200698   -0.316712   -0.066743
  O     -1.172993   -1.459360    0.186792
  C      0.013188    0.498292    0.090020
  C      1.256993   -0.038771   -0.135688
  H     -2.066243    0.159489   -0.570044
  H     -0.262526    1.565999    0.382348
  H      1.441370   -1.052388   -0.090793
  H      2.025671    0.599678    0.199100

 Total Charge           Charge          ....    0
 Multiplicity           Mult            ....    1
 Number of Electrons    NEL             ....   30
 Basis Dimension        Dim             ....   24

ORBITAL ENERGIES
----------------

  NO   OCC          E(Eh)            E(eV)
   0   2.0000     -20.378773      -554.5346
   1   2.0000     -11.303152      -307.5744
   2   2.0000     -11.188067      -304.4428
   3   2.0000     -11.180722      -304.2429
   4   2.0000      -1.436078       -39.0777
   5   2.0000      -1.067486       -29.0478
   6   2.0000      -0.898838       -24.4586
   7   2.0000      -0.753883       -20.5142
   8   2.0000      -0.699652       -19.0385
   9   2.0000      -0.622985       -16.9523
  10   2.0000      -0.610568       -16.6144
  11   2.0000      -0.553587       -15.0639
  12   2.0000      -0.530548       -14.4369
  13   2.0000      -0.409359       -11.1392
  14   2.0000      -0.387540       -10.5455
  15   0.0000       0.135898         3.6980
  16   0.0000       0.278368         7.5748
  17   0.0000       0.556104        15.1324
  18   0.0000       0.613318        16.6892
  19   0.0000       0.712768        19.3954

MULLIKEN ATOMIC CHARGES
-----------------------
   0 C :    0.166748
   1 O :   -0.352703
   2 C :   -0.139240
   3 C :   -0.254941
   4 H :    0.136257
   5 H :    0.142238
   6 H :    0.158216
   7 H :    0.143424
Sum of atomic charges:    0.0000000

LOEWDIN ATOMIC CHARGES
----------------------
   0 C :    0.138244
   1 O :   -0.244366
   2 C :   -0.099377
   3 C :   -0.154192
   4 H :    0.072146
   5 H :    0.094698
   6 H :    0.100798
   7 H :    0.092048

  Mayer bond orders larger than 0.100000
B(  0-C ,  1-O ) :   1.9188 B(  0-C ,  2-C ) :   1.0128 B(  0-C ,  4-H ) :   0.9178
B(  2-C ,  3-C ) :   1.9556 B(  2-C ,  5-H ) :   0.9584 B(  3-C ,  6-H ) :   0.9618
B(  3-C ,  7-H ) :   0.9655

-----------------------------------------------------------------------------
         ABSORPTION SPECTRUM VIA TRANSITION ELECTRIC DIPOLE MOMENTS
-----------------------------------------------------------------------------
State   Energy    Wavelength  fosc         T2        TX        TY        TZ
        (cm-1)      (nm)                 (au**2)    (au)      (au)      (au)
-----------------------------------------------------------------------------
   1   33990.3    294.2   0.000112882   0.00109   0.03290  -0.00118   0.00305

Dispersion correction           -0.025795438
FINAL SINGLE POINT ENERGY      -189.309259536156

DIPOLE MOMENT
-------------
                                X             Y             Z
Electronic contribution:     -2.04997      -1.63615       0.07810
Nuclear contribution   :      2.17849       2.54003      -0.17644
                        -----------------------------------------
Total Dipole Moment    :      0.12852       0.90388      -0.09833
                        -----------------------------------------
Magnitude (a.u.)       :      0.91825
Magnitude (Debye)      :      2.33401

Rotational constants in cm-1:     0.755172     0.213177     0.170399
Rotational constants in MHz : 22639.482654  6390.887396  5108.425894

                             ****ORCA TERMINATED NORMALLY****
TOTAL RUN TIME: 0 days 0 hours 0 minutes 15 seconds 934 msec
