                         Program Version 5.0.3 -  RELEASE  -
|  1> ! HF-3c
|  2> !TightSCF
|  3> %scf
|  4>  ConvForced true
|  5>  convergence tight
|  6>  MaxIter 500
|  7> end
|  8>
|  9> %tddft
| 10>  nroots 1
| 11> end
| 12>
| 13> # 	17715
| 14> * xyz 0 1
| 15> 		C   -1.196787  -0.350798   0.004706
| 16> 		O   -2.076913  -0.493394   0.776404
| 17> 		C    0.059465   0.464666   0.334592
| 18> 		C    1.202442   0.109234  -0.218647
| 19> 		H   -1.225935  -0.855486  -1.071820
| 20> 		H   -0.063292   1.054631   1.113723
| 21> 		H    1.357456  -0.529227  -1.025338
| 22> 		H    1.980332   0.635126   0.068459
| 23> *
| 24>
| 25>                          ****END OF INPUT****

CARTESIAN COORDINATES (ANGSTROEM)
---------------------------------
  C     -1.196787   -0.350798    0.004706
  O     -2.076913   -0.493394    0.776404
  C      0.059465    0.464666    0.334592
  C      1.202442    0.109234   -0.218647
  H     -1.225935   -0.855486   -1.071820
  H     -0.063292    1.054631    1.113723
  H      1.357456   -0.529227   -1.025338
  H      1.980332    0.635126    0.068459

 Total Charge           Charge          ....    0
 Multiplicity           Mult            ....    1
 Number of Electrons    NEL             ....   30
 Basis Dimension        Dim             ....   24

ORBITAL ENERGIES
----------------

  NO   OCC          E(Eh)            E(eV)
   0   2.0000     -20.379648      -554.5584
   1   2.0000     -11.303566      -307.5857
   2   2.0000     -11.203619      -304.8660
   3   2.0000     -11.200513      -304.7814
   4   2.0000      -1.428495       -38.8713
   5   2.0000      -1.100898       -29.9570
   6   2.0000      -0.886390       -24.1199
   7   2.0000      -0.789679       -21.4883
   8   2.0000      -0.679956       -18.5026
   9   2.0000      -0.669528       -18.2188
  10   2.0000      -0.603341       -16.4178
  11   2.0000      -0.573100       -15.5948
  12   2.0000      -0.549344       -14.9484
  13   2.0000      -0.415869       -11.3164
  14   2.0000      -0.403267       -10.9734
  15   0.0000       0.144836         3.9412
  16   0.0000       0.285123         7.7586
  17   0.0000       0.513049        13.9608
  18   0.0000       0.608212        16.5503
  19   0.0000       0.703926        19.1548

MULLIKEN ATOMIC CHARGES
-----------------------
   0 C :    0.197762
   1 O :   -0.361013
   2 C :   -0.164428
   3 C :   -0.260367
   4 H :    0.132582
   5 H :    0.156910
   6 H :    0.151576
   7 H :    0.146977
Sum of atomic charges:    0.0000000

LOEWDIN ATOMIC CHARGES
----------------------
   0 C :    0.158183
   1 O :   -0.252831
   2 C :   -0.108512
   3 C :   -0.149058
   4 H :    0.075260
   5 H :    0.092519
   6 H :    0.096505
   7 H :    0.087934

  Mayer bond orders larger than 0.100000
B(  0-C ,  1-O ) :   1.9362 B(  0-C ,  2-C ) :   0.9851 B(  0-C ,  4-H ) :   0.9096
B(  2-C ,  3-C ) :   1.9724 B(  2-C ,  5-H ) :   0.9597 B(  3-C ,  6-H ) :   0.9646
B(  3-C ,  7-H ) :   0.9653

-----------------------------------------------------------------------------
         ABSORPTION SPECTRUM VIA TRANSITION ELECTRIC DIPOLE MOMENTS
-----------------------------------------------------------------------------
State   Energy    Wavelength  fosc         T2        TX        TY        TZ
        (cm-1)      (nm)                 (au**2)    (au)      (au)      (au)
-----------------------------------------------------------------------------
   1   35535.2    281.4   0.000113489   0.00105   0.03101   0.00022  -0.00946

Dispersion correction           -0.025638637
FINAL SINGLE POINT ENERGY      -189.302935802242

DIPOLE MOMENT
-------------
                                X             Y             Z
Electronic contribution:     -3.09160      -0.50256       1.09241
Nuclear contribution   :      3.93282       0.60861      -1.71707
                        -----------------------------------------
Total Dipole Moment    :      0.84123       0.10605      -0.62465
                        -----------------------------------------
Magnitude (a.u.)       :      1.05314
Magnitude (Debye)      :      2.67687

Rotational constants in cm-1:     1.420631     0.158644     0.146079
Rotational constants in MHz : 42589.455428  4756.024649  4379.350445

                             ****ORCA TERMINATED NORMALLY****
TOTAL RUN TIME: 0 days 0 hours 0 minutes 11 seconds 745 msec
