                         Program Version 5.0.3 -  RELEASE  -
|  1> ! HF-3c
|  2> !TightSCF
|  3> %scf
|  4>  ConvForced true
|  5>  convergence tight
|  6>  MaxIter 500
|  7> end
|  8>
|  9> %tddft
| 10>  nroots 1
| 11> end
| 12>
| 13> # 	14989
| 14> * xyz 0 1
| 15> 		C   -1.226093  -0.349656   0.011336
| 16> 		O   -1.782963  -1.010284   0.834719
| 17> 		C    0.007680   0.431426   0.290895
| 18> 		C    1.218055   0.080667  -0.136103
| 19> 		H   -1.574069  -0.323489  -1.075861
| 20> 		H   -0.140702   1.439982   0.740872
| 21> 		H    1.326224  -0.857312  -0.727043
| 22> 		H    2.164133   0.640982   0.054532
| 23> *
| 24>
| 25>                          ****END OF INPUT****

CARTESIAN COORDINATES (ANGSTROEM)
---------------------------------
  C     -1.226093   -0.349656    0.011336
  O     -1.782963   -1.010284    0.834719
  C      0.007680    0.431426    0.290895
  C      1.218055    0.080667   -0.136103
  H     -1.574069   -0.323489   -1.075861
  H     -0.140702    1.439982    0.740872
  H      1.326224   -0.857312   -0.727043
  H      2.164133    0.640982    0.054532

 Total Charge           Charge          ....    0
 Multiplicity           Mult            ....    1
 Number of Electrons    NEL             ....   30
 Basis Dimension        Dim             ....   24

ORBITAL ENERGIES
----------------

  NO   OCC          E(Eh)            E(eV)
   0   2.0000     -20.382957      -554.6485
   1   2.0000     -11.305912      -307.6495
   2   2.0000     -11.187404      -304.4247
   3   2.0000     -11.178921      -304.1939
   4   2.0000      -1.420825       -38.6626
   5   2.0000      -1.073852       -29.2210
   6   2.0000      -0.875886       -23.8341
   7   2.0000      -0.758327       -20.6351
   8   2.0000      -0.677715       -18.4416
   9   2.0000      -0.639430       -17.3998
  10   2.0000      -0.606181       -16.4950
  11   2.0000      -0.542336       -14.7577
  12   2.0000      -0.506643       -13.7865
  13   2.0000      -0.414470       -11.2783
  14   2.0000      -0.396428       -10.7873
  15   0.0000       0.185015         5.0345
  16   0.0000       0.225775         6.1437
  17   0.0000       0.542387        14.7591
  18   0.0000       0.605648        16.4805
  19   0.0000       0.638776        17.3820

MULLIKEN ATOMIC CHARGES
-----------------------
   0 C :    0.177944
   1 O :   -0.344462
   2 C :   -0.167802
   3 C :   -0.235229
   4 H :    0.139194
   5 H :    0.151397
   6 H :    0.134392
   7 H :    0.144566
Sum of atomic charges:    0.0000000

LOEWDIN ATOMIC CHARGES
----------------------
   0 C :    0.153025
   1 O :   -0.242478
   2 C :   -0.125422
   3 C :   -0.148273
   4 H :    0.077568
   5 H :    0.101401
   6 H :    0.087767
   7 H :    0.096412

  Mayer bond orders larger than 0.100000
B(  0-C ,  1-O ) :   1.9511 B(  0-C ,  2-C ) :   0.9862 B(  0-C ,  4-H ) :   0.9116
B(  2-C ,  3-C ) :   1.9978 B(  2-C ,  5-H ) :   0.9470 B(  3-C ,  6-H ) :   0.9650
B(  3-C ,  7-H ) :   0.9627

-----------------------------------------------------------------------------
         ABSORPTION SPECTRUM VIA TRANSITION ELECTRIC DIPOLE MOMENTS
-----------------------------------------------------------------------------
State   Energy    Wavelength  fosc         T2        TX        TY        TZ
        (cm-1)      (nm)                 (au**2)    (au)      (au)      (au)
-----------------------------------------------------------------------------
   1   35550.7    281.3   0.000023393   0.00022  -0.00401   0.00472  -0.01335

Dispersion correction           -0.024949943
FINAL SINGLE POINT ENERGY      -189.321959286905

DIPOLE MOMENT
-------------
                                X             Y             Z
Electronic contribution:     -2.86046      -1.16575       1.21558
Nuclear contribution   :      3.43638       1.72367      -1.89614
                        -----------------------------------------
Total Dipole Moment    :      0.57592       0.55792      -0.68056
                        -----------------------------------------
Magnitude (a.u.)       :      1.05172
Magnitude (Debye)      :      2.67327

Rotational constants in cm-1:     1.100485     0.159828     0.156430
Rotational constants in MHz : 32991.704676  4791.537378  4689.650215

                             ****ORCA TERMINATED NORMALLY****
TOTAL RUN TIME: 0 days 0 hours 0 minutes 12 seconds 791 msec
