                         Program Version 5.0.3 -  RELEASE  -
|  1> ! B3LYP cc-pVDZ
|  2> !TightSCF
|  3> %scf
|  4>  ConvForced true
|  5>  convergence tight
|  6>  MaxIter 500
|  7> end
|  8>
|  9> %tddft
| 10>  nroots 1
| 11> end
| 12>
| 13> # 	24729
| 14> * xyz 0 1
| 15> 		C   -0.604940  -0.438485   0.010678
| 16> 		O   -0.581896  -1.617347  -0.006641
| 17> 		C    0.626781   0.433201  -0.066804
| 18> 		C    1.850497  -0.134504   0.029880
| 19> 		H   -1.600155  -0.103790   0.228612
| 20> 		H    0.485572   1.449104   0.143269
| 21> 		H    2.222122  -1.188517   0.010052
| 22> 		H    2.774519   0.435686   0.040839
| 23> *
| 24>
| 25>                          ****END OF INPUT****

CARTESIAN COORDINATES (ANGSTROEM)
---------------------------------
  C     -0.604940   -0.438485    0.010678
  O     -0.581896   -1.617347   -0.006641
  C      0.626781    0.433201   -0.066804
  C      1.850497   -0.134504    0.029880
  H     -1.600155   -0.103790    0.228612
  H      0.485572    1.449104    0.143269
  H      2.222122   -1.188517    0.010052
  H      2.774519    0.435686    0.040839

 Total Charge           Charge          ....    0
 Multiplicity           Mult            ....    1
 Number of Electrons    NEL             ....   30
 Basis Dimension        Dim             ....   76

ORBITAL ENERGIES
----------------

  NO   OCC          E(Eh)            E(eV)
   0   2.0000     -19.128728      -520.5192
   1   2.0000     -10.265526      -279.3392
   2   2.0000     -10.217645      -278.0363
   3   2.0000     -10.207514      -277.7606
   4   2.0000      -1.060042       -28.8452
   5   2.0000      -0.787515       -21.4294
   6   2.0000      -0.649560       -17.6754
   7   2.0000      -0.556965       -15.1558
   8   2.0000      -0.506780       -13.7902
   9   2.0000      -0.455026       -12.3819
  10   2.0000      -0.424352       -11.5472
  11   2.0000      -0.402654       -10.9568
  12   2.0000      -0.372455       -10.1350
  13   2.0000      -0.286641        -7.7999
  14   2.0000      -0.246188        -6.6991
  15   0.0000      -0.064108        -1.7445
  16   0.0000       0.055118         1.4998
  17   0.0000       0.075670         2.0591
  18   0.0000       0.088113         2.3977
  19   0.0000       0.121790         3.3141

MULLIKEN ATOMIC CHARGES
-----------------------
   0 C :    0.177882
   1 O :   -0.168126
   2 C :   -0.072866
   3 C :    0.038230
   4 H :   -0.037379
   5 H :   -0.009441
   6 H :    0.045731
   7 H :    0.025969
Sum of atomic charges:    0.0000000

LOEWDIN ATOMIC CHARGES
----------------------
   0 C :   -0.048994
   1 O :    0.020980
   2 C :   -0.074916
   3 C :    0.026282
   4 H :   -0.011666
   5 H :    0.019826
   6 H :    0.040084
   7 H :    0.028405

  Mayer bond orders larger than 0.100000
B(  0-C ,  1-O ) :   2.2260 B(  0-C ,  2-C ) :   1.0085 B(  0-C ,  4-H ) :   0.9395
B(  2-C ,  3-C ) :   1.9520 B(  2-C ,  5-H ) :   0.9417 B(  3-C ,  6-H ) :   0.9568
B(  3-C ,  7-H ) :   0.9525

-----------------------------------------------------------------------------
         ABSORPTION SPECTRUM VIA TRANSITION ELECTRIC DIPOLE MOMENTS
-----------------------------------------------------------------------------
State   Energy    Wavelength  fosc         T2        TX        TY        TZ
        (cm-1)      (nm)                 (au**2)    (au)      (au)      (au)
-----------------------------------------------------------------------------
   1   27494.6    363.7   0.000522421   0.00626  -0.07393  -0.02064  -0.01907

FINAL SINGLE POINT ENERGY      -191.661443385377

DIPOLE MOMENT
-------------
                                X             Y             Z
Electronic contribution:     -2.08843      -1.53076      -0.30687
Nuclear contribution   :      2.48487       2.34349       0.39622
                        -----------------------------------------
Total Dipole Moment    :      0.39644       0.81273       0.08936
                        -----------------------------------------
Magnitude (a.u.)       :      0.90867
Magnitude (Debye)      :      2.30965

Rotational constants in cm-1:     0.765122     0.206418     0.163006
Rotational constants in MHz : 22937.768181  6188.252583  4886.785725

                             ****ORCA TERMINATED NORMALLY****
TOTAL RUN TIME: 0 days 0 hours 3 minutes 21 seconds 532 msec
