                         Program Version 5.0.3 -  RELEASE  -
|  1> ! HF-3c
|  2> !TightSCF
|  3> %scf
|  4>  ConvForced true
|  5>  convergence tight
|  6>  MaxIter 500
|  7> end
|  8>
|  9> %tddft
| 10>  nroots 1
| 11> end
| 12>
| 13> # 	25841
| 14> * xyz 0 1
| 15> 		C   -0.655226  -0.443656   0.014446
| 16> 		O   -0.552843  -1.600812  -0.019305
| 17> 		C    0.652765   0.393451   0.002911
| 18> 		C    1.863753  -0.139991   0.018715
| 19> 		H   -1.608883   0.202015   0.081740
| 20> 		H    0.418659   1.461374  -0.131899
| 21> 		H    2.189732  -1.259563   0.114482
| 22> 		H    2.543267   0.572153  -0.207736
| 23> *
| 24>
| 25>                          ****END OF INPUT****

CARTESIAN COORDINATES (ANGSTROEM)
---------------------------------
  C     -0.655226   -0.443656    0.014446
  O     -0.552843   -1.600812   -0.019305
  C      0.652765    0.393451    0.002911
  C      1.863753   -0.139991    0.018715
  H     -1.608883    0.202015    0.081740
  H      0.418659    1.461374   -0.131899
  H      2.189732   -1.259563    0.114482
  H      2.543267    0.572153   -0.207736

 Total Charge           Charge          ....    0
 Multiplicity           Mult            ....    1
 Number of Electrons    NEL             ....   30
 Basis Dimension        Dim             ....   24

ORBITAL ENERGIES
----------------

  NO   OCC          E(Eh)            E(eV)
   0   2.0000     -20.382716      -554.6419
   1   2.0000     -11.303454      -307.5826
   2   2.0000     -11.179959      -304.2222
   3   2.0000     -11.174452      -304.0723
   4   2.0000      -1.439553       -39.1722
   5   2.0000      -1.065768       -29.0010
   6   2.0000      -0.876338       -23.8464
   7   2.0000      -0.739103       -20.1120
   8   2.0000      -0.693020       -18.8580
   9   2.0000      -0.616595       -16.7784
  10   2.0000      -0.599576       -16.3153
  11   2.0000      -0.556815       -15.1517
  12   2.0000      -0.534983       -14.5576
  13   2.0000      -0.398606       -10.8466
  14   2.0000      -0.391553       -10.6547
  15   0.0000       0.153136         4.1670
  16   0.0000       0.311675         8.4811
  17   0.0000       0.498690        13.5701
  18   0.0000       0.582490        15.8504
  19   0.0000       0.633912        17.2496

MULLIKEN ATOMIC CHARGES
-----------------------
   0 C :    0.190218
   1 O :   -0.361980
   2 C :   -0.159562
   3 C :   -0.245738
   4 H :    0.136414
   5 H :    0.132032
   6 H :    0.168566
   7 H :    0.140051
Sum of atomic charges:   -0.0000000

LOEWDIN ATOMIC CHARGES
----------------------
   0 C :    0.151112
   1 O :   -0.247263
   2 C :   -0.122654
   3 C :   -0.147140
   4 H :    0.075897
   5 H :    0.083330
   6 H :    0.120821
   7 H :    0.085898

  Mayer bond orders larger than 0.100000
B(  0-C ,  1-O ) :   1.9392 B(  0-C ,  2-C ) :   0.9766 B(  0-C ,  4-H ) :   0.9110
B(  2-C ,  3-C ) :   1.9771 B(  2-C ,  5-H ) :   0.9625 B(  3-C ,  6-H ) :   0.9548
B(  3-C ,  7-H ) :   0.9651

-----------------------------------------------------------------------------
         ABSORPTION SPECTRUM VIA TRANSITION ELECTRIC DIPOLE MOMENTS
-----------------------------------------------------------------------------
State   Energy    Wavelength  fosc         T2        TX        TY        TZ
        (cm-1)      (nm)                 (au**2)    (au)      (au)      (au)
-----------------------------------------------------------------------------
   1   35146.4    284.5   0.000054195   0.00051  -0.02113  -0.00009  -0.00782

Dispersion correction           -0.025349555
FINAL SINGLE POINT ENERGY      -189.309155379342

DIPOLE MOMENT
-------------
                                X             Y             Z
Electronic contribution:     -2.05754      -1.84443       0.11526
Nuclear contribution   :      2.16765       2.70045      -0.13348
                        -----------------------------------------
Total Dipole Moment    :      0.11011       0.85602      -0.01821
                        -----------------------------------------
Magnitude (a.u.)       :      0.86327
Magnitude (Debye)      :      2.19425

Rotational constants in cm-1:     0.746346     0.210503     0.164493
Rotational constants in MHz : 22374.879309  6310.719948  4931.374643

                             ****ORCA TERMINATED NORMALLY****
TOTAL RUN TIME: 0 days 0 hours 0 minutes 16 seconds 10 msec
