                         Program Version 5.0.3 -  RELEASE  -
|  1> ! HF-3c
|  2> !TightSCF
|  3> %scf
|  4>  ConvForced true
|  5>  convergence tight
|  6>  MaxIter 500
|  7> end
|  8>
|  9> %tddft
| 10>  nroots 1
| 11> end
| 12>
| 13> # 	20888
| 14> * xyz 0 1
| 15> 		C   -0.564430  -0.417159  -0.036391
| 16> 		O   -0.561944  -1.594368   0.000379
| 17> 		C    0.639937   0.402498  -0.000857
| 18> 		C    1.790522  -0.163121   0.014993
| 19> 		H   -1.445124   0.068059   0.315671
| 20> 		H    0.505244   1.461194  -0.062959
| 21> 		H    2.068538  -1.316457   0.054831
| 22> 		H    2.535231   0.485064  -0.059534
| 23> *
| 24>
| 25>                          ****END OF INPUT****

CARTESIAN COORDINATES (ANGSTROEM)
---------------------------------
  C     -0.564430   -0.417159   -0.036391
  O     -0.561944   -1.594368    0.000379
  C      0.639937    0.402498   -0.000857
  C      1.790522   -0.163121    0.014993
  H     -1.445124    0.068059    0.315671
  H      0.505244    1.461194   -0.062959
  H      2.068538   -1.316457    0.054831
  H      2.535231    0.485064   -0.059534

 Total Charge           Charge          ....    0
 Multiplicity           Mult            ....    1
 Number of Electrons    NEL             ....   30
 Basis Dimension        Dim             ....   24

ORBITAL ENERGIES
----------------

  NO   OCC          E(Eh)            E(eV)
   0   2.0000     -20.373100      -554.3802
   1   2.0000     -11.299360      -307.4712
   2   2.0000     -11.194521      -304.6184
   3   2.0000     -11.191795      -304.5442
   4   2.0000      -1.428948       -38.8837
   5   2.0000      -1.104007       -30.0416
   6   2.0000      -0.903556       -24.5870
   7   2.0000      -0.756439       -20.5838
   8   2.0000      -0.718402       -19.5487
   9   2.0000      -0.625865       -17.0307
  10   2.0000      -0.608687       -16.5632
  11   2.0000      -0.555633       -15.1195
  12   2.0000      -0.535552       -14.5731
  13   2.0000      -0.418165       -11.3788
  14   2.0000      -0.406309       -11.0562
  15   0.0000       0.139815         3.8046
  16   0.0000       0.318149         8.6573
  17   0.0000       0.519883        14.1467
  18   0.0000       0.662640        18.0313
  19   0.0000       0.679229        18.4828

MULLIKEN ATOMIC CHARGES
-----------------------
   0 C :    0.166267
   1 O :   -0.352794
   2 C :   -0.184615
   3 C :   -0.224794
   4 H :    0.132794
   5 H :    0.147669
   6 H :    0.174498
   7 H :    0.140976
Sum of atomic charges:    0.0000000

LOEWDIN ATOMIC CHARGES
----------------------
   0 C :    0.142450
   1 O :   -0.247794
   2 C :   -0.138449
   3 C :   -0.124354
   4 H :    0.065244
   5 H :    0.093221
   6 H :    0.126029
   7 H :    0.083651

  Mayer bond orders larger than 0.100000
B(  0-C ,  1-O ) :   1.9091 B(  0-C ,  2-C ) :   1.0160 B(  0-C ,  4-H ) :   0.9280
B(  2-C ,  3-C ) :   1.9582 B(  2-C ,  5-H ) :   0.9567 B(  3-C ,  6-H ) :   0.9520
B(  3-C ,  7-H ) :   0.9657

-----------------------------------------------------------------------------
         ABSORPTION SPECTRUM VIA TRANSITION ELECTRIC DIPOLE MOMENTS
-----------------------------------------------------------------------------
State   Energy    Wavelength  fosc         T2        TX        TY        TZ
        (cm-1)      (nm)                 (au**2)    (au)      (au)      (au)
-----------------------------------------------------------------------------
   1   32573.2    307.0   0.000232205   0.00235  -0.04301  -0.00564   0.02156

Dispersion correction           -0.026398308
FINAL SINGLE POINT ENERGY      -189.311023669317

DIPOLE MOMENT
-------------
                                X             Y             Z
Electronic contribution:     -1.94288      -1.63227      -0.21585
Nuclear contribution   :      2.27890       2.44151       0.23344
                        -----------------------------------------
Total Dipole Moment    :      0.33602       0.80925       0.01759
                        -----------------------------------------
Magnitude (a.u.)       :      0.87641
Magnitude (Debye)      :      2.22766

Rotational constants in cm-1:     0.786976     0.223895     0.174773
Rotational constants in MHz : 23592.959269  6712.208536  5239.575575

                             ****ORCA TERMINATED NORMALLY****
TOTAL RUN TIME: 0 days 0 hours 0 minutes 13 seconds 216 msec
