                         Program Version 5.0.3 -  RELEASE  -
|  1> ! HF-3c
|  2> !TightSCF
|  3> %scf
|  4>  ConvForced true
|  5>  convergence tight
|  6>  MaxIter 500
|  7> end
|  8>
|  9> %tddft
| 10>  nroots 1
| 11> end
| 12>
| 13> # 	20379
| 14> * xyz 0 1
| 15> 		C   -0.609731  -0.412291  -0.018848
| 16> 		O   -0.540955  -1.643897   0.004128
| 17> 		C    0.635757   0.470185  -0.016367
| 18> 		C    1.829955  -0.153914  -0.001883
| 19> 		H   -1.654875  -0.017959   0.212264
| 20> 		H    0.472017   1.467590   0.016777
| 21> 		H    1.836553  -1.387140   0.019638
| 22> 		H    2.778045   0.409221   0.132410
| 23> *
| 24>
| 25>                          ****END OF INPUT****

CARTESIAN COORDINATES (ANGSTROEM)
---------------------------------
  C     -0.609731   -0.412291   -0.018848
  O     -0.540955   -1.643897    0.004128
  C      0.635757    0.470185   -0.016367
  C      1.829955   -0.153914   -0.001883
  H     -1.654875   -0.017959    0.212264
  H      0.472017    1.467590    0.016777
  H      1.836553   -1.387140    0.019638
  H      2.778045    0.409221    0.132410

 Total Charge           Charge          ....    0
 Multiplicity           Mult            ....    1
 Number of Electrons    NEL             ....   30
 Basis Dimension        Dim             ....   24

ORBITAL ENERGIES
----------------

  NO   OCC          E(Eh)            E(eV)
   0   2.0000     -20.343138      -553.5649
   1   2.0000     -11.279639      -306.9346
   2   2.0000     -11.188623      -304.4579
   3   2.0000     -11.183230      -304.3112
   4   2.0000      -1.377840       -37.4929
   5   2.0000      -1.063205       -28.9313
   6   2.0000      -0.864832       -23.5333
   7   2.0000      -0.740276       -20.1439
   8   2.0000      -0.696241       -18.9457
   9   2.0000      -0.597778       -16.2664
  10   2.0000      -0.576560       -15.6890
  11   2.0000      -0.521752       -14.1976
  12   2.0000      -0.513876       -13.9833
  13   2.0000      -0.405330       -11.0296
  14   2.0000      -0.385436       -10.4882
  15   0.0000       0.138284         3.7629
  16   0.0000       0.293624         7.9899
  17   0.0000       0.483445        13.1552
  18   0.0000       0.548919        14.9368
  19   0.0000       0.665753        18.1161

MULLIKEN ATOMIC CHARGES
-----------------------
   0 C :    0.159409
   1 O :   -0.364748
   2 C :   -0.200310
   3 C :   -0.191838
   4 H :    0.139921
   5 H :    0.140216
   6 H :    0.173012
   7 H :    0.144339
Sum of atomic charges:    0.0000000

LOEWDIN ATOMIC CHARGES
----------------------
   0 C :    0.143548
   1 O :   -0.277348
   2 C :   -0.150266
   3 C :   -0.103625
   4 H :    0.080593
   5 H :    0.083232
   6 H :    0.128255
   7 H :    0.095611

  Mayer bond orders larger than 0.100000
B(  0-C ,  1-O ) :   1.9044 B(  0-C ,  2-C ) :   1.0111 B(  0-C ,  4-H ) :   0.9294
B(  2-C ,  3-C ) :   1.9470 B(  2-C ,  5-H ) :   0.9637 B(  3-C ,  6-H ) :   0.9466
B(  3-C ,  7-H ) :   0.9631

-----------------------------------------------------------------------------
         ABSORPTION SPECTRUM VIA TRANSITION ELECTRIC DIPOLE MOMENTS
-----------------------------------------------------------------------------
State   Energy    Wavelength  fosc         T2        TX        TY        TZ
        (cm-1)      (nm)                 (au**2)    (au)      (au)      (au)
-----------------------------------------------------------------------------
   1   31747.3    315.0   0.000154084   0.00160   0.03150   0.00689  -0.02362

Dispersion correction           -0.025551478
FINAL SINGLE POINT ENERGY      -189.326272981998

DIPOLE MOMENT
-------------
                                X             Y             Z
Electronic contribution:     -1.73432      -1.42012      -0.28242
Nuclear contribution   :      2.06268       2.23119       0.35728
                        -----------------------------------------
Total Dipole Moment    :      0.32836       0.81107       0.07486
                        -----------------------------------------
Magnitude (a.u.)       :      0.87822
Magnitude (Debye)      :      2.23225

Rotational constants in cm-1:     0.709212     0.213220     0.164162
Rotational constants in MHz : 21261.639307  6392.167790  4921.461334

                             ****ORCA TERMINATED NORMALLY****
TOTAL RUN TIME: 0 days 0 hours 0 minutes 12 seconds 266 msec
