                         Program Version 5.0.3 -  RELEASE  -
|  1> ! B3LYP cc-pVDZ
|  2> !TightSCF
|  3> %scf
|  4>  ConvForced true
|  5>  convergence tight
|  6>  MaxIter 500
|  7> end
|  8>
|  9> %tddft
| 10>  nroots 1
| 11> end
| 12>
| 13> # 	8951
| 14> * xyz 0 1
| 15> 		C   -1.232652  -0.258620  -0.061795
| 16> 		O   -1.628475  -0.922630  -0.930557
| 17> 		C    0.016268   0.509929  -0.267087
| 18> 		C    1.196475   0.008964   0.140537
| 19> 		H   -1.607464  -0.448357   1.015985
| 20> 		H   -0.109678   1.490995  -0.734673
| 21> 		H    1.140849  -1.041107   0.672544
| 22> 		H    2.176208   0.634448   0.190841
| 23> *
| 24>
| 25>                          ****END OF INPUT****

CARTESIAN COORDINATES (ANGSTROEM)
---------------------------------
  C     -1.232652   -0.258620   -0.061795
  O     -1.628475   -0.922630   -0.930557
  C      0.016268    0.509929   -0.267087
  C      1.196475    0.008964    0.140537
  H     -1.607464   -0.448357    1.015985
  H     -0.109678    1.490995   -0.734673
  H      1.140849   -1.041107    0.672544
  H      2.176208    0.634448    0.190841

 Total Charge           Charge          ....    0
 Multiplicity           Mult            ....    1
 Number of Electrons    NEL             ....   30
 Basis Dimension        Dim             ....   76

ORBITAL ENERGIES
----------------

  NO   OCC          E(Eh)            E(eV)
   0   2.0000     -19.145890      -520.9861
   1   2.0000     -10.279915      -279.7307
   2   2.0000     -10.217258      -278.0257
   3   2.0000     -10.205223      -277.6982
   4   2.0000      -1.083004       -29.4700
   5   2.0000      -0.788578       -21.4583
   6   2.0000      -0.633534       -17.2393
   7   2.0000      -0.555313       -15.1108
   8   2.0000      -0.489640       -13.3238
   9   2.0000      -0.462854       -12.5949
  10   2.0000      -0.441334       -12.0093
  11   2.0000      -0.395712       -10.7679
  12   2.0000      -0.376857       -10.2548
  13   2.0000      -0.284114        -7.7311
  14   2.0000      -0.252552        -6.8723
  15   0.0000      -0.037358        -1.0166
  16   0.0000       0.000391         0.0106
  17   0.0000       0.075349         2.0503
  18   0.0000       0.082830         2.2539
  19   0.0000       0.098790         2.6882

MULLIKEN ATOMIC CHARGES
-----------------------
   0 C :    0.129643
   1 O :   -0.134500
   2 C :   -0.049521
   3 C :   -0.041744
   4 H :   -0.014105
   5 H :    0.015616
   6 H :    0.039813
   7 H :    0.054798
Sum of atomic charges:   -0.0000000

LOEWDIN ATOMIC CHARGES
----------------------
   0 C :   -0.059748
   1 O :    0.060582
   2 C :   -0.060514
   3 C :   -0.054152
   4 H :   -0.005642
   5 H :    0.031920
   6 H :    0.041372
   7 H :    0.046180

  Mayer bond orders larger than 0.100000
B(  0-C ,  1-O ) :   2.2620 B(  0-C ,  2-C ) :   0.9762 B(  0-C ,  4-H ) :   0.9037
B(  2-C ,  3-C ) :   2.0188 B(  2-C ,  5-H ) :   0.9404 B(  3-C ,  6-H ) :   0.9351
B(  3-C ,  7-H ) :   0.9413

-----------------------------------------------------------------------------
         ABSORPTION SPECTRUM VIA TRANSITION ELECTRIC DIPOLE MOMENTS
-----------------------------------------------------------------------------
State   Energy    Wavelength  fosc         T2        TX        TY        TZ
        (cm-1)      (nm)                 (au**2)    (au)      (au)      (au)
-----------------------------------------------------------------------------
   1   33501.5    298.5   0.001294504   0.01272   0.01272  -0.03573   0.10622

FINAL SINGLE POINT ENERGY      -191.626255757969

DIPOLE MOMENT
-------------
                                X             Y             Z
Electronic contribution:     -2.74940      -0.80229      -1.59702
Nuclear contribution   :      3.13544       1.32181       2.13512
                        -----------------------------------------
Total Dipole Moment    :      0.38604       0.51952       0.53810
                        -----------------------------------------
Magnitude (a.u.)       :      0.84171
Magnitude (Debye)      :      2.13945

Rotational constants in cm-1:     0.970903     0.173703     0.167414
Rotational constants in MHz : 29106.943390  5207.495246  5018.930563

                             ****ORCA TERMINATED NORMALLY****
TOTAL RUN TIME: 0 days 0 hours 3 minutes 16 seconds 754 msec
