                         Program Version 5.0.3 -  RELEASE  -
|  1> ! HF-3c
|  2> !TightSCF
|  3> %scf
|  4>  ConvForced true
|  5>  convergence tight
|  6>  MaxIter 500
|  7> end
|  8>
|  9> %tddft
| 10>  nroots 1
| 11> end
| 12>
| 13> # 	2056
| 14> * xyz 0 1
| 15> 		C   -1.149092  -0.314494  -0.006252
| 16> 		O   -2.013625  -0.662514  -0.895279
| 17> 		C    0.053064   0.445180  -0.331847
| 18> 		C    1.204563   0.058309   0.164273
| 19> 		H   -1.376261  -0.619285   1.076009
| 20> 		H   -0.121929   1.105558  -1.016343
| 21> 		H    1.251889  -0.723860   1.048905
| 22> 		H    2.201464   0.697143  -0.000011
| 23> *
| 24>
| 25>                          ****END OF INPUT****

CARTESIAN COORDINATES (ANGSTROEM)
---------------------------------
  C     -1.149092   -0.314494   -0.006252
  O     -2.013625   -0.662514   -0.895279
  C      0.053064    0.445180   -0.331847
  C      1.204563    0.058309    0.164273
  H     -1.376261   -0.619285    1.076009
  H     -0.121929    1.105558   -1.016343
  H      1.251889   -0.723860    1.048905
  H      2.201464    0.697143   -0.000011

 Total Charge           Charge          ....    0
 Multiplicity           Mult            ....    1
 Number of Electrons    NEL             ....   30
 Basis Dimension        Dim             ....   24

ORBITAL ENERGIES
----------------

  NO   OCC          E(Eh)            E(eV)
   0   2.0000     -20.339225      -553.4584
   1   2.0000     -11.274381      -306.7915
   2   2.0000     -11.199374      -304.7505
   3   2.0000     -11.198059      -304.7147
   4   2.0000      -1.343384       -36.5553
   5   2.0000      -1.096359       -29.8334
   6   2.0000      -0.871323       -23.7099
   7   2.0000      -0.782909       -21.3040
   8   2.0000      -0.655511       -17.8374
   9   2.0000      -0.635426       -17.2908
  10   2.0000      -0.574812       -15.6414
  11   2.0000      -0.525588       -14.3020
  12   2.0000      -0.489988       -13.3333
  13   2.0000      -0.409835       -11.1522
  14   2.0000      -0.397892       -10.8272
  15   0.0000       0.135952         3.6994
  16   0.0000       0.266063         7.2399
  17   0.0000       0.508884        13.8474
  18   0.0000       0.545574        14.8458
  19   0.0000       0.602903        16.4058

MULLIKEN ATOMIC CHARGES
-----------------------
   0 C :    0.153452
   1 O :   -0.341506
   2 C :   -0.214317
   3 C :   -0.190181
   4 H :    0.139293
   5 H :    0.158369
   6 H :    0.144693
   7 H :    0.150198
Sum of atomic charges:   -0.0000000

LOEWDIN ATOMIC CHARGES
----------------------
   0 C :    0.147921
   1 O :   -0.270043
   2 C :   -0.150742
   3 C :   -0.109062
   4 H :    0.081626
   5 H :    0.093260
   6 H :    0.100868
   7 H :    0.106172

  Mayer bond orders larger than 0.100000
B(  0-C ,  1-O ) :   1.9077 B(  0-C ,  2-C ) :   1.0283 B(  0-C ,  4-H ) :   0.9294
B(  2-C ,  3-C ) :   1.9555 B(  2-C ,  5-H ) :   0.9533 B(  3-C ,  6-H ) :   0.9590
B(  3-C ,  7-H ) :   0.9567

-----------------------------------------------------------------------------
         ABSORPTION SPECTRUM VIA TRANSITION ELECTRIC DIPOLE MOMENTS
-----------------------------------------------------------------------------
State   Energy    Wavelength  fosc         T2        TX        TY        TZ
        (cm-1)      (nm)                 (au**2)    (au)      (au)      (au)
-----------------------------------------------------------------------------
   1   29531.4    338.6   0.000081501   0.00091   0.02726  -0.01074   0.00708

Dispersion correction           -0.025365522
FINAL SINGLE POINT ENERGY      -189.313149968995

DIPOLE MOMENT
-------------
                                X             Y             Z
Electronic contribution:     -2.76450      -0.67702      -1.25158
Nuclear contribution   :      3.74938       0.94996       2.05454
                        -----------------------------------------
Total Dipole Moment    :      0.98488       0.27295       0.80296
                        -----------------------------------------
Magnitude (a.u.)       :      1.29970
Magnitude (Debye)      :      3.30359

Rotational constants in cm-1:     1.284313     0.156755     0.147647
Rotational constants in MHz : 38502.728661  4699.395009  4426.344859

                             ****ORCA TERMINATED NORMALLY****
TOTAL RUN TIME: 0 days 0 hours 0 minutes 14 seconds 68 msec
