                         Program Version 5.0.3 -  RELEASE  -
|  1> ! B3LYP cc-pVDZ
|  2> !TightSCF
|  3> %scf
|  4>  ConvForced true
|  5>  convergence tight
|  6>  MaxIter 500
|  7> end
|  8>
|  9> %tddft
| 10>  nroots 1
| 11> end
| 12>
| 13> # 	6700
| 14> * xyz 0 1
| 15> 		C   -1.124519  -0.332641   0.017152
| 16> 		O   -1.234388  -1.595000   0.035198
| 17> 		C   -0.005355   0.500757  -0.006058
| 18> 		C    1.270443  -0.014659  -0.030787
| 19> 		H   -2.058449   0.289016  -0.233537
| 20> 		H   -0.247316   1.600785   0.062938
| 21> 		H    1.363491  -1.109703  -0.130347
| 22> 		H    2.001713   0.635299   0.241340
| 23> *
| 24>
| 25>                          ****END OF INPUT****

CARTESIAN COORDINATES (ANGSTROEM)
---------------------------------
  C     -1.124519   -0.332641    0.017152
  O     -1.234388   -1.595000    0.035198
  C     -0.005355    0.500757   -0.006058
  C      1.270443   -0.014659   -0.030787
  H     -2.058449    0.289016   -0.233537
  H     -0.247316    1.600785    0.062938
  H      1.363491   -1.109703   -0.130347
  H      2.001713    0.635299    0.241340

 Total Charge           Charge          ....    0
 Multiplicity           Mult            ....    1
 Number of Electrons    NEL             ....   30
 Basis Dimension        Dim             ....   76

ORBITAL ENERGIES
----------------

  NO   OCC          E(Eh)            E(eV)
   0   2.0000     -19.136339      -520.7263
   1   2.0000     -10.270848      -279.4840
   2   2.0000     -10.223421      -278.1934
   3   2.0000     -10.213605      -277.9263
   4   2.0000      -1.012122       -27.5412
   5   2.0000      -0.807809       -21.9816
   6   2.0000      -0.680707       -18.5230
   7   2.0000      -0.530353       -14.4316
   8   2.0000      -0.514352       -13.9962
   9   2.0000      -0.443663       -12.0727
  10   2.0000      -0.422995       -11.5103
  11   2.0000      -0.391462       -10.6522
  12   2.0000      -0.379747       -10.3334
  13   2.0000      -0.285301        -7.7634
  14   2.0000      -0.251277        -6.8376
  15   0.0000      -0.091524        -2.4905
  16   0.0000       0.056450         1.5361
  17   0.0000       0.062657         1.7050
  18   0.0000       0.087747         2.3877
  19   0.0000       0.124994         3.4013

MULLIKEN ATOMIC CHARGES
-----------------------
   0 C :    0.176669
   1 O :   -0.236613
   2 C :   -0.134493
   3 C :    0.135138
   4 H :   -0.021940
   5 H :    0.012521
   6 H :    0.053122
   7 H :    0.015595
Sum of atomic charges:    0.0000000

LOEWDIN ATOMIC CHARGES
----------------------
   0 C :   -0.031859
   1 O :   -0.058495
   2 C :   -0.080403
   3 C :    0.069097
   4 H :   -0.000640
   5 H :    0.043284
   6 H :    0.045150
   7 H :    0.013867

  Mayer bond orders larger than 0.100000
B(  0-C ,  1-O ) :   2.1105 B(  0-C ,  2-C ) :   1.1493 B(  0-C ,  4-H ) :   0.9100
B(  1-O ,  3-C ) :   0.1202 B(  2-C ,  3-C ) :   1.8997 B(  2-C ,  5-H ) :   0.9417
B(  3-C ,  6-H ) :   0.9349 B(  3-C ,  7-H ) :   0.9394

-----------------------------------------------------------------------------
         ABSORPTION SPECTRUM VIA TRANSITION ELECTRIC DIPOLE MOMENTS
-----------------------------------------------------------------------------
State   Energy    Wavelength  fosc         T2        TX        TY        TZ
        (cm-1)      (nm)                 (au**2)    (au)      (au)      (au)
-----------------------------------------------------------------------------
   1   22662.2    441.3   0.000215400   0.00313  -0.02825  -0.01416   0.04616

FINAL SINGLE POINT ENERGY      -191.682005632017

DIPOLE MOMENT
-------------
                                X             Y             Z
Electronic contribution:     -1.46757      -1.79748       0.08712
Nuclear contribution   :      2.11759       2.79940      -0.07331
                        -----------------------------------------
Total Dipole Moment    :      0.65002       1.00192       0.01381
                        -----------------------------------------
Magnitude (a.u.)       :      1.19439
Magnitude (Debye)      :      3.03589

Rotational constants in cm-1:     0.755536     0.204096     0.161182
Rotational constants in MHz : 22650.407163  6118.652605  4832.109409

                             ****ORCA TERMINATED NORMALLY****
TOTAL RUN TIME: 0 days 0 hours 3 minutes 21 seconds 426 msec
