                         Program Version 5.0.3 -  RELEASE  -
|  1> ! HF-3c
|  2> !TightSCF
|  3> %scf
|  4>  ConvForced true
|  5>  convergence tight
|  6>  MaxIter 500
|  7> end
|  8>
|  9> %tddft
| 10>  nroots 1
| 11> end
| 12>
| 13> # 	22152
| 14> * xyz 0 1
| 15> 		C   -0.612102  -0.401757   0.068417
| 16> 		O   -0.567668  -1.646292  -0.050748
| 17> 		C    0.623408   0.416594  -0.074718
| 18> 		C    1.870857  -0.136256   0.027481
| 19> 		H   -1.526362   0.008266   0.349877
| 20> 		H    0.342510   1.533320  -0.105932
| 21> 		H    1.945072  -1.156619   0.369526
| 22> 		H    2.756496   0.445973  -0.080814
| 23> *
| 24>
| 25>                          ****END OF INPUT****

CARTESIAN COORDINATES (ANGSTROEM)
---------------------------------
  C     -0.612102   -0.401757    0.068417
  O     -0.567668   -1.646292   -0.050748
  C      0.623408    0.416594   -0.074718
  C      1.870857   -0.136256    0.027481
  H     -1.526362    0.008266    0.349877
  H      0.342510    1.533320   -0.105932
  H      1.945072   -1.156619    0.369526
  H      2.756496    0.445973   -0.080814

 Total Charge           Charge          ....    0
 Multiplicity           Mult            ....    1
 Number of Electrons    NEL             ....   30
 Basis Dimension        Dim             ....   24

ORBITAL ENERGIES
----------------

  NO   OCC          E(Eh)            E(eV)
   0   2.0000     -20.349982      -553.7512
   1   2.0000     -11.282369      -307.0089
   2   2.0000     -11.191262      -304.5297
   3   2.0000     -11.188897      -304.4654
   4   2.0000      -1.372059       -37.3356
   5   2.0000      -1.061996       -28.8984
   6   2.0000      -0.897317       -24.4172
   7   2.0000      -0.758717       -20.6458
   8   2.0000      -0.686211       -18.6727
   9   2.0000      -0.608853       -16.5677
  10   2.0000      -0.596254       -16.2249
  11   2.0000      -0.526030       -14.3140
  12   2.0000      -0.516470       -14.0539
  13   2.0000      -0.417333       -11.3562
  14   2.0000      -0.378980       -10.3126
  15   0.0000       0.121539         3.3073
  16   0.0000       0.287187         7.8147
  17   0.0000       0.534117        14.5341
  18   0.0000       0.603166        16.4130
  19   0.0000       0.668675        18.1956

MULLIKEN ATOMIC CHARGES
-----------------------
   0 C :    0.129767
   1 O :   -0.341927
   2 C :   -0.152708
   3 C :   -0.227266
   4 H :    0.142346
   5 H :    0.142141
   6 H :    0.160860
   7 H :    0.146788
Sum of atomic charges:    0.0000000

LOEWDIN ATOMIC CHARGES
----------------------
   0 C :    0.127835
   1 O :   -0.260026
   2 C :   -0.113260
   3 C :   -0.125809
   4 H :    0.074933
   5 H :    0.095632
   6 H :    0.106098
   7 H :    0.094597

  Mayer bond orders larger than 0.100000
B(  0-C ,  1-O ) :   1.8920 B(  0-C ,  2-C ) :   1.0391 B(  0-C ,  4-H ) :   0.9396
B(  2-C ,  3-C ) :   1.9390 B(  2-C ,  5-H ) :   0.9577 B(  3-C ,  6-H ) :   0.9594
B(  3-C ,  7-H ) :   0.9661

-----------------------------------------------------------------------------
         ABSORPTION SPECTRUM VIA TRANSITION ELECTRIC DIPOLE MOMENTS
-----------------------------------------------------------------------------
State   Energy    Wavelength  fosc         T2        TX        TY        TZ
        (cm-1)      (nm)                 (au**2)    (au)      (au)      (au)
-----------------------------------------------------------------------------
   1   29393.4    340.2   0.000015043   0.00017  -0.01016   0.00531   0.00609

Dispersion correction           -0.025441629
FINAL SINGLE POINT ENERGY      -189.343956592940

DIPOLE MOMENT
-------------
                                X             Y             Z
Electronic contribution:     -1.89059      -1.61417      -0.32073
Nuclear contribution   :      2.14471       2.56692       0.50036
                        -----------------------------------------
Total Dipole Moment    :      0.25413       0.95274       0.17963
                        -----------------------------------------
Magnitude (a.u.)       :      1.00228
Magnitude (Debye)      :      2.54760

Rotational constants in cm-1:     0.720489     0.207670     0.162612
Rotational constants in MHz : 21599.731187  6225.797380  4874.992195

                             ****ORCA TERMINATED NORMALLY****
TOTAL RUN TIME: 0 days 0 hours 0 minutes 15 seconds 900 msec
