                         Program Version 5.0.3 -  RELEASE  -
|  1> ! B3LYP cc-pVDZ
|  2> !TightSCF
|  3> %scf
|  4>  ConvForced true
|  5>  convergence tight
|  6>  MaxIter 500
|  7> end
|  8>
|  9> %tddft
| 10>  nroots 1
| 11> end
| 12>
| 13> # 	15732
| 14> * xyz 0 1
| 15> 		C   -1.269094  -0.276249  -0.026204
| 16> 		O   -1.799457  -0.983996   0.845530
| 17> 		C   -0.044470   0.496956   0.172494
| 18> 		C    1.156816   0.057142  -0.184799
| 19> 		H   -1.594622  -0.326365  -0.978239
| 20> 		H   -0.082255   1.446027   0.727532
| 21> 		H    1.407212  -0.934003  -0.602691
| 22> 		H    2.165868   0.495494   0.007156
| 23> *
| 24>
| 25>                          ****END OF INPUT****

CARTESIAN COORDINATES (ANGSTROEM)
---------------------------------
  C     -1.269094   -0.276249   -0.026204
  O     -1.799457   -0.983996    0.845530
  C     -0.044470    0.496956    0.172494
  C      1.156816    0.057142   -0.184799
  H     -1.594622   -0.326365   -0.978239
  H     -0.082255    1.446027    0.727532
  H      1.407212   -0.934003   -0.602691
  H      2.165868    0.495494    0.007156

 Total Charge           Charge          ....    0
 Multiplicity           Mult            ....    1
 Number of Electrons    NEL             ....   30
 Basis Dimension        Dim             ....   76

ORBITAL ENERGIES
----------------

  NO   OCC          E(Eh)            E(eV)
   0   2.0000     -19.144549      -520.9497
   1   2.0000     -10.275649      -279.6146
   2   2.0000     -10.210030      -277.8290
   3   2.0000     -10.208900      -277.7983
   4   2.0000      -1.034453       -28.1489
   5   2.0000      -0.799849       -21.7650
   6   2.0000      -0.662593       -18.0301
   7   2.0000      -0.576036       -15.6747
   8   2.0000      -0.490644       -13.3511
   9   2.0000      -0.472214       -12.8496
  10   2.0000      -0.438382       -11.9290
  11   2.0000      -0.375280       -10.2119
  12   2.0000      -0.364262        -9.9121
  13   2.0000      -0.288726        -7.8566
  14   2.0000      -0.258318        -7.0292
  15   0.0000      -0.049243        -1.3400
  16   0.0000      -0.006538        -0.1779
  17   0.0000       0.082308         2.2397
  18   0.0000       0.090291         2.4569
  19   0.0000       0.113468         3.0876

MULLIKEN ATOMIC CHARGES
-----------------------
   0 C :    0.233301
   1 O :   -0.209791
   2 C :   -0.070240
   3 C :   -0.012245
   4 H :   -0.021804
   5 H :    0.025699
   6 H :    0.020882
   7 H :    0.034199
Sum of atomic charges:    0.0000000

LOEWDIN ATOMIC CHARGES
----------------------
   0 C :    0.012762
   1 O :   -0.013730
   2 C :   -0.059993
   3 C :   -0.031107
   4 H :   -0.016239
   5 H :    0.044693
   6 H :    0.027533
   7 H :    0.036080

  Mayer bond orders larger than 0.100000
B(  0-C ,  1-O ) :   2.2010 B(  0-C ,  2-C ) :   0.9948 B(  0-C ,  4-H ) :   0.9391
B(  2-C ,  3-C ) :   2.0259 B(  2-C ,  5-H ) :   0.9305 B(  3-C ,  6-H ) :   0.9571
B(  3-C ,  7-H ) :   0.9535

-----------------------------------------------------------------------------
         ABSORPTION SPECTRUM VIA TRANSITION ELECTRIC DIPOLE MOMENTS
-----------------------------------------------------------------------------
State   Energy    Wavelength  fosc         T2        TX        TY        TZ
        (cm-1)      (nm)                 (au**2)    (au)      (au)      (au)
-----------------------------------------------------------------------------
   1   30593.8    326.9   0.000178779   0.00192   0.03259   0.01496  -0.02525

FINAL SINGLE POINT ENERGY      -191.641514307446

DIPOLE MOMENT
-------------
                                X             Y             Z
Electronic contribution:     -3.08148      -0.87203       1.03430
Nuclear contribution   :      3.68509       1.41201      -1.60207
                        -----------------------------------------
Total Dipole Moment    :      0.60360       0.53998      -0.56777
                        -----------------------------------------
Magnitude (a.u.)       :      0.98908
Magnitude (Debye)      :      2.51404

Rotational constants in cm-1:     1.040987     0.162883     0.157059
Rotational constants in MHz : 31208.008975  4883.105505  4708.513043

                             ****ORCA TERMINATED NORMALLY****
TOTAL RUN TIME: 0 days 0 hours 3 minutes 20 seconds 692 msec
