                         Program Version 5.0.3 -  RELEASE  -
|  1> ! HF-3c
|  2> !TightSCF
|  3> %scf
|  4>  ConvForced true
|  5>  convergence tight
|  6>  MaxIter 500
|  7> end
|  8>
|  9> %tddft
| 10>  nroots 1
| 11> end
| 12>
| 13> # 	21087
| 14> * xyz 0 1
| 15> 		C   -0.545645  -0.446434   0.036230
| 16> 		O   -0.613713  -1.668875  -0.022599
| 17> 		C    0.644533   0.452614  -0.029221
| 18> 		C    1.825823  -0.096513   0.004066
| 19> 		H   -1.424151   0.064643   0.042152
| 20> 		H    0.533211   1.473425   0.040043
| 21> 		H    1.856996  -1.216117   0.249474
| 22> 		H    2.828983   0.464586  -0.114074
| 23> *
| 24>
| 25>                          ****END OF INPUT****

CARTESIAN COORDINATES (ANGSTROEM)
---------------------------------
  C     -0.545645   -0.446434    0.036230
  O     -0.613713   -1.668875   -0.022599
  C      0.644533    0.452614   -0.029221
  C      1.825823   -0.096513    0.004066
  H     -1.424151    0.064643    0.042152
  H      0.533211    1.473425    0.040043
  H      1.856996   -1.216117    0.249474
  H      2.828983    0.464586   -0.114074

 Total Charge           Charge          ....    0
 Multiplicity           Mult            ....    1
 Number of Electrons    NEL             ....   30
 Basis Dimension        Dim             ....   24

ORBITAL ENERGIES
----------------

  NO   OCC          E(Eh)            E(eV)
   0   2.0000     -20.362823      -554.1006
   1   2.0000     -11.293917      -307.3231
   2   2.0000     -11.195002      -304.6315
   3   2.0000     -11.188783      -304.4623
   4   2.0000      -1.391473       -37.8639
   5   2.0000      -1.092032       -29.7157
   6   2.0000      -0.894928       -24.3522
   7   2.0000      -0.754867       -20.5410
   8   2.0000      -0.713305       -19.4100
   9   2.0000      -0.611552       -16.6412
  10   2.0000      -0.591753       -16.1024
  11   2.0000      -0.544146       -14.8070
  12   2.0000      -0.522757       -14.2250
  13   2.0000      -0.418390       -11.3850
  14   2.0000      -0.399387       -10.8679
  15   0.0000       0.132841         3.6148
  16   0.0000       0.304016         8.2727
  17   0.0000       0.540765        14.7150
  18   0.0000       0.574919        15.6444
  19   0.0000       0.633805        17.2467

MULLIKEN ATOMIC CHARGES
-----------------------
   0 C :    0.155434
   1 O :   -0.350155
   2 C :   -0.206165
   3 C :   -0.190382
   4 H :    0.133584
   5 H :    0.147672
   6 H :    0.160402
   7 H :    0.149610
Sum of atomic charges:    0.0000000

LOEWDIN ATOMIC CHARGES
----------------------
   0 C :    0.149925
   1 O :   -0.261288
   2 C :   -0.157519
   3 C :   -0.097592
   4 H :    0.062985
   5 H :    0.090727
   6 H :    0.110070
   7 H :    0.102692

  Mayer bond orders larger than 0.100000
B(  0-C ,  1-O ) :   1.9078 B(  0-C ,  2-C ) :   1.0190 B(  0-C ,  4-H ) :   0.9376
B(  2-C ,  3-C ) :   1.9450 B(  2-C ,  5-H ) :   0.9593 B(  3-C ,  6-H ) :   0.9539
B(  3-C ,  7-H ) :   0.9604

-----------------------------------------------------------------------------
         ABSORPTION SPECTRUM VIA TRANSITION ELECTRIC DIPOLE MOMENTS
-----------------------------------------------------------------------------
State   Energy    Wavelength  fosc         T2        TX        TY        TZ
        (cm-1)      (nm)                 (au**2)    (au)      (au)      (au)
-----------------------------------------------------------------------------
   1   32252.2    310.1   0.000064264   0.00066  -0.02303  -0.00364  -0.01061

Dispersion correction           -0.025971161
FINAL SINGLE POINT ENERGY      -189.326950462417

DIPOLE MOMENT
-------------
                                X             Y             Z
Electronic contribution:     -1.90903      -1.63884      -0.11433
Nuclear contribution   :      2.40059       2.52712       0.20443
                        -----------------------------------------
Total Dipole Moment    :      0.49156       0.88828       0.09010
                        -----------------------------------------
Magnitude (a.u.)       :      1.01921
Magnitude (Debye)      :      2.59063

Rotational constants in cm-1:     0.799508     0.203475     0.162551
Rotational constants in MHz : 23968.639446  6100.032736  4873.168855

                             ****ORCA TERMINATED NORMALLY****
TOTAL RUN TIME: 0 days 0 hours 0 minutes 11 seconds 948 msec
