                         Program Version 5.0.3 -  RELEASE  -
|  1> ! B3LYP cc-pVDZ
|  2> !TightSCF
|  3> %scf
|  4>  ConvForced true
|  5>  convergence tight
|  6>  MaxIter 500
|  7> end
|  8>
|  9> %tddft
| 10>  nroots 1
| 11> end
| 12>
| 13> # 	3666
| 14> * xyz 0 1
| 15> 		C   -1.175552  -0.329138  -0.004393
| 16> 		O   -1.426776  -1.303486  -0.628547
| 17> 		C    0.024820   0.538947  -0.110306
| 18> 		C    1.187513   0.008160   0.168263
| 19> 		H   -1.996705   0.011149   0.891287
| 20> 		H   -0.071857   1.536381  -0.692449
| 21> 		H    1.375881  -0.938181   0.517731
| 22> 		H    2.089054   0.534251  -0.112296
| 23> *
| 24>
| 25>                          ****END OF INPUT****

CARTESIAN COORDINATES (ANGSTROEM)
---------------------------------
  C     -1.175552   -0.329138   -0.004393
  O     -1.426776   -1.303486   -0.628547
  C      0.024820    0.538947   -0.110306
  C      1.187513    0.008160    0.168263
  H     -1.996705    0.011149    0.891287
  H     -0.071857    1.536381   -0.692449
  H      1.375881   -0.938181    0.517731
  H      2.089054    0.534251   -0.112296

 Total Charge           Charge          ....    0
 Multiplicity           Mult            ....    1
 Number of Electrons    NEL             ....   30
 Basis Dimension        Dim             ....   76

ORBITAL ENERGIES
----------------

  NO   OCC          E(Eh)            E(eV)
   0   2.0000     -19.151082      -521.1274
   1   2.0000     -10.290072      -280.0071
   2   2.0000     -10.213096      -277.9125
   3   2.0000     -10.198510      -277.5156
   4   2.0000      -1.070121       -29.1195
   5   2.0000      -0.804579       -21.8937
   6   2.0000      -0.648853       -17.6562
   7   2.0000      -0.544597       -14.8193
   8   2.0000      -0.492915       -13.4129
   9   2.0000      -0.460664       -12.5353
  10   2.0000      -0.451559       -12.2876
  11   2.0000      -0.391463       -10.6523
  12   2.0000      -0.385898       -10.5008
  13   2.0000      -0.293219        -7.9789
  14   2.0000      -0.253714        -6.9039
  15   0.0000      -0.036658        -0.9975
  16   0.0000      -0.002697        -0.0734
  17   0.0000       0.075401         2.0518
  18   0.0000       0.080178         2.1818
  19   0.0000       0.100485         2.7343

MULLIKEN ATOMIC CHARGES
-----------------------
   0 C :    0.126497
   1 O :   -0.143916
   2 C :   -0.115244
   3 C :    0.091154
   4 H :   -0.027178
   5 H :    0.043754
   6 H :    0.004162
   7 H :    0.020771
Sum of atomic charges:    0.0000000

LOEWDIN ATOMIC CHARGES
----------------------
   0 C :   -0.044324
   1 O :    0.036857
   2 C :   -0.073427
   3 C :   -0.003438
   4 H :   -0.017228
   5 H :    0.055752
   6 H :    0.013940
   7 H :    0.031868

  Mayer bond orders larger than 0.100000
B(  0-C ,  1-O ) :   2.2687 B(  0-C ,  2-C ) :   0.9682 B(  0-C ,  4-H ) :   0.8759
B(  2-C ,  3-C ) :   2.0400 B(  2-C ,  5-H ) :   0.9244 B(  3-C ,  6-H ) :   0.9520
B(  3-C ,  7-H ) :   0.9446

-----------------------------------------------------------------------------
         ABSORPTION SPECTRUM VIA TRANSITION ELECTRIC DIPOLE MOMENTS
-----------------------------------------------------------------------------
State   Energy    Wavelength  fosc         T2        TX        TY        TZ
        (cm-1)      (nm)                 (au**2)    (au)      (au)      (au)
-----------------------------------------------------------------------------
   1   33528.1    298.3   0.000357372   0.00351  -0.05527   0.01711  -0.01272

FINAL SINGLE POINT ENERGY      -191.627071641366

DIPOLE MOMENT
-------------
                                X             Y             Z
Electronic contribution:     -2.16587      -1.55386      -0.93146
Nuclear contribution   :      2.69864       2.20164       1.14922
                        -----------------------------------------
Total Dipole Moment    :      0.53277       0.64778       0.21776
                        -----------------------------------------
Magnitude (a.u.)       :      0.86654
Magnitude (Debye)      :      2.20257

Rotational constants in cm-1:     0.848966     0.186977     0.165592
Rotational constants in MHz : 25451.360196  5605.430536  4964.317624

                             ****ORCA TERMINATED NORMALLY****
TOTAL RUN TIME: 0 days 0 hours 3 minutes 25 seconds 766 msec
