                         Program Version 5.0.3 -  RELEASE  -
|  1> ! HF-3c
|  2> !TightSCF
|  3> %scf
|  4>  ConvForced true
|  5>  convergence tight
|  6>  MaxIter 500
|  7> end
|  8>
|  9> %tddft
| 10>  nroots 1
| 11> end
| 12>
| 13> # 	23792
| 14> * xyz 0 1
| 15> 		C   -0.634879  -0.448123   0.018043
| 16> 		O   -0.577085  -1.647394   0.007661
| 17> 		C    0.691076   0.444828   0.045982
| 18> 		C    1.837605  -0.121758  -0.023072
| 19> 		H   -1.571569  -0.061204  -0.407425
| 20> 		H    0.690390   1.496514  -0.070996
| 21> 		H    1.847261  -1.253586  -0.158469
| 22> 		H    2.642451   0.666973   0.034478
| 23> *
| 24>
| 25>                          ****END OF INPUT****

CARTESIAN COORDINATES (ANGSTROEM)
---------------------------------
  C     -0.634879   -0.448123    0.018043
  O     -0.577085   -1.647394    0.007661
  C      0.691076    0.444828    0.045982
  C      1.837605   -0.121758   -0.023072
  H     -1.571569   -0.061204   -0.407425
  H      0.690390    1.496514   -0.070996
  H      1.847261   -1.253586   -0.158469
  H      2.642451    0.666973    0.034478

 Total Charge           Charge          ....    0
 Multiplicity           Mult            ....    1
 Number of Electrons    NEL             ....   30
 Basis Dimension        Dim             ....   24

ORBITAL ENERGIES
----------------

  NO   OCC          E(Eh)            E(eV)
   0   2.0000     -20.370121      -554.2992
   1   2.0000     -11.295129      -307.3561
   2   2.0000     -11.180829      -304.2458
   3   2.0000     -11.178907      -304.1935
   4   2.0000      -1.412647       -38.4401
   5   2.0000      -1.085348       -29.5338
   6   2.0000      -0.855995       -23.2928
   7   2.0000      -0.738924       -20.1071
   8   2.0000      -0.712155       -19.3787
   9   2.0000      -0.605895       -16.4872
  10   2.0000      -0.583288       -15.8721
  11   2.0000      -0.537099       -14.6152
  12   2.0000      -0.528939       -14.3932
  13   2.0000      -0.414804       -11.2874
  14   2.0000      -0.399445       -10.8695
  15   0.0000       0.153846         4.1864
  16   0.0000       0.294425         8.0117
  17   0.0000       0.491319        13.3695
  18   0.0000       0.541588        14.7374
  19   0.0000       0.627879        17.0854

MULLIKEN ATOMIC CHARGES
-----------------------
   0 C :    0.167895
   1 O :   -0.356978
   2 C :   -0.179383
   3 C :   -0.236070
   4 H :    0.141441
   5 H :    0.139540
   6 H :    0.170490
   7 H :    0.153065
Sum of atomic charges:    0.0000000

LOEWDIN ATOMIC CHARGES
----------------------
   0 C :    0.144816
   1 O :   -0.256133
   2 C :   -0.134026
   3 C :   -0.143365
   4 H :    0.077295
   5 H :    0.086355
   6 H :    0.119162
   7 H :    0.105895

  Mayer bond orders larger than 0.100000
B(  0-C ,  1-O ) :   1.9350 B(  0-C ,  2-C ) :   0.9639 B(  0-C ,  4-H ) :   0.9284
B(  2-C ,  3-C ) :   1.9883 B(  2-C ,  5-H ) :   0.9609 B(  3-C ,  6-H ) :   0.9499
B(  3-C ,  7-H ) :   0.9566

-----------------------------------------------------------------------------
         ABSORPTION SPECTRUM VIA TRANSITION ELECTRIC DIPOLE MOMENTS
-----------------------------------------------------------------------------
State   Energy    Wavelength  fosc         T2        TX        TY        TZ
        (cm-1)      (nm)                 (au**2)    (au)      (au)      (au)
-----------------------------------------------------------------------------
   1   33134.2    301.8   0.000612260   0.00608  -0.06804  -0.02496  -0.02881

Dispersion correction           -0.025660157
FINAL SINGLE POINT ENERGY      -189.311904705563

DIPOLE MOMENT
-------------
                                X             Y             Z
Electronic contribution:     -1.98998      -1.71262       0.43444
Nuclear contribution   :      2.22436       2.58647      -0.56554
                        -----------------------------------------
Total Dipole Moment    :      0.23437       0.87385      -0.13110
                        -----------------------------------------
Magnitude (a.u.)       :      0.91419
Magnitude (Debye)      :      2.32368

Rotational constants in cm-1:     0.791054     0.201888     0.161564
Rotational constants in MHz : 23715.189718  6052.446562  4843.576242

                             ****ORCA TERMINATED NORMALLY****
TOTAL RUN TIME: 0 days 0 hours 0 minutes 11 seconds 738 msec
