                         Program Version 5.0.3 -  RELEASE  -
|  1> ! B3LYP cc-pVDZ
|  2> !TightSCF
|  3> %scf
|  4>  ConvForced true
|  5>  convergence tight
|  6>  MaxIter 500
|  7> end
|  8>
|  9> %tddft
| 10>  nroots 1
| 11> end
| 12>
| 13> # 	16530
| 14> * xyz 0 1
| 15> 		C   -1.219902  -0.291350   0.025529
| 16> 		O   -1.543738  -1.138036   0.905261
| 17> 		C    0.048852   0.471936   0.136138
| 18> 		C    1.186569  -0.027870  -0.144267
| 19> 		H   -1.862998  -0.139229  -0.967643
| 20> 		H    0.008482   1.499371   0.672778
| 21> 		H    1.352328  -1.054771  -0.561038
| 22> 		H    2.091387   0.685724  -0.083507
| 23> *
| 24>
| 25>                          ****END OF INPUT****

CARTESIAN COORDINATES (ANGSTROEM)
---------------------------------
  C     -1.219902   -0.291350    0.025529
  O     -1.543738   -1.138036    0.905261
  C      0.048852    0.471936    0.136138
  C      1.186569   -0.027870   -0.144267
  H     -1.862998   -0.139229   -0.967643
  H      0.008482    1.499371    0.672778
  H      1.352328   -1.054771   -0.561038
  H      2.091387    0.685724   -0.083507

 Total Charge           Charge          ....    0
 Multiplicity           Mult            ....    1
 Number of Electrons    NEL             ....   30
 Basis Dimension        Dim             ....   76

ORBITAL ENERGIES
----------------

  NO   OCC          E(Eh)            E(eV)
   0   2.0000     -19.149818      -521.0930
   1   2.0000     -10.294065      -280.1158
   2   2.0000     -10.207849      -277.7697
   3   2.0000     -10.205345      -277.7015
   4   2.0000      -1.026139       -27.9227
   5   2.0000      -0.806016       -21.9328
   6   2.0000      -0.647006       -17.6059
   7   2.0000      -0.543154       -14.7800
   8   2.0000      -0.488717       -13.2987
   9   2.0000      -0.452206       -12.3052
  10   2.0000      -0.438410       -11.9297
  11   2.0000      -0.375905       -10.2289
  12   2.0000      -0.360797        -9.8178
  13   2.0000      -0.298871        -8.1327
  14   2.0000      -0.256616        -6.9829
  15   0.0000      -0.049040        -1.3345
  16   0.0000      -0.001107        -0.0301
  17   0.0000       0.067839         1.8460
  18   0.0000       0.079801         2.1715
  19   0.0000       0.088024         2.3953

MULLIKEN ATOMIC CHARGES
-----------------------
   0 C :    0.144665
   1 O :   -0.212917
   2 C :   -0.076063
   3 C :    0.014408
   4 H :    0.020579
   5 H :    0.040133
   6 H :    0.030661
   7 H :    0.038533
Sum of atomic charges:   -0.0000000

LOEWDIN ATOMIC CHARGES
----------------------
   0 C :    0.009958
   1 O :   -0.036038
   2 C :   -0.083471
   3 C :   -0.039043
   4 H :    0.010874
   5 H :    0.055852
   6 H :    0.035216
   7 H :    0.046652

  Mayer bond orders larger than 0.100000
B(  0-C ,  1-O ) :   2.1796 B(  0-C ,  2-C ) :   0.9744 B(  0-C ,  4-H ) :   0.9029
B(  2-C ,  3-C ) :   2.0659 B(  2-C ,  5-H ) :   0.9151 B(  3-C ,  6-H ) :   0.9428
B(  3-C ,  7-H ) :   0.9291

-----------------------------------------------------------------------------
         ABSORPTION SPECTRUM VIA TRANSITION ELECTRIC DIPOLE MOMENTS
-----------------------------------------------------------------------------
State   Energy    Wavelength  fosc         T2        TX        TY        TZ
        (cm-1)      (nm)                 (au**2)    (au)      (au)      (au)
-----------------------------------------------------------------------------
   1   30130.6    331.9   0.000050105   0.00055  -0.01521   0.00114  -0.01774

FINAL SINGLE POINT ENERGY      -191.642356585580

DIPOLE MOMENT
-------------
                                X             Y             Z
Electronic contribution:     -2.55208      -1.28463       1.22039
Nuclear contribution   :      3.00766       1.94613      -1.79163
                        -----------------------------------------
Total Dipole Moment    :      0.45558       0.66150      -0.57124
                        -----------------------------------------
Magnitude (a.u.)       :      0.98562
Magnitude (Debye)      :      2.50525

Rotational constants in cm-1:     0.881119     0.175601     0.162718
Rotational constants in MHz : 26415.273862  5264.383291  4878.149375

                             ****ORCA TERMINATED NORMALLY****
TOTAL RUN TIME: 0 days 0 hours 3 minutes 22 seconds 838 msec
