                         Program Version 5.0.3 -  RELEASE  -
|  1> ! B3LYP cc-pVDZ
|  2> !TightSCF
|  3> %scf
|  4>  ConvForced true
|  5>  convergence tight
|  6>  MaxIter 500
|  7> end
|  8>
|  9> %tddft
| 10>  nroots 1
| 11> end
| 12>
| 13> # 	27396
| 14> * xyz 0 1
| 15> 		C   -0.560033  -0.418090   0.034125
| 16> 		O   -0.534577  -1.638637  -0.013160
| 17> 		C    0.619985   0.477351   0.014116
| 18> 		C    1.791609  -0.188703   0.001117
| 19> 		H   -1.445993   0.134483  -0.237222
| 20> 		H    0.414877   1.574891  -0.028308
| 21> 		H    1.577799  -1.389727   0.071492
| 22> 		H    2.848220   0.465253  -0.194780
| 23> *
| 24>
| 25>                          ****END OF INPUT****

CARTESIAN COORDINATES (ANGSTROEM)
---------------------------------
  C     -0.560033   -0.418090    0.034125
  O     -0.534577   -1.638637   -0.013160
  C      0.619985    0.477351    0.014116
  C      1.791609   -0.188703    0.001117
  H     -1.445993    0.134483   -0.237222
  H      0.414877    1.574891   -0.028308
  H      1.577799   -1.389727    0.071492
  H      2.848220    0.465253   -0.194780

 Total Charge           Charge          ....    0
 Multiplicity           Mult            ....    1
 Number of Electrons    NEL             ....   30
 Basis Dimension        Dim             ....   76

ORBITAL ENERGIES
----------------

  NO   OCC          E(Eh)            E(eV)
   0   2.0000     -19.141093      -520.8556
   1   2.0000     -10.272547      -279.5302
   2   2.0000     -10.233880      -278.4780
   3   2.0000     -10.205891      -277.7164
   4   2.0000      -1.043587       -28.3974
   5   2.0000      -0.791597       -21.5404
   6   2.0000      -0.648638       -17.6503
   7   2.0000      -0.524382       -14.2692
   8   2.0000      -0.503398       -13.6982
   9   2.0000      -0.442488       -12.0407
  10   2.0000      -0.408890       -11.1265
  11   2.0000      -0.396149       -10.7798
  12   2.0000      -0.366657        -9.9772
  13   2.0000      -0.285200        -7.7607
  14   2.0000      -0.258835        -7.0433
  15   0.0000      -0.071846        -1.9550
  16   0.0000       0.044589         1.2133
  17   0.0000       0.054441         1.4814
  18   0.0000       0.071047         1.9333
  19   0.0000       0.127656         3.4737

MULLIKEN ATOMIC CHARGES
-----------------------
   0 C :    0.208953
   1 O :   -0.211040
   2 C :   -0.108107
   3 C :   -0.034756
   4 H :   -0.019697
   5 H :    0.004564
   6 H :    0.091583
   7 H :    0.068501
Sum of atomic charges:   -0.0000000

LOEWDIN ATOMIC CHARGES
----------------------
   0 C :   -0.025394
   1 O :   -0.016386
   2 C :   -0.100742
   3 C :   -0.010301
   4 H :   -0.006376
   5 H :    0.031978
   6 H :    0.067318
   7 H :    0.059902

  Mayer bond orders larger than 0.100000
B(  0-C ,  1-O ) :   2.1328 B(  0-C ,  2-C ) :   1.0727 B(  0-C ,  4-H ) :   0.9263
B(  2-C ,  3-C ) :   1.9206 B(  2-C ,  5-H ) :   0.9523 B(  3-C ,  6-H ) :   0.8850
B(  3-C ,  7-H ) :   0.9342

-----------------------------------------------------------------------------
         ABSORPTION SPECTRUM VIA TRANSITION ELECTRIC DIPOLE MOMENTS
-----------------------------------------------------------------------------
State   Energy    Wavelength  fosc         T2        TX        TY        TZ
        (cm-1)      (nm)                 (au**2)    (au)      (au)      (au)
-----------------------------------------------------------------------------
   1   28022.9    356.9   0.000301476   0.00354   0.00202   0.00436  -0.05932

FINAL SINGLE POINT ENERGY      -191.646854737287

DIPOLE MOMENT
-------------
                                X             Y             Z
Electronic contribution:     -1.73425      -1.60885       0.32965
Nuclear contribution   :      2.02742       2.52520      -0.36433
                        -----------------------------------------
Total Dipole Moment    :      0.29318       0.91635      -0.03468
                        -----------------------------------------
Magnitude (a.u.)       :      0.96273
Magnitude (Debye)      :      2.44707

Rotational constants in cm-1:     0.711173     0.222644     0.169971
Rotational constants in MHz : 21320.433985  6674.708535  5095.592016

                             ****ORCA TERMINATED NORMALLY****
TOTAL RUN TIME: 0 days 0 hours 3 minutes 19 seconds 586 msec
