                         Program Version 5.0.3 -  RELEASE  -
|  1> ! HF-3c
|  2> !TightSCF
|  3> %scf
|  4>  ConvForced true
|  5>  convergence tight
|  6>  MaxIter 500
|  7> end
|  8>
|  9> %tddft
| 10>  nroots 1
| 11> end
| 12>
| 13> # 	7052
| 14> * xyz 0 1
| 15> 		C   -1.177825  -0.311540   0.011871
| 16> 		O   -1.667321  -0.977593   0.891857
| 17> 		C    0.041199   0.568327   0.194964
| 18> 		C    1.219845  -0.002611  -0.075437
| 19> 		H   -1.792192  -0.433992  -0.983829
| 20> 		H   -0.022031   1.512222   0.536797
| 21> 		H    1.419561  -0.922160  -0.522148
| 22> 		H    2.040624   0.667528  -0.131594
| 23> *
| 24>
| 25>                          ****END OF INPUT****

CARTESIAN COORDINATES (ANGSTROEM)
---------------------------------
  C     -1.177825   -0.311540    0.011871
  O     -1.667321   -0.977593    0.891857
  C      0.041199    0.568327    0.194964
  C      1.219845   -0.002611   -0.075437
  H     -1.792192   -0.433992   -0.983829
  H     -0.022031    1.512222    0.536797
  H      1.419561   -0.922160   -0.522148
  H      2.040624    0.667528   -0.131594

 Total Charge           Charge          ....    0
 Multiplicity           Mult            ....    1
 Number of Electrons    NEL             ....   30
 Basis Dimension        Dim             ....   24

ORBITAL ENERGIES
----------------

  NO   OCC          E(Eh)            E(eV)
   0   2.0000     -20.366152      -554.1912
   1   2.0000     -11.293564      -307.3135
   2   2.0000     -11.204243      -304.8830
   3   2.0000     -11.188531      -304.4554
   4   2.0000      -1.404984       -38.2316
   5   2.0000      -1.088254       -29.6129
   6   2.0000      -0.875341       -23.8192
   7   2.0000      -0.776703       -21.1352
   8   2.0000      -0.695956       -18.9379
   9   2.0000      -0.639380       -17.3984
  10   2.0000      -0.605473       -16.4758
  11   2.0000      -0.559312       -15.2197
  12   2.0000      -0.503821       -13.7097
  13   2.0000      -0.409607       -11.1460
  14   2.0000      -0.404921       -11.0185
  15   0.0000       0.189074         5.1450
  16   0.0000       0.204844         5.5741
  17   0.0000       0.506052        13.7704
  18   0.0000       0.645046        17.5526
  19   0.0000       0.696712        18.9585

MULLIKEN ATOMIC CHARGES
-----------------------
   0 C :    0.172177
   1 O :   -0.348473
   2 C :   -0.169331
   3 C :   -0.243296
   4 H :    0.143518
   5 H :    0.157204
   6 H :    0.146125
   7 H :    0.142075
Sum of atomic charges:    0.0000000

LOEWDIN ATOMIC CHARGES
----------------------
   0 C :    0.145696
   1 O :   -0.252253
   2 C :   -0.112733
   3 C :   -0.143981
   4 H :    0.085425
   5 H :    0.096134
   6 H :    0.091509
   7 H :    0.090202

  Mayer bond orders larger than 0.100000
B(  0-C ,  1-O ) :   1.9490 B(  0-C ,  2-C ) :   0.9808 B(  0-C ,  4-H ) :   0.9156
B(  2-C ,  3-C ) :   1.9925 B(  2-C ,  5-H ) :   0.9553 B(  3-C ,  6-H ) :   0.9675
B(  3-C ,  7-H ) :   0.9643

-----------------------------------------------------------------------------
         ABSORPTION SPECTRUM VIA TRANSITION ELECTRIC DIPOLE MOMENTS
-----------------------------------------------------------------------------
State   Energy    Wavelength  fosc         T2        TX        TY        TZ
        (cm-1)      (nm)                 (au**2)    (au)      (au)      (au)
-----------------------------------------------------------------------------
   1   34337.9    291.2   0.000054483   0.00052   0.01889  -0.01257   0.00278

Dispersion correction           -0.025091720
FINAL SINGLE POINT ENERGY      -189.308201833225

DIPOLE MOMENT
-------------
                                X             Y             Z
Electronic contribution:     -2.61559      -1.02168       1.26383
Nuclear contribution   :      3.13347       1.54832      -2.00989
                        -----------------------------------------
Total Dipole Moment    :      0.51788       0.52664      -0.74606
                        -----------------------------------------
Magnitude (a.u.)       :      1.04984
Magnitude (Debye)      :      2.66847

Rotational constants in cm-1:     0.964075     0.169412     0.161095
Rotational constants in MHz : 28902.240174  5078.844849  4829.508626

                             ****ORCA TERMINATED NORMALLY****
TOTAL RUN TIME: 0 days 0 hours 0 minutes 16 seconds 89 msec
