                         Program Version 5.0.3 -  RELEASE  -
|  1> ! HF-3c
|  2> !TightSCF
|  3> %scf
|  4>  ConvForced true
|  5>  convergence tight
|  6>  MaxIter 500
|  7> end
|  8>
|  9> %tddft
| 10>  nroots 1
| 11> end
| 12>
| 13> # 	16040
| 14> * xyz 0 1
| 15> 		C   -1.178923  -0.316993  -0.048481
| 16> 		O   -1.151715  -1.543388  -0.011299
| 17> 		C    0.037851   0.601002  -0.003531
| 18> 		C    1.300931  -0.007843  -0.045398
| 19> 		H   -2.193834   0.109490  -0.089704
| 20> 		H   -0.080613   1.530674   0.143612
| 21> 		H    1.156460  -1.095769   0.147616
| 22> 		H    2.134383   0.702117  -0.116171
| 23> *
| 24>
| 25>                          ****END OF INPUT****

CARTESIAN COORDINATES (ANGSTROEM)
---------------------------------
  C     -1.178923   -0.316993   -0.048481
  O     -1.151715   -1.543388   -0.011299
  C      0.037851    0.601002   -0.003531
  C      1.300931   -0.007843   -0.045398
  H     -2.193834    0.109490   -0.089704
  H     -0.080613    1.530674    0.143612
  H      1.156460   -1.095769    0.147616
  H      2.134383    0.702117   -0.116171

 Total Charge           Charge          ....    0
 Multiplicity           Mult            ....    1
 Number of Electrons    NEL             ....   30
 Basis Dimension        Dim             ....   24

ORBITAL ENERGIES
----------------

  NO   OCC          E(Eh)            E(eV)
   0   2.0000     -20.351035      -553.7798
   1   2.0000     -11.286588      -307.1237
   2   2.0000     -11.191511      -304.5365
   3   2.0000     -11.180378      -304.2336
   4   2.0000      -1.386076       -37.7170
   5   2.0000      -1.065661       -28.9981
   6   2.0000      -0.878457       -23.9040
   7   2.0000      -0.761166       -20.7124
   8   2.0000      -0.711999       -19.3745
   9   2.0000      -0.598760       -16.2931
  10   2.0000      -0.580943       -15.8083
  11   2.0000      -0.553252       -15.0547
  12   2.0000      -0.523223       -14.2376
  13   2.0000      -0.410355       -11.1663
  14   2.0000      -0.375420       -10.2157
  15   0.0000       0.122902         3.3443
  16   0.0000       0.281861         7.6698
  17   0.0000       0.539383        14.6774
  18   0.0000       0.551668        15.0117
  19   0.0000       0.676961        18.4210

MULLIKEN ATOMIC CHARGES
-----------------------
   0 C :    0.157904
   1 O :   -0.364384
   2 C :   -0.197351
   3 C :   -0.208033
   4 H :    0.137284
   5 H :    0.134850
   6 H :    0.181592
   7 H :    0.158138
Sum of atomic charges:    0.0000000

LOEWDIN ATOMIC CHARGES
----------------------
   0 C :    0.145747
   1 O :   -0.275226
   2 C :   -0.147182
   3 C :   -0.104614
   4 H :    0.074135
   5 H :    0.074204
   6 H :    0.126344
   7 H :    0.106592

  Mayer bond orders larger than 0.100000
B(  0-C ,  1-O ) :   1.9017 B(  0-C ,  2-C ) :   1.0218 B(  0-C ,  4-H ) :   0.9317
B(  2-C ,  3-C ) :   1.9285 B(  2-C ,  5-H ) :   0.9705 B(  3-C ,  6-H ) :   0.9507
B(  3-C ,  7-H ) :   0.9632

-----------------------------------------------------------------------------
         ABSORPTION SPECTRUM VIA TRANSITION ELECTRIC DIPOLE MOMENTS
-----------------------------------------------------------------------------
State   Energy    Wavelength  fosc         T2        TX        TY        TZ
        (cm-1)      (nm)                 (au**2)    (au)      (au)      (au)
-----------------------------------------------------------------------------
   1   32225.9    310.3   0.000037540   0.00038   0.00117   0.00012   0.01955

Dispersion correction           -0.025885486
FINAL SINGLE POINT ENERGY      -189.306463899261

DIPOLE MOMENT
-------------
                                X             Y             Z
Electronic contribution:     -1.61194      -1.62743      -0.13018
Nuclear contribution   :      1.97689       2.49863       0.16490
                        -----------------------------------------
Total Dipole Moment    :      0.36496       0.87120       0.03472
                        -----------------------------------------
Magnitude (a.u.)       :      0.94519
Magnitude (Debye)      :      2.40249

Rotational constants in cm-1:     0.739850     0.203847     0.160090
Rotational constants in MHz : 22180.147917  6111.168519  4799.388863

                             ****ORCA TERMINATED NORMALLY****
TOTAL RUN TIME: 0 days 0 hours 0 minutes 10 seconds 882 msec
