                         Program Version 5.0.3 -  RELEASE  -
|  1> ! B3LYP cc-pVDZ
|  2> !TightSCF
|  3> %scf
|  4>  ConvForced true
|  5>  convergence tight
|  6>  MaxIter 500
|  7> end
|  8>
|  9> %tddft
| 10>  nroots 1
| 11> end
| 12>
| 13> # 	30109
| 14> * xyz 0 1
| 15> 		C   -0.569970  -0.410773  -0.039247
| 16> 		O   -0.588997  -1.636998   0.008904
| 17> 		C    0.604908   0.370597  -0.007538
| 18> 		C    1.861926  -0.111179   0.022311
| 19> 		H   -1.513311   0.202564   0.221911
| 20> 		H    0.446328   1.527922   0.045405
| 21> 		H    2.066916  -1.243396  -0.040535
| 22> 		H    2.711804   0.580870  -0.081295
| 23> *
| 24>
| 25>                          ****END OF INPUT****

CARTESIAN COORDINATES (ANGSTROEM)
---------------------------------
  C     -0.569970   -0.410773   -0.039247
  O     -0.588997   -1.636998    0.008904
  C      0.604908    0.370597   -0.007538
  C      1.861926   -0.111179    0.022311
  H     -1.513311    0.202564    0.221911
  H      0.446328    1.527922    0.045405
  H      2.066916   -1.243396   -0.040535
  H      2.711804    0.580870   -0.081295

 Total Charge           Charge          ....    0
 Multiplicity           Mult            ....    1
 Number of Electrons    NEL             ....   30
 Basis Dimension        Dim             ....   76

ORBITAL ENERGIES
----------------

  NO   OCC          E(Eh)            E(eV)
   0   2.0000     -19.137646      -520.7618
   1   2.0000     -10.273440      -279.5545
   2   2.0000     -10.225435      -278.2482
   3   2.0000     -10.210686      -277.8469
   4   2.0000      -1.037076       -28.2203
   5   2.0000      -0.798405       -21.7257
   6   2.0000      -0.666956       -18.1488
   7   2.0000      -0.528020       -14.3682
   8   2.0000      -0.503214       -13.6931
   9   2.0000      -0.446418       -12.1477
  10   2.0000      -0.421920       -11.4810
  11   2.0000      -0.396038       -10.7767
  12   2.0000      -0.372676       -10.1410
  13   2.0000      -0.288168        -7.8415
  14   2.0000      -0.255461        -6.9514
  15   0.0000      -0.081643        -2.2216
  16   0.0000       0.053403         1.4532
  17   0.0000       0.062687         1.7058
  18   0.0000       0.083513         2.2725
  19   0.0000       0.118544         3.2257

MULLIKEN ATOMIC CHARGES
-----------------------
   0 C :    0.176333
   1 O :   -0.202435
   2 C :   -0.124301
   3 C :    0.050434
   4 H :   -0.016830
   5 H :    0.013113
   6 H :    0.060760
   7 H :    0.042926
Sum of atomic charges:    0.0000000

LOEWDIN ATOMIC CHARGES
----------------------
   0 C :   -0.050337
   1 O :   -0.016281
   2 C :   -0.094483
   3 C :    0.029813
   4 H :    0.001249
   5 H :    0.044063
   6 H :    0.049344
   7 H :    0.036633

  Mayer bond orders larger than 0.100000
B(  0-C ,  1-O ) :   2.1620 B(  0-C ,  2-C ) :   1.1078 B(  0-C ,  4-H ) :   0.9074
B(  1-O ,  3-C ) :   0.1118 B(  2-C ,  3-C ) :   1.9367 B(  2-C ,  5-H ) :   0.9324
B(  3-C ,  6-H ) :   0.9337 B(  3-C ,  7-H ) :   0.9355

-----------------------------------------------------------------------------
         ABSORPTION SPECTRUM VIA TRANSITION ELECTRIC DIPOLE MOMENTS
-----------------------------------------------------------------------------
State   Energy    Wavelength  fosc         T2        TX        TY        TZ
        (cm-1)      (nm)                 (au**2)    (au)      (au)      (au)
-----------------------------------------------------------------------------
   1   25377.3    394.1   0.000245572   0.00319   0.01976   0.01996   0.04896

FINAL SINGLE POINT ENERGY      -191.680451772281

DIPOLE MOMENT
-------------
                                X             Y             Z
Electronic contribution:     -1.80582      -1.89126      -0.16310
Nuclear contribution   :      2.32435       2.78754       0.13695
                        -----------------------------------------
Total Dipole Moment    :      0.51853       0.89627      -0.02615
                        -----------------------------------------
Magnitude (a.u.)       :      1.03579
Magnitude (Debye)      :      2.63276

Rotational constants in cm-1:     0.760639     0.209248     0.164381
Rotational constants in MHz : 22803.368916  6273.103040  4928.007928

                             ****ORCA TERMINATED NORMALLY****
TOTAL RUN TIME: 0 days 0 hours 3 minutes 22 seconds 315 msec
