                         Program Version 5.0.3 -  RELEASE  -
|  1> ! B3LYP cc-pVDZ
|  2> !TightSCF
|  3> %scf
|  4>  ConvForced true
|  5>  convergence tight
|  6>  MaxIter 500
|  7> end
|  8>
|  9> %tddft
| 10>  nroots 1
| 11> end
| 12>
| 13> # 	4646
| 14> * xyz 0 1
| 15> 		C   -1.207880  -0.292353   0.069119
| 16> 		O   -1.398870  -1.306942   0.536395
| 17> 		C    0.012697   0.505063   0.244559
| 18> 		C    1.156822   0.023954  -0.123587
| 19> 		H   -1.700171   0.012193  -0.866229
| 20> 		H   -0.278712   1.581994   0.408971
| 21> 		H    1.300916  -1.017140  -0.328579
| 22> 		H    2.093475   0.485063   0.018649
| 23> *
| 24>
| 25>                          ****END OF INPUT****

CARTESIAN COORDINATES (ANGSTROEM)
---------------------------------
  C     -1.207880   -0.292353    0.069119
  O     -1.398870   -1.306942    0.536395
  C      0.012697    0.505063    0.244559
  C      1.156822    0.023954   -0.123587
  H     -1.700171    0.012193   -0.866229
  H     -0.278712    1.581994    0.408971
  H      1.300916   -1.017140   -0.328579
  H      2.093475    0.485063    0.018649

 Total Charge           Charge          ....    0
 Multiplicity           Mult            ....    1
 Number of Electrons    NEL             ....   30
 Basis Dimension        Dim             ....   76

ORBITAL ENERGIES
----------------

  NO   OCC          E(Eh)            E(eV)
   0   2.0000     -19.141481      -520.8662
   1   2.0000     -10.266989      -279.3790
   2   2.0000     -10.199797      -277.5506
   3   2.0000     -10.195222      -277.4261
   4   2.0000      -1.095588       -29.8125
   5   2.0000      -0.804017       -21.8784
   6   2.0000      -0.658348       -17.9146
   7   2.0000      -0.549238       -14.9455
   8   2.0000      -0.502203       -13.6657
   9   2.0000      -0.473406       -12.8820
  10   2.0000      -0.457549       -12.4505
  11   2.0000      -0.401565       -10.9271
  12   2.0000      -0.379353       -10.3227
  13   2.0000      -0.293988        -7.9998
  14   2.0000      -0.248530        -6.7628
  15   0.0000      -0.032226        -0.8769
  16   0.0000       0.014244         0.3876
  17   0.0000       0.077573         2.1109
  18   0.0000       0.097826         2.6620
  19   0.0000       0.117140         3.1875

MULLIKEN ATOMIC CHARGES
-----------------------
   0 C :    0.148938
   1 O :   -0.118161
   2 C :   -0.105382
   3 C :    0.072589
   4 H :   -0.037988
   5 H :    0.007184
   6 H :    0.016267
   7 H :    0.016554
Sum of atomic charges:   -0.0000000

LOEWDIN ATOMIC CHARGES
----------------------
   0 C :   -0.084821
   1 O :    0.085978
   2 C :   -0.060920
   3 C :   -0.016103
   4 H :   -0.013867
   5 H :    0.037472
   6 H :    0.028248
   7 H :    0.024013

  Mayer bond orders larger than 0.100000
B(  0-C ,  1-O ) :   2.3051 B(  0-C ,  2-C ) :   0.9982 B(  0-C ,  4-H ) :   0.8981
B(  2-C ,  3-C ) :   2.0408 B(  2-C ,  5-H ) :   0.9268 B(  3-C ,  6-H ) :   0.9367
B(  3-C ,  7-H ) :   0.9495

-----------------------------------------------------------------------------
         ABSORPTION SPECTRUM VIA TRANSITION ELECTRIC DIPOLE MOMENTS
-----------------------------------------------------------------------------
State   Energy    Wavelength  fosc         T2        TX        TY        TZ
        (cm-1)      (nm)                 (au**2)    (au)      (au)      (au)
-----------------------------------------------------------------------------
   1   33928.4    294.7   0.000574623   0.00558  -0.04263  -0.02275   0.05693

FINAL SINGLE POINT ENERGY      -191.616624751721

DIPOLE MOMENT
-------------
                                X             Y             Z
Electronic contribution:     -2.39479      -1.46865       1.10974
Nuclear contribution   :      2.74636       2.11929      -1.38998
                        -----------------------------------------
Total Dipole Moment    :      0.35157       0.65064      -0.28024
                        -----------------------------------------
Magnitude (a.u.)       :      0.79086
Magnitude (Debye)      :      2.01021

Rotational constants in cm-1:     0.890073     0.198816     0.172604
Rotational constants in MHz : 26683.703623  5960.359164  5174.541069

                             ****ORCA TERMINATED NORMALLY****
TOTAL RUN TIME: 0 days 0 hours 3 minutes 20 seconds 18 msec
