                         Program Version 5.0.3 -  RELEASE  -
|  1> ! HF-3c
|  2> !TightSCF
|  3> %scf
|  4>  ConvForced true
|  5>  convergence tight
|  6>  MaxIter 500
|  7> end
|  8>
|  9> %tddft
| 10>  nroots 1
| 11> end
| 12>
| 13> # 	7863
| 14> * xyz 0 1
| 15> 		C   -1.156558  -0.262150   0.011175
| 16> 		O   -1.343560  -1.407765  -0.416950
| 17> 		C    0.044296   0.541588  -0.043800
| 18> 		C    1.245476   0.063566   0.117220
| 19> 		H   -2.129466   0.029071   0.504101
| 20> 		H   -0.139579   1.518683  -0.345164
| 21> 		H    1.246487  -0.967842   0.172207
| 22> 		H    2.197116   0.465082  -0.028533
| 23> *
| 24>
| 25>                          ****END OF INPUT****

CARTESIAN COORDINATES (ANGSTROEM)
---------------------------------
  C     -1.156558   -0.262150    0.011175
  O     -1.343560   -1.407765   -0.416950
  C      0.044296    0.541588   -0.043800
  C      1.245476    0.063566    0.117220
  H     -2.129466    0.029071    0.504101
  H     -0.139579    1.518683   -0.345164
  H      1.246487   -0.967842    0.172207
  H      2.197116    0.465082   -0.028533

 Total Charge           Charge          ....    0
 Multiplicity           Mult            ....    1
 Number of Electrons    NEL             ....   30
 Basis Dimension        Dim             ....   24

ORBITAL ENERGIES
----------------

  NO   OCC          E(Eh)            E(eV)
   0   2.0000     -20.355350      -553.8972
   1   2.0000     -11.286952      -307.1336
   2   2.0000     -11.210137      -305.0433
   3   2.0000     -11.201415      -304.8060
   4   2.0000      -1.384817       -37.6828
   5   2.0000      -1.107229       -30.1292
   6   2.0000      -0.906120       -24.6568
   7   2.0000      -0.763699       -20.7813
   8   2.0000      -0.715204       -19.4617
   9   2.0000      -0.650501       -17.7010
  10   2.0000      -0.598567       -16.2878
  11   2.0000      -0.549560       -14.9543
  12   2.0000      -0.505556       -13.7569
  13   2.0000      -0.416438       -11.3318
  14   2.0000      -0.410618       -11.1735
  15   0.0000       0.137028         3.7287
  16   0.0000       0.269937         7.3454
  17   0.0000       0.533647        14.5213
  18   0.0000       0.675497        18.3812
  19   0.0000       0.696143        18.9430

MULLIKEN ATOMIC CHARGES
-----------------------
   0 C :    0.146799
   1 O :   -0.341067
   2 C :   -0.179270
   3 C :   -0.238710
   4 H :    0.148145
   5 H :    0.152094
   6 H :    0.155150
   7 H :    0.156858
Sum of atomic charges:   -0.0000000

LOEWDIN ATOMIC CHARGES
----------------------
   0 C :    0.133732
   1 O :   -0.256847
   2 C :   -0.123253
   3 C :   -0.132077
   4 H :    0.086072
   5 H :    0.094357
   6 H :    0.097659
   7 H :    0.100357

  Mayer bond orders larger than 0.100000
B(  0-C ,  1-O ) :   1.9098 B(  0-C ,  2-C ) :   1.0283 B(  0-C ,  4-H ) :   0.9313
B(  2-C ,  3-C ) :   1.9630 B(  2-C ,  5-H ) :   0.9513 B(  3-C ,  6-H ) :   0.9592
B(  3-C ,  7-H ) :   0.9631

-----------------------------------------------------------------------------
         ABSORPTION SPECTRUM VIA TRANSITION ELECTRIC DIPOLE MOMENTS
-----------------------------------------------------------------------------
State   Energy    Wavelength  fosc         T2        TX        TY        TZ
        (cm-1)      (nm)                 (au**2)    (au)      (au)      (au)
-----------------------------------------------------------------------------
   1   30204.5    331.1   0.000068327   0.00074  -0.02068   0.00935  -0.01515

Dispersion correction           -0.025823573
FINAL SINGLE POINT ENERGY      -189.326586797338

DIPOLE MOMENT
-------------
                                X             Y             Z
Electronic contribution:     -1.97215      -1.31710      -0.37237
Nuclear contribution   :      2.33949       2.12546       0.63723
                        -----------------------------------------
Total Dipole Moment    :      0.36734       0.80837       0.26487
                        -----------------------------------------
Magnitude (a.u.)       :      0.92658
Magnitude (Debye)      :      2.35518

Rotational constants in cm-1:     0.870945     0.192692     0.161938
Rotational constants in MHz : 26110.261177  5776.769906  4854.789122

                             ****ORCA TERMINATED NORMALLY****
TOTAL RUN TIME: 0 days 0 hours 0 minutes 11 seconds 525 msec
