                         Program Version 5.0.3 -  RELEASE  -
|  1> ! B3LYP cc-pVDZ
|  2> !TightSCF
|  3> %scf
|  4>  ConvForced true
|  5>  convergence tight
|  6>  MaxIter 500
|  7> end
|  8>
|  9> %tddft
| 10>  nroots 1
| 11> end
| 12>
| 13> # 	28298
| 14> * xyz 0 1
| 15> 		C   -0.527273  -0.446728  -0.034447
| 16> 		O   -0.596970  -1.617802   0.014498
| 17> 		C    0.601872   0.415858   0.039660
| 18> 		C    1.826329  -0.139753  -0.007655
| 19> 		H   -1.347851   0.096736  -0.109771
| 20> 		H    0.515113   1.555612   0.062619
| 21> 		H    1.896786  -1.220571   0.013036
| 22> 		H    2.744732   0.520803  -0.171608
| 23> *
| 24>
| 25>                          ****END OF INPUT****

CARTESIAN COORDINATES (ANGSTROEM)
---------------------------------
  C     -0.527273   -0.446728   -0.034447
  O     -0.596970   -1.617802    0.014498
  C      0.601872    0.415858    0.039660
  C      1.826329   -0.139753   -0.007655
  H     -1.347851    0.096736   -0.109771
  H      0.515113    1.555612    0.062619
  H      1.896786   -1.220571    0.013036
  H      2.744732    0.520803   -0.171608

 Total Charge           Charge          ....    0
 Multiplicity           Mult            ....    1
 Number of Electrons    NEL             ....   30
 Basis Dimension        Dim             ....   76

ORBITAL ENERGIES
----------------

  NO   OCC          E(Eh)            E(eV)
   0   2.0000     -19.130708      -520.5730
   1   2.0000     -10.252513      -278.9851
   2   2.0000     -10.217868      -278.0423
   3   2.0000     -10.201541      -277.5980
   4   2.0000      -1.062215       -28.9043
   5   2.0000      -0.800729       -21.7889
   6   2.0000      -0.669755       -18.2250
   7   2.0000      -0.543346       -14.7852
   8   2.0000      -0.516490       -14.0544
   9   2.0000      -0.448112       -12.1937
  10   2.0000      -0.416667       -11.3381
  11   2.0000      -0.409191       -11.1346
  12   2.0000      -0.385009       -10.4766
  13   2.0000      -0.287010        -7.8099
  14   2.0000      -0.251512        -6.8440
  15   0.0000      -0.068403        -1.8613
  16   0.0000       0.058297         1.5863
  17   0.0000       0.076845         2.0911
  18   0.0000       0.093655         2.5485
  19   0.0000       0.136446         3.7129

MULLIKEN ATOMIC CHARGES
-----------------------
   0 C :    0.272095
   1 O :   -0.176470
   2 C :   -0.171208
   3 C :    0.062497
   4 H :   -0.077671
   5 H :    0.009535
   6 H :    0.036820
   7 H :    0.044401
Sum of atomic charges:    0.0000000

LOEWDIN ATOMIC CHARGES
----------------------
   0 C :   -0.067387
   1 O :    0.031467
   2 C :   -0.086751
   3 C :    0.037146
   4 H :   -0.029339
   5 H :    0.042689
   6 H :    0.029933
   7 H :    0.042242

  Mayer bond orders larger than 0.100000
B(  0-C ,  1-O ) :   2.2278 B(  0-C ,  2-C ) :   1.0828 B(  0-C ,  4-H ) :   0.9256
B(  2-C ,  3-C ) :   1.9414 B(  2-C ,  5-H ) :   0.9433 B(  3-C ,  6-H ) :   0.9312
B(  3-C ,  7-H ) :   0.9436

-----------------------------------------------------------------------------
         ABSORPTION SPECTRUM VIA TRANSITION ELECTRIC DIPOLE MOMENTS
-----------------------------------------------------------------------------
State   Energy    Wavelength  fosc         T2        TX        TY        TZ
        (cm-1)      (nm)                 (au**2)    (au)      (au)      (au)
-----------------------------------------------------------------------------
   1   27683.3    361.2   0.000094642   0.00113   0.02402   0.00963  -0.02134

FINAL SINGLE POINT ENERGY      -191.656979116969

DIPOLE MOMENT
-------------
                                X             Y             Z
Electronic contribution:     -1.95371      -1.79082       0.13374
Nuclear contribution   :      2.41399       2.68230      -0.19247
                        -----------------------------------------
Total Dipole Moment    :      0.46028       0.89148      -0.05873
                        -----------------------------------------
Magnitude (a.u.)       :      1.00501
Magnitude (Debye)      :      2.55454

Rotational constants in cm-1:     0.803713     0.214564     0.169636
Rotational constants in MHz : 24094.698932  6432.473549  5085.554321

                             ****ORCA TERMINATED NORMALLY****
TOTAL RUN TIME: 0 days 0 hours 3 minutes 22 seconds 227 msec
