                         Program Version 5.0.3 -  RELEASE  -
|  1> ! HF-3c
|  2> !TightSCF
|  3> %scf
|  4>  ConvForced true
|  5>  convergence tight
|  6>  MaxIter 500
|  7> end
|  8>
|  9> %tddft
| 10>  nroots 1
| 11> end
| 12>
| 13> # 	16675
| 14> * xyz 0 1
| 15> 		C   -1.182586  -0.325873   0.081316
| 16> 		O   -2.064262  -0.444826   0.898934
| 17> 		C    0.036420   0.418162   0.300028
| 18> 		C    1.201685   0.058159  -0.276406
| 19> 		H   -1.210278  -0.743810  -0.844584
| 20> 		H    0.001097   1.096243   1.004086
| 21> 		H    1.260269  -0.616562  -1.090180
| 22> 		H    2.008801   0.539375  -0.072967
| 23> *
| 24>
| 25>                          ****END OF INPUT****

CARTESIAN COORDINATES (ANGSTROEM)
---------------------------------
  C     -1.182586   -0.325873    0.081316
  O     -2.064262   -0.444826    0.898934
  C      0.036420    0.418162    0.300028
  C      1.201685    0.058159   -0.276406
  H     -1.210278   -0.743810   -0.844584
  H      0.001097    1.096243    1.004086
  H      1.260269   -0.616562   -1.090180
  H      2.008801    0.539375   -0.072967

 Total Charge           Charge          ....    0
 Multiplicity           Mult            ....    1
 Number of Electrons    NEL             ....   30
 Basis Dimension        Dim             ....   24

ORBITAL ENERGIES
----------------

  NO   OCC          E(Eh)            E(eV)
   0   2.0000     -20.380554      -554.5831
   1   2.0000     -11.308305      -307.7146
   2   2.0000     -11.207384      -304.9684
   3   2.0000     -11.205656      -304.9214
   4   2.0000      -1.413333       -38.4587
   5   2.0000      -1.108052       -30.1516
   6   2.0000      -0.920373       -25.0446
   7   2.0000      -0.821110       -22.3435
   8   2.0000      -0.690126       -18.7793
   9   2.0000      -0.678659       -18.4672
  10   2.0000      -0.602372       -16.3914
  11   2.0000      -0.584150       -15.8955
  12   2.0000      -0.543564       -14.7911
  13   2.0000      -0.428568       -11.6619
  14   2.0000      -0.405320       -11.0293
  15   0.0000       0.118610         3.2275
  16   0.0000       0.280202         7.6247
  17   0.0000       0.616070        16.7641
  18   0.0000       0.707567        19.2539
  19   0.0000       0.752890        20.4872

MULLIKEN ATOMIC CHARGES
-----------------------
   0 C :    0.157698
   1 O :   -0.337125
   2 C :   -0.170551
   3 C :   -0.242146
   4 H :    0.138840
   5 H :    0.156284
   6 H :    0.149994
   7 H :    0.147005
Sum of atomic charges:    0.0000000

LOEWDIN ATOMIC CHARGES
----------------------
   0 C :    0.147491
   1 O :   -0.242437
   2 C :   -0.113944
   3 C :   -0.131399
   4 H :    0.066834
   5 H :    0.091335
   6 H :    0.096427
   7 H :    0.085694

  Mayer bond orders larger than 0.100000
B(  0-C ,  1-O ) :   1.9080 B(  0-C ,  2-C ) :   1.0342 B(  0-C ,  4-H ) :   0.9308
B(  2-C ,  3-C ) :   1.9411 B(  2-C ,  5-H ) :   0.9592 B(  3-C ,  6-H ) :   0.9659
B(  3-C ,  7-H ) :   0.9688

-----------------------------------------------------------------------------
         ABSORPTION SPECTRUM VIA TRANSITION ELECTRIC DIPOLE MOMENTS
-----------------------------------------------------------------------------
State   Energy    Wavelength  fosc         T2        TX        TY        TZ
        (cm-1)      (nm)                 (au**2)    (au)      (au)      (au)
-----------------------------------------------------------------------------
   1   32564.3    307.1   0.000049609   0.00050  -0.02027  -0.00332   0.00893

Dispersion correction           -0.026241798
FINAL SINGLE POINT ENERGY      -189.308052014452

DIPOLE MOMENT
-------------
                                X             Y             Z
Electronic contribution:     -3.06317      -0.48395       1.25162
Nuclear contribution   :      3.93702       0.58982      -1.91149
                        -----------------------------------------
Total Dipole Moment    :      0.87385       0.10587      -0.65987
                        -----------------------------------------
Magnitude (a.u.)       :      1.10011
Magnitude (Debye)      :      2.79625

Rotational constants in cm-1:     1.584385     0.158164     0.147327
Rotational constants in MHz : 47498.653302  4741.625414  4416.755674

                             ****ORCA TERMINATED NORMALLY****
TOTAL RUN TIME: 0 days 0 hours 0 minutes 16 seconds 58 msec
