                         Program Version 5.0.3 -  RELEASE  -
|  1> ! HF-3c
|  2> !TightSCF
|  3> %scf
|  4>  ConvForced true
|  5>  convergence tight
|  6>  MaxIter 500
|  7> end
|  8>
|  9> %tddft
| 10>  nroots 1
| 11> end
| 12>
| 13> # 	293
| 14> * xyz 0 1
| 15> 		C   -1.225871  -0.373131   0.007476
| 16> 		O   -1.826812  -1.035947   0.818339
| 17> 		C   -0.017868   0.445385   0.215858
| 18> 		C    1.158821   0.045301  -0.203538
| 19> 		H   -1.575908  -0.395778  -1.006291
| 20> 		H   -0.033181   1.595979   0.799901
| 21> 		H    1.433316  -0.869371  -0.608610
| 22> 		H    2.001354   0.605397  -0.057073
| 23> *
| 24>
| 25>                          ****END OF INPUT****

CARTESIAN COORDINATES (ANGSTROEM)
---------------------------------
  C     -1.225871   -0.373131    0.007476
  O     -1.826812   -1.035947    0.818339
  C     -0.017868    0.445385    0.215858
  C      1.158821    0.045301   -0.203538
  H     -1.575908   -0.395778   -1.006291
  H     -0.033181    1.595979    0.799901
  H      1.433316   -0.869371   -0.608610
  H      2.001354    0.605397   -0.057073

 Total Charge           Charge          ....    0
 Multiplicity           Mult            ....    1
 Number of Electrons    NEL             ....   30
 Basis Dimension        Dim             ....   24

ORBITAL ENERGIES
----------------

  NO   OCC          E(Eh)            E(eV)
   0   2.0000     -20.381817      -554.6174
   1   2.0000     -11.306247      -307.6586
   2   2.0000     -11.199250      -304.7471
   3   2.0000     -11.178853      -304.1920
   4   2.0000      -1.411990       -38.4222
   5   2.0000      -1.086858       -29.5749
   6   2.0000      -0.897332       -24.4176
   7   2.0000      -0.767775       -20.8922
   8   2.0000      -0.683881       -18.6093
   9   2.0000      -0.644143       -17.5280
  10   2.0000      -0.608398       -16.5553
  11   2.0000      -0.541016       -14.7218
  12   2.0000      -0.497755       -13.5446
  13   2.0000      -0.419138       -11.4053
  14   2.0000      -0.406721       -11.0674
  15   0.0000       0.171516         4.6672
  16   0.0000       0.229702         6.2505
  17   0.0000       0.466815        12.7027
  18   0.0000       0.585889        15.9428
  19   0.0000       0.737657        20.0727

MULLIKEN ATOMIC CHARGES
-----------------------
   0 C :    0.160308
   1 O :   -0.336248
   2 C :   -0.136511
   3 C :   -0.276369
   4 H :    0.141779
   5 H :    0.167601
   6 H :    0.140985
   7 H :    0.138454
Sum of atomic charges:    0.0000000

LOEWDIN ATOMIC CHARGES
----------------------
   0 C :    0.146486
   1 O :   -0.240017
   2 C :   -0.103731
   3 C :   -0.177101
   4 H :    0.074126
   5 H :    0.128536
   6 H :    0.087212
   7 H :    0.084490

  Mayer bond orders larger than 0.100000
B(  0-C ,  1-O ) :   1.9421 B(  0-C ,  2-C ) :   0.9976 B(  0-C ,  4-H ) :   0.9221
B(  2-C ,  3-C ) :   1.9987 B(  2-C ,  5-H ) :   0.9309 B(  3-C ,  6-H ) :   0.9646
B(  3-C ,  7-H ) :   0.9646

-----------------------------------------------------------------------------
         ABSORPTION SPECTRUM VIA TRANSITION ELECTRIC DIPOLE MOMENTS
-----------------------------------------------------------------------------
State   Energy    Wavelength  fosc         T2        TX        TY        TZ
        (cm-1)      (nm)                 (au**2)    (au)      (au)      (au)
-----------------------------------------------------------------------------
   1   34010.4    294.0   0.000076770   0.00074   0.00565   0.02615   0.00522

Dispersion correction           -0.025006462
FINAL SINGLE POINT ENERGY      -189.296830641728

DIPOLE MOMENT
-------------
                                X             Y             Z
Electronic contribution:     -3.02619      -1.18125       1.11009
Nuclear contribution   :      3.59464       1.81850      -1.64278
                        -----------------------------------------
Total Dipole Moment    :      0.56845       0.63726      -0.53269
                        -----------------------------------------
Magnitude (a.u.)       :      1.00647
Magnitude (Debye)      :      2.55826

Rotational constants in cm-1:     1.103158     0.160914     0.155164
Rotational constants in MHz : 33071.846422  4824.075487  4651.687667

                             ****ORCA TERMINATED NORMALLY****
TOTAL RUN TIME: 0 days 0 hours 0 minutes 13 seconds 222 msec
