                         Program Version 5.0.3 -  RELEASE  -
|  1> ! HF-3c
|  2> !TightSCF
|  3> %scf
|  4>  ConvForced true
|  5>  convergence tight
|  6>  MaxIter 500
|  7> end
|  8>
|  9> %tddft
| 10>  nroots 1
| 11> end
| 12>
| 13> # 	31431
| 14> * xyz 0 1
| 15> 		C   -0.595193  -0.433977   0.043851
| 16> 		O   -0.559529  -1.615929  -0.034884
| 17> 		C    0.664817   0.428808  -0.052347
| 18> 		C    1.822906  -0.169036   0.021157
| 19> 		H   -1.596560   0.135181   0.289517
| 20> 		H    0.403435   1.431607  -0.105133
| 21> 		H    1.855604  -1.225359   0.231401
| 22> 		H    2.627931   0.638117  -0.027263
| 23> *
| 24>
| 25>                          ****END OF INPUT****

CARTESIAN COORDINATES (ANGSTROEM)
---------------------------------
  C     -0.595193   -0.433977    0.043851
  O     -0.559529   -1.615929   -0.034884
  C      0.664817    0.428808   -0.052347
  C      1.822906   -0.169036    0.021157
  H     -1.596560    0.135181    0.289517
  H      0.403435    1.431607   -0.105133
  H      1.855604   -1.225359    0.231401
  H      2.627931    0.638117   -0.027263

 Total Charge           Charge          ....    0
 Multiplicity           Mult            ....    1
 Number of Electrons    NEL             ....   30
 Basis Dimension        Dim             ....   24

ORBITAL ENERGIES
----------------

  NO   OCC          E(Eh)            E(eV)
   0   2.0000     -20.365745      -554.1801
   1   2.0000     -11.290196      -307.2218
   2   2.0000     -11.188026      -304.4417
   3   2.0000     -11.181189      -304.2556
   4   2.0000      -1.416648       -38.5490
   5   2.0000      -1.084150       -29.5012
   6   2.0000      -0.873163       -23.7600
   7   2.0000      -0.736437       -20.0395
   8   2.0000      -0.704494       -19.1703
   9   2.0000      -0.619188       -16.8489
  10   2.0000      -0.585686       -15.9373
  11   2.0000      -0.544466       -14.8157
  12   2.0000      -0.540247       -14.7009
  13   2.0000      -0.404437       -11.0053
  14   2.0000      -0.395361       -10.7583
  15   0.0000       0.152262         4.1433
  16   0.0000       0.310193         8.4408
  17   0.0000       0.515916        14.0388
  18   0.0000       0.564887        15.3713
  19   0.0000       0.645968        17.5777

MULLIKEN ATOMIC CHARGES
-----------------------
   0 C :    0.186579
   1 O :   -0.370118
   2 C :   -0.180105
   3 C :   -0.232135
   4 H :    0.127814
   5 H :    0.138525
   6 H :    0.172133
   7 H :    0.157307
Sum of atomic charges:   -0.0000000

LOEWDIN ATOMIC CHARGES
----------------------
   0 C :    0.151017
   1 O :   -0.264676
   2 C :   -0.133121
   3 C :   -0.133111
   4 H :    0.070875
   5 H :    0.083510
   6 H :    0.115216
   7 H :    0.110289

  Mayer bond orders larger than 0.100000
B(  0-C ,  1-O ) :   1.9267 B(  0-C ,  2-C ) :   0.9875 B(  0-C ,  4-H ) :   0.9146
B(  2-C ,  3-C ) :   1.9698 B(  2-C ,  5-H ) :   0.9639 B(  3-C ,  6-H ) :   0.9530
B(  3-C ,  7-H ) :   0.9571

-----------------------------------------------------------------------------
         ABSORPTION SPECTRUM VIA TRANSITION ELECTRIC DIPOLE MOMENTS
-----------------------------------------------------------------------------
State   Energy    Wavelength  fosc         T2        TX        TY        TZ
        (cm-1)      (nm)                 (au**2)    (au)      (au)      (au)
-----------------------------------------------------------------------------
   1   34747.9    287.8   0.000041366   0.00039  -0.01350  -0.00176   0.01437

Dispersion correction           -0.026114341
FINAL SINGLE POINT ENERGY      -189.318179370017

DIPOLE MOMENT
-------------
                                X             Y             Z
Electronic contribution:     -1.69090      -1.76321      -0.23645
Nuclear contribution   :      1.92986       2.70668       0.36495
                        -----------------------------------------
Total Dipole Moment    :      0.23896       0.94347       0.12851
                        -----------------------------------------
Magnitude (a.u.)       :      0.98171
Magnitude (Debye)      :      2.49532

Rotational constants in cm-1:     0.762274     0.214964     0.168452
Rotational constants in MHz : 22852.391027  6444.459360  5050.074817

                             ****ORCA TERMINATED NORMALLY****
TOTAL RUN TIME: 0 days 0 hours 0 minutes 14 seconds 578 msec
