                         Program Version 5.0.3 -  RELEASE  -
|  1> ! B3LYP cc-pVDZ
|  2> !TightSCF
|  3> %scf
|  4>  ConvForced true
|  5>  convergence tight
|  6>  MaxIter 500
|  7> end
|  8>
|  9> %tddft
| 10>  nroots 1
| 11> end
| 12>
| 13> # 	28323
| 14> * xyz 0 1
| 15> 		C   -0.577004  -0.442049  -0.032255
| 16> 		O   -0.605992  -1.658035   0.019702
| 17> 		C    0.642377   0.400425   0.021938
| 18> 		C    1.837592  -0.077779  -0.019834
| 19> 		H   -1.482654   0.176863  -0.100098
| 20> 		H    0.466883   1.556017   0.151464
| 21> 		H    2.043184  -1.095588   0.011594
| 22> 		H    2.874881   0.369186  -0.008625
| 23> *
| 24>
| 25>                          ****END OF INPUT****

CARTESIAN COORDINATES (ANGSTROEM)
---------------------------------
  C     -0.577004   -0.442049   -0.032255
  O     -0.605992   -1.658035    0.019702
  C      0.642377    0.400425    0.021938
  C      1.837592   -0.077779   -0.019834
  H     -1.482654    0.176863   -0.100098
  H      0.466883    1.556017    0.151464
  H      2.043184   -1.095588    0.011594
  H      2.874881    0.369186   -0.008625

 Total Charge           Charge          ....    0
 Multiplicity           Mult            ....    1
 Number of Electrons    NEL             ....   30
 Basis Dimension        Dim             ....   76

ORBITAL ENERGIES
----------------

  NO   OCC          E(Eh)            E(eV)
   0   2.0000     -19.141837      -520.8759
   1   2.0000     -10.277273      -279.6588
   2   2.0000     -10.208719      -277.7934
   3   2.0000     -10.206239      -277.7259
   4   2.0000      -1.043862       -28.4049
   5   2.0000      -0.802550       -21.8385
   6   2.0000      -0.662997       -18.0411
   7   2.0000      -0.552584       -15.0366
   8   2.0000      -0.498377       -13.5615
   9   2.0000      -0.455687       -12.3999
  10   2.0000      -0.426282       -11.5997
  11   2.0000      -0.398773       -10.8512
  12   2.0000      -0.362815        -9.8727
  13   2.0000      -0.295652        -8.0451
  14   2.0000      -0.258542        -7.0353
  15   0.0000      -0.068202        -1.8559
  16   0.0000       0.053879         1.4661
  17   0.0000       0.067910         1.8479
  18   0.0000       0.091941         2.5018
  19   0.0000       0.121060         3.2942

MULLIKEN ATOMIC CHARGES
-----------------------
   0 C :    0.206082
   1 O :   -0.191701
   2 C :   -0.153444
   3 C :    0.098496
   4 H :   -0.019146
   5 H :    0.013225
   6 H :    0.011114
   7 H :    0.035375
Sum of atomic charges:    0.0000000

LOEWDIN ATOMIC CHARGES
----------------------
   0 C :   -0.025033
   1 O :   -0.005416
   2 C :   -0.092335
   3 C :    0.021133
   4 H :   -0.006036
   5 H :    0.044300
   6 H :    0.020650
   7 H :    0.042736

  Mayer bond orders larger than 0.100000
B(  0-C ,  1-O ) :   2.2018 B(  0-C ,  2-C ) :   1.0471 B(  0-C ,  4-H ) :   0.9141
B(  2-C ,  3-C ) :   1.9692 B(  2-C ,  5-H ) :   0.9339 B(  3-C ,  6-H ) :   0.9333
B(  3-C ,  7-H ) :   0.9533

-----------------------------------------------------------------------------
         ABSORPTION SPECTRUM VIA TRANSITION ELECTRIC DIPOLE MOMENTS
-----------------------------------------------------------------------------
State   Energy    Wavelength  fosc         T2        TX        TY        TZ
        (cm-1)      (nm)                 (au**2)    (au)      (au)      (au)
-----------------------------------------------------------------------------
   1   28545.0    350.3   0.000057384   0.00066   0.00261   0.00591   0.02490

FINAL SINGLE POINT ENERGY      -191.662629669458

DIPOLE MOMENT
-------------
                                X             Y             Z
Electronic contribution:     -2.06251      -1.88061      -0.05356
Nuclear contribution   :      2.50331       2.73054       0.05074
                        -----------------------------------------
Total Dipole Moment    :      0.44080       0.84992      -0.00282
                        -----------------------------------------
Magnitude (a.u.)       :      0.95743
Magnitude (Debye)      :      2.43361

Rotational constants in cm-1:     0.788982     0.202846     0.161554
Rotational constants in MHz : 23653.097123  6081.172785  4843.275219

                             ****ORCA TERMINATED NORMALLY****
TOTAL RUN TIME: 0 days 0 hours 3 minutes 21 seconds 124 msec
