                         Program Version 5.0.3 -  RELEASE  -
|  1> ! HF-3c
|  2> !TightSCF
|  3> %scf
|  4>  ConvForced true
|  5>  convergence tight
|  6>  MaxIter 500
|  7> end
|  8>
|  9> %tddft
| 10>  nroots 1
| 11> end
| 12>
| 13> # 	17491
| 14> * xyz 0 1
| 15> 		C   -1.166682  -0.297327   0.025078
| 16> 		O   -1.697560  -0.975383  -0.781662
| 17> 		C    0.056949   0.552993  -0.221702
| 18> 		C    1.203904   0.030708   0.102939
| 19> 		H   -1.722150  -0.291363   1.086774
| 20> 		H   -0.110190   1.431904  -0.812382
| 21> 		H    1.165181  -1.032387   0.585257
| 22> 		H    2.343029   0.581738   0.027445
| 23> *
| 24>
| 25>                          ****END OF INPUT****

CARTESIAN COORDINATES (ANGSTROEM)
---------------------------------
  C     -1.166682   -0.297327    0.025078
  O     -1.697560   -0.975383   -0.781662
  C      0.056949    0.552993   -0.221702
  C      1.203904    0.030708    0.102939
  H     -1.722150   -0.291363    1.086774
  H     -0.110190    1.431904   -0.812382
  H      1.165181   -1.032387    0.585257
  H      2.343029    0.581738    0.027445

 Total Charge           Charge          ....    0
 Multiplicity           Mult            ....    1
 Number of Electrons    NEL             ....   30
 Basis Dimension        Dim             ....   24

ORBITAL ENERGIES
----------------

  NO   OCC          E(Eh)            E(eV)
   0   2.0000     -20.373003      -554.3776
   1   2.0000     -11.296360      -307.3896
   2   2.0000     -11.185849      -304.3824
   3   2.0000     -11.181666      -304.2686
   4   2.0000      -1.423694       -38.7407
   5   2.0000      -1.078824       -29.3563
   6   2.0000      -0.844746       -22.9867
   7   2.0000      -0.749388       -20.3919
   8   2.0000      -0.676196       -18.4002
   9   2.0000      -0.619657       -16.8617
  10   2.0000      -0.595980       -16.2174
  11   2.0000      -0.517965       -14.0945
  12   2.0000      -0.514244       -13.9933
  13   2.0000      -0.406503       -11.0615
  14   2.0000      -0.392747       -10.6872
  15   0.0000       0.200682         5.4608
  16   0.0000       0.236600         6.4382
  17   0.0000       0.465164        12.6578
  18   0.0000       0.522425        14.2159
  19   0.0000       0.579481        15.7685

MULLIKEN ATOMIC CHARGES
-----------------------
   0 C :    0.187791
   1 O :   -0.358134
   2 C :   -0.194581
   3 C :   -0.204754
   4 H :    0.131314
   5 H :    0.154121
   6 H :    0.134868
   7 H :    0.149375
Sum of atomic charges:    0.0000000

LOEWDIN ATOMIC CHARGES
----------------------
   0 C :    0.151969
   1 O :   -0.251792
   2 C :   -0.147385
   3 C :   -0.130892
   4 H :    0.074909
   5 H :    0.100094
   6 H :    0.092072
   7 H :    0.111027

  Mayer bond orders larger than 0.100000
B(  0-C ,  1-O ) :   1.9526 B(  0-C ,  2-C ) :   0.9694 B(  0-C ,  4-H ) :   0.9077
B(  2-C ,  3-C ) :   2.0034 B(  2-C ,  5-H ) :   0.9491 B(  3-C ,  6-H ) :   0.9589
B(  3-C ,  7-H ) :   0.9523

-----------------------------------------------------------------------------
         ABSORPTION SPECTRUM VIA TRANSITION ELECTRIC DIPOLE MOMENTS
-----------------------------------------------------------------------------
State   Energy    Wavelength  fosc         T2        TX        TY        TZ
        (cm-1)      (nm)                 (au**2)    (au)      (au)      (au)
-----------------------------------------------------------------------------
   1   36272.0    275.7   0.000045773   0.00042  -0.01656   0.00974   0.00681

Dispersion correction           -0.025012586
FINAL SINGLE POINT ENERGY      -189.283307014872

DIPOLE MOMENT
-------------
                                X             Y             Z
Electronic contribution:     -2.52220      -0.90039      -1.05654
Nuclear contribution   :      3.18273       1.40360       1.67661
                        -----------------------------------------
Total Dipole Moment    :      0.66053       0.50321       0.62006
                        -----------------------------------------
Magnitude (a.u.)       :      1.03634
Magnitude (Debye)      :      2.63417

Rotational constants in cm-1:     0.990864     0.169146     0.162414
Rotational constants in MHz : 29705.343411  5070.857913  4869.046093

                             ****ORCA TERMINATED NORMALLY****
TOTAL RUN TIME: 0 days 0 hours 0 minutes 11 seconds 576 msec
