                         Program Version 5.0.3 -  RELEASE  -
|  1> ! HF-3c
|  2> !TightSCF
|  3> %scf
|  4>  ConvForced true
|  5>  convergence tight
|  6>  MaxIter 500
|  7> end
|  8>
|  9> %tddft
| 10>  nroots 1
| 11> end
| 12>
| 13> # 	29539
| 14> * xyz 0 1
| 15> 		C   -0.594325  -0.469740   0.029698
| 16> 		O   -0.564394  -1.626570  -0.025633
| 17> 		C    0.599264   0.515020   0.004554
| 18> 		C    1.863531  -0.164177  -0.013377
| 19> 		H   -1.665686  -0.161500   0.023743
| 20> 		H    0.415600   1.548131  -0.075236
| 21> 		H    1.916957  -1.313456   0.347190
| 22> 		H    2.981059   0.376977  -0.154978
| 23> *
| 24>
| 25>                          ****END OF INPUT****

CARTESIAN COORDINATES (ANGSTROEM)
---------------------------------
  C     -0.594325   -0.469740    0.029698
  O     -0.564394   -1.626570   -0.025633
  C      0.599264    0.515020    0.004554
  C      1.863531   -0.164177   -0.013377
  H     -1.665686   -0.161500    0.023743
  H      0.415600    1.548131   -0.075236
  H      1.916957   -1.313456    0.347190
  H      2.981059    0.376977   -0.154978

 Total Charge           Charge          ....    0
 Multiplicity           Mult            ....    1
 Number of Electrons    NEL             ....   30
 Basis Dimension        Dim             ....   24

ORBITAL ENERGIES
----------------

  NO   OCC          E(Eh)            E(eV)
   0   2.0000     -20.357286      -553.9499
   1   2.0000     -11.292859      -307.2943
   2   2.0000     -11.185309      -304.3677
   3   2.0000     -11.172245      -304.0123
   4   2.0000      -1.431997       -38.9666
   5   2.0000      -1.027172       -27.9508
   6   2.0000      -0.843448       -22.9514
   7   2.0000      -0.738892       -20.1063
   8   2.0000      -0.691489       -18.8164
   9   2.0000      -0.591928       -16.1072
  10   2.0000      -0.568438       -15.4680
  11   2.0000      -0.550630       -14.9834
  12   2.0000      -0.510929       -13.9031
  13   2.0000      -0.389668       -10.6034
  14   2.0000      -0.362722        -9.8702
  15   0.0000       0.140706         3.8288
  16   0.0000       0.298313         8.1175
  17   0.0000       0.464147        12.6301
  18   0.0000       0.516165        14.0456
  19   0.0000       0.597098        16.2479

MULLIKEN ATOMIC CHARGES
-----------------------
   0 C :    0.170270
   1 O :   -0.379964
   2 C :   -0.195917
   3 C :   -0.167648
   4 H :    0.130775
   5 H :    0.142029
   6 H :    0.158196
   7 H :    0.142260
Sum of atomic charges:    0.0000000

LOEWDIN ATOMIC CHARGES
----------------------
   0 C :    0.138985
   1 O :   -0.269260
   2 C :   -0.157565
   3 C :   -0.085428
   4 H :    0.067386
   5 H :    0.088848
   6 H :    0.113395
   7 H :    0.103639

  Mayer bond orders larger than 0.100000
B(  0-C ,  1-O ) :   1.9097 B(  0-C ,  2-C ) :   0.9977 B(  0-C ,  4-H ) :   0.9256
B(  2-C ,  3-C ) :   1.9265 B(  2-C ,  5-H ) :   0.9650 B(  3-C ,  6-H ) :   0.9544
B(  3-C ,  7-H ) :   0.9589

-----------------------------------------------------------------------------
         ABSORPTION SPECTRUM VIA TRANSITION ELECTRIC DIPOLE MOMENTS
-----------------------------------------------------------------------------
State   Energy    Wavelength  fosc         T2        TX        TY        TZ
        (cm-1)      (nm)                 (au**2)    (au)      (au)      (au)
-----------------------------------------------------------------------------
   1   35236.4    283.8   0.000039001   0.00036  -0.00806  -0.00133   0.01725

Dispersion correction           -0.024691419
FINAL SINGLE POINT ENERGY      -189.272254735954

DIPOLE MOMENT
-------------
                                X             Y             Z
Electronic contribution:     -1.75937      -1.41305      -0.07462
Nuclear contribution   :      2.26564       2.21252       0.13282
                        -----------------------------------------
Total Dipole Moment    :      0.50627       0.79947       0.05820
                        -----------------------------------------
Magnitude (a.u.)       :      0.94807
Magnitude (Debye)      :      2.40981

Rotational constants in cm-1:     0.700204     0.205896     0.159637
Rotational constants in MHz : 20991.594771  6172.596960  4785.809576

                             ****ORCA TERMINATED NORMALLY****
TOTAL RUN TIME: 0 days 0 hours 0 minutes 10 seconds 798 msec
