                         Program Version 5.0.3 -  RELEASE  -
|  1> ! HF-3c
|  2> !TightSCF
|  3> %scf
|  4>  ConvForced true
|  5>  convergence tight
|  6>  MaxIter 500
|  7> end
|  8>
|  9> %tddft
| 10>  nroots 1
| 11> end
| 12>
| 13> # 	15936
| 14> * xyz 0 1
| 15> 		C   -1.221351  -0.345242   0.123478
| 16> 		O   -1.982743  -0.516189   0.958073
| 17> 		C    0.061234   0.491298   0.232242
| 18> 		C    1.248847   0.047175  -0.251445
| 19> 		H   -1.366031  -0.839724  -0.894547
| 20> 		H    0.053097   1.251519   1.041711
| 21> 		H    1.205818  -0.802031  -1.106558
| 22> 		H    2.019296   0.616796  -0.051001
| 23> *
| 24>
| 25>                          ****END OF INPUT****

CARTESIAN COORDINATES (ANGSTROEM)
---------------------------------
  C     -1.221351   -0.345242    0.123478
  O     -1.982743   -0.516189    0.958073
  C      0.061234    0.491298    0.232242
  C      1.248847    0.047175   -0.251445
  H     -1.366031   -0.839724   -0.894547
  H      0.053097    1.251519    1.041711
  H      1.205818   -0.802031   -1.106558
  H      2.019296    0.616796   -0.051001

 Total Charge           Charge          ....    0
 Multiplicity           Mult            ....    1
 Number of Electrons    NEL             ....   30
 Basis Dimension        Dim             ....   24

ORBITAL ENERGIES
----------------

  NO   OCC          E(Eh)            E(eV)
   0   2.0000     -20.395196      -554.9815
   1   2.0000     -11.317158      -307.9555
   2   2.0000     -11.186355      -304.3962
   3   2.0000     -11.182551      -304.2927
   4   2.0000      -1.459934       -39.7268
   5   2.0000      -1.070760       -29.1369
   6   2.0000      -0.871797       -23.7228
   7   2.0000      -0.769322       -20.9343
   8   2.0000      -0.663926       -18.0663
   9   2.0000      -0.661072       -17.9887
  10   2.0000      -0.600140       -16.3307
  11   2.0000      -0.566393       -15.4123
  12   2.0000      -0.531185       -14.4543
  13   2.0000      -0.401605       -10.9282
  14   2.0000      -0.396837       -10.7985
  15   0.0000       0.151071         4.1108
  16   0.0000       0.282917         7.6986
  17   0.0000       0.507040        13.7973
  18   0.0000       0.561600        15.2819
  19   0.0000       0.649336        17.6693

MULLIKEN ATOMIC CHARGES
-----------------------
   0 C :    0.199267
   1 O :   -0.364225
   2 C :   -0.155234
   3 C :   -0.246922
   4 H :    0.125508
   5 H :    0.147875
   6 H :    0.151313
   7 H :    0.142418
Sum of atomic charges:   -0.0000000

LOEWDIN ATOMIC CHARGES
----------------------
   0 C :    0.155952
   1 O :   -0.242084
   2 C :   -0.117239
   3 C :   -0.150508
   4 H :    0.063315
   5 H :    0.096561
   6 H :    0.109868
   7 H :    0.084136

  Mayer bond orders larger than 0.100000
B(  0-C ,  1-O ) :   1.9420 B(  0-C ,  2-C ) :   0.9767 B(  0-C ,  4-H ) :   0.9089
B(  2-C ,  3-C ) :   1.9699 B(  2-C ,  5-H ) :   0.9554 B(  3-C ,  6-H ) :   0.9587
B(  3-C ,  7-H ) :   0.9678

-----------------------------------------------------------------------------
         ABSORPTION SPECTRUM VIA TRANSITION ELECTRIC DIPOLE MOMENTS
-----------------------------------------------------------------------------
State   Energy    Wavelength  fosc         T2        TX        TY        TZ
        (cm-1)      (nm)                 (au**2)    (au)      (au)      (au)
-----------------------------------------------------------------------------
   1   37759.9    264.8   0.000229978   0.00201   0.04370   0.00444  -0.00871

Dispersion correction           -0.025127828
FINAL SINGLE POINT ENERGY      -189.282415281905

DIPOLE MOMENT
-------------
                                X             Y             Z
Electronic contribution:     -2.94643      -0.47014       1.31440
Nuclear contribution   :      3.69520       0.58858      -1.97954
                        -----------------------------------------
Total Dipole Moment    :      0.74877       0.11844      -0.66514
                        -----------------------------------------
Magnitude (a.u.)       :      1.00851
Magnitude (Debye)      :      2.56343

Rotational constants in cm-1:     1.320956     0.155342     0.144968
Rotational constants in MHz : 39601.261078  4657.037925  4346.042556

                             ****ORCA TERMINATED NORMALLY****
TOTAL RUN TIME: 0 days 0 hours 0 minutes 16 seconds 88 msec
