                         Program Version 5.0.3 -  RELEASE  -
|  1> ! HF-3c
|  2> !TightSCF
|  3> %scf
|  4>  ConvForced true
|  5>  convergence tight
|  6>  MaxIter 500
|  7> end
|  8>
|  9> %tddft
| 10>  nroots 1
| 11> end
| 12>
| 13> # 	9517
| 14> * xyz 0 1
| 15> 		C   -1.082611  -0.429618  -0.071796
| 16> 		O   -2.049012  -0.665205  -0.893405
| 17> 		C   -0.007661   0.369642  -0.287808
| 18> 		C    1.139465   0.210800   0.292558
| 19> 		H   -1.292629  -0.790354   0.994904
| 20> 		H   -0.022473   1.370806  -0.964315
| 21> 		H    1.297200  -0.783033   0.822202
| 22> 		H    2.085827   0.777957   0.064925
| 23> *
| 24>
| 25>                          ****END OF INPUT****

CARTESIAN COORDINATES (ANGSTROEM)
---------------------------------
  C     -1.082611   -0.429618   -0.071796
  O     -2.049012   -0.665205   -0.893405
  C     -0.007661    0.369642   -0.287808
  C      1.139465    0.210800    0.292558
  H     -1.292629   -0.790354    0.994904
  H     -0.022473    1.370806   -0.964315
  H      1.297200   -0.783033    0.822202
  H      2.085827    0.777957    0.064925

 Total Charge           Charge          ....    0
 Multiplicity           Mult            ....    1
 Number of Electrons    NEL             ....   30
 Basis Dimension        Dim             ....   24

ORBITAL ENERGIES
----------------

  NO   OCC          E(Eh)            E(eV)
   0   2.0000     -20.339359      -553.4621
   1   2.0000     -11.280144      -306.9483
   2   2.0000     -11.201000      -304.7947
   3   2.0000     -11.193330      -304.5860
   4   2.0000      -1.343293       -36.5529
   5   2.0000      -1.112171       -30.2637
   6   2.0000      -0.896157       -24.3857
   7   2.0000      -0.749362       -20.3912
   8   2.0000      -0.661936       -18.0122
   9   2.0000      -0.646893       -17.6029
  10   2.0000      -0.566669       -15.4198
  11   2.0000      -0.520069       -14.1518
  12   2.0000      -0.488077       -13.2813
  13   2.0000      -0.414829       -11.2881
  14   2.0000      -0.389601       -10.6016
  15   0.0000       0.119686         3.2568
  16   0.0000       0.283932         7.7262
  17   0.0000       0.502135        13.6638
  18   0.0000       0.595138        16.1945
  19   0.0000       0.621925        16.9235

MULLIKEN ATOMIC CHARGES
-----------------------
   0 C :    0.128289
   1 O :   -0.331969
   2 C :   -0.186664
   3 C :   -0.208408
   4 H :    0.145038
   5 H :    0.168709
   6 H :    0.136017
   7 H :    0.148987
Sum of atomic charges:    0.0000000

LOEWDIN ATOMIC CHARGES
----------------------
   0 C :    0.127020
   1 O :   -0.263036
   2 C :   -0.141157
   3 C :   -0.121135
   4 H :    0.086393
   5 H :    0.122216
   6 H :    0.089755
   7 H :    0.099944

  Mayer bond orders larger than 0.100000
B(  0-C ,  1-O ) :   1.8690 B(  0-C ,  2-C ) :   1.0937 B(  0-C ,  4-H ) :   0.9253
B(  2-C ,  3-C ) :   1.9254 B(  2-C ,  5-H ) :   0.9299 B(  3-C ,  6-H ) :   0.9603
B(  3-C ,  7-H ) :   0.9618

-----------------------------------------------------------------------------
         ABSORPTION SPECTRUM VIA TRANSITION ELECTRIC DIPOLE MOMENTS
-----------------------------------------------------------------------------
State   Energy    Wavelength  fosc         T2        TX        TY        TZ
        (cm-1)      (nm)                 (au**2)    (au)      (au)      (au)
-----------------------------------------------------------------------------
   1   27461.0    364.2   0.000042034   0.00050  -0.00204   0.00332  -0.02211

Dispersion correction           -0.025612622
FINAL SINGLE POINT ENERGY      -189.314899092986

DIPOLE MOMENT
-------------
                                X             Y             Z
Electronic contribution:     -2.89568      -0.75904      -1.18400
Nuclear contribution   :      3.93295       1.08444       1.80025
                        -----------------------------------------
Total Dipole Moment    :      1.03727       0.32540       0.61624
                        -----------------------------------------
Magnitude (a.u.)       :      1.24963
Magnitude (Debye)      :      3.17630

Rotational constants in cm-1:     1.519700     0.157659     0.147010
Rotational constants in MHz : 45559.459965  4726.500245  4407.236262

                             ****ORCA TERMINATED NORMALLY****
TOTAL RUN TIME: 0 days 0 hours 0 minutes 11 seconds 706 msec
