                         Program Version 5.0.3 -  RELEASE  -
|  1> ! HF-3c
|  2> !TightSCF
|  3> %scf
|  4>  ConvForced true
|  5>  convergence tight
|  6>  MaxIter 500
|  7> end
|  8>
|  9> %tddft
| 10>  nroots 1
| 11> end
| 12>
| 13> # 	24477
| 14> * xyz 0 1
| 15> 		C   -0.632192  -0.440403   0.015899
| 16> 		O   -0.582730  -1.653459  -0.010512
| 17> 		C    0.659779   0.424677   0.014516
| 18> 		C    1.888496  -0.107230   0.005783
| 19> 		H   -1.634747   0.142362  -0.068703
| 20> 		H    0.302949   1.451667  -0.108633
| 21> 		H    1.928005  -1.173967   0.021772
| 22> 		H    2.752299   0.545118  -0.119494
| 23> *
| 24>
| 25>                          ****END OF INPUT****

CARTESIAN COORDINATES (ANGSTROEM)
---------------------------------
  C     -0.632192   -0.440403    0.015899
  O     -0.582730   -1.653459   -0.010512
  C      0.659779    0.424677    0.014516
  C      1.888496   -0.107230    0.005783
  H     -1.634747    0.142362   -0.068703
  H      0.302949    1.451667   -0.108633
  H      1.928005   -1.173967    0.021772
  H      2.752299    0.545118   -0.119494

 Total Charge           Charge          ....    0
 Multiplicity           Mult            ....    1
 Number of Electrons    NEL             ....   30
 Basis Dimension        Dim             ....   24

ORBITAL ENERGIES
----------------

  NO   OCC          E(Eh)            E(eV)
   0   2.0000     -20.363105      -554.1083
   1   2.0000     -11.287863      -307.1584
   2   2.0000     -11.188192      -304.4462
   3   2.0000     -11.183131      -304.3085
   4   2.0000      -1.396070       -37.9890
   5   2.0000      -1.064577       -28.9686
   6   2.0000      -0.878946       -23.9173
   7   2.0000      -0.735950       -20.0262
   8   2.0000      -0.689047       -18.7499
   9   2.0000      -0.611086       -16.6285
  10   2.0000      -0.597276       -16.2527
  11   2.0000      -0.532756       -14.4970
  12   2.0000      -0.530068       -14.4239
  13   2.0000      -0.402078       -10.9411
  14   2.0000      -0.392877       -10.6907
  15   0.0000       0.139184         3.7874
  16   0.0000       0.297941         8.1074
  17   0.0000       0.491153        13.3649
  18   0.0000       0.635691        17.2980
  19   0.0000       0.640025        17.4160

MULLIKEN ATOMIC CHARGES
-----------------------
   0 C :    0.171426
   1 O :   -0.358376
   2 C :   -0.158807
   3 C :   -0.241593
   4 H :    0.135419
   5 H :    0.135942
   6 H :    0.164338
   7 H :    0.151651
Sum of atomic charges:   -0.0000000

LOEWDIN ATOMIC CHARGES
----------------------
   0 C :    0.145190
   1 O :   -0.261939
   2 C :   -0.116410
   3 C :   -0.139684
   4 H :    0.077794
   5 H :    0.085835
   6 H :    0.108129
   7 H :    0.101085

  Mayer bond orders larger than 0.100000
B(  0-C ,  1-O ) :   1.9246 B(  0-C ,  2-C ) :   0.9912 B(  0-C ,  4-H ) :   0.9196
B(  2-C ,  3-C ) :   1.9684 B(  2-C ,  5-H ) :   0.9626 B(  3-C ,  6-H ) :   0.9557
B(  3-C ,  7-H ) :   0.9620

-----------------------------------------------------------------------------
         ABSORPTION SPECTRUM VIA TRANSITION ELECTRIC DIPOLE MOMENTS
-----------------------------------------------------------------------------
State   Energy    Wavelength  fosc         T2        TX        TY        TZ
        (cm-1)      (nm)                 (au**2)    (au)      (au)      (au)
-----------------------------------------------------------------------------
   1   32618.8    306.6   0.000001617   0.00002   0.00348  -0.00066   0.00194

Dispersion correction           -0.025320363
FINAL SINGLE POINT ENERGY      -189.339188658455

DIPOLE MOMENT
-------------
                                X             Y             Z
Electronic contribution:     -1.82367      -1.74137       0.20195
Nuclear contribution   :      1.98602       2.69260      -0.25749
                        -----------------------------------------
Total Dipole Moment    :      0.16235       0.95123      -0.05554
                        -----------------------------------------
Magnitude (a.u.)       :      0.96658
Magnitude (Debye)      :      2.45686

Rotational constants in cm-1:     0.746665     0.200643     0.158262
Rotational constants in MHz : 22384.462805  6015.113241  4744.588648

                             ****ORCA TERMINATED NORMALLY****
TOTAL RUN TIME: 0 days 0 hours 0 minutes 12 seconds 731 msec
