                         Program Version 5.0.3 -  RELEASE  -
|  1> ! B3LYP cc-pVDZ
|  2> !TightSCF
|  3> %scf
|  4>  ConvForced true
|  5>  convergence tight
|  6>  MaxIter 500
|  7> end
|  8>
|  9> %tddft
| 10>  nroots 1
| 11> end
| 12>
| 13> # 	16799
| 14> * xyz 0 1
| 15> 		C   -1.134446  -0.298438  -0.040649
| 16> 		O   -2.134302  -0.340152  -0.882262
| 17> 		C    0.100695   0.419278  -0.408958
| 18> 		C    1.167881   0.234908   0.378869
| 19> 		H   -1.257387  -1.128275   0.883764
| 20> 		H    0.102548   0.949199  -1.222975
| 21> 		H    1.099480  -0.431099   1.206699
| 22> 		H    2.079943   0.606879   0.062380
| 23> *
| 24>
| 25>                          ****END OF INPUT****

CARTESIAN COORDINATES (ANGSTROEM)
---------------------------------
  C     -1.134446   -0.298438   -0.040649
  O     -2.134302   -0.340152   -0.882262
  C      0.100695    0.419278   -0.408958
  C      1.167881    0.234908    0.378869
  H     -1.257387   -1.128275    0.883764
  H      0.102548    0.949199   -1.222975
  H      1.099480   -0.431099    1.206699
  H      2.079943    0.606879    0.062380

 Total Charge           Charge          ....    0
 Multiplicity           Mult            ....    1
 Number of Electrons    NEL             ....   30
 Basis Dimension        Dim             ....   76

ORBITAL ENERGIES
----------------

  NO   OCC          E(Eh)            E(eV)
   0   2.0000     -19.134765      -520.6834
   1   2.0000     -10.288879      -279.9746
   2   2.0000     -10.215217      -277.9702
   3   2.0000     -10.208911      -277.7986
   4   2.0000      -0.993594       -27.0371
   5   2.0000      -0.814789       -22.1715
   6   2.0000      -0.651328       -17.7235
   7   2.0000      -0.579970       -15.7818
   8   2.0000      -0.483898       -13.1675
   9   2.0000      -0.465906       -12.6779
  10   2.0000      -0.413911       -11.2631
  11   2.0000      -0.392367       -10.6768
  12   2.0000      -0.376156       -10.2357
  13   2.0000      -0.290993        -7.9183
  14   2.0000      -0.249463        -6.7882
  15   0.0000      -0.076720        -2.0876
  16   0.0000       0.029244         0.7958
  17   0.0000       0.063742         1.7345
  18   0.0000       0.079398         2.1605
  19   0.0000       0.112607         3.0642

MULLIKEN ATOMIC CHARGES
-----------------------
   0 C :    0.113313
   1 O :   -0.268053
   2 C :    0.040506
   3 C :    0.108045
   4 H :    0.027897
   5 H :   -0.055364
   6 H :    0.018090
   7 H :    0.015567
Sum of atomic charges:    0.0000000

LOEWDIN ATOMIC CHARGES
----------------------
   0 C :    0.008263
   1 O :   -0.095656
   2 C :   -0.019564
   3 C :    0.035386
   4 H :    0.024428
   5 H :    0.000810
   6 H :    0.026611
   7 H :    0.019722

  Mayer bond orders larger than 0.100000
B(  0-C ,  1-O ) :   2.0223 B(  0-C ,  2-C ) :   1.0899 B(  0-C ,  4-H ) :   0.9126
B(  1-O ,  3-C ) :   0.1133 B(  2-C ,  3-C ) :   1.9204 B(  2-C ,  5-H ) :   0.9577
B(  3-C ,  6-H ) :   0.9425 B(  3-C ,  7-H ) :   0.9392

-----------------------------------------------------------------------------
         ABSORPTION SPECTRUM VIA TRANSITION ELECTRIC DIPOLE MOMENTS
-----------------------------------------------------------------------------
State   Energy    Wavelength  fosc         T2        TX        TY        TZ
        (cm-1)      (nm)                 (au**2)    (au)      (au)      (au)
-----------------------------------------------------------------------------
   1   24608.3    406.4   0.000161377   0.00216   0.02182  -0.04005   0.00890

FINAL SINGLE POINT ENERGY      -191.659559463692

DIPOLE MOMENT
-------------
                                X             Y             Z
Electronic contribution:     -2.75299       0.05734      -1.25824
Nuclear contribution   :      3.91711       0.07067       1.80199
                        -----------------------------------------
Total Dipole Moment    :      1.16412       0.12802       0.54374
                        -----------------------------------------
Magnitude (a.u.)       :      1.29121
Magnitude (Debye)      :      3.28199

Rotational constants in cm-1:     1.438887     0.154872     0.140390
Rotational constants in MHz : 43136.739564  4642.934369  4208.772510

                             ****ORCA TERMINATED NORMALLY****
TOTAL RUN TIME: 0 days 0 hours 3 minutes 20 seconds 470 msec
