                         Program Version 5.0.3 -  RELEASE  -
|  1> ! B3LYP cc-pVDZ
|  2> !TightSCF
|  3> %scf
|  4>  ConvForced true
|  5>  convergence tight
|  6>  MaxIter 500
|  7> end
|  8>
|  9> %tddft
| 10>  nroots 1
| 11> end
| 12>
| 13> # 	28811
| 14> * xyz 0 1
| 15> 		C   -0.619396  -0.407979  -0.090078
| 16> 		O   -0.531418  -1.626700   0.046283
| 17> 		C    0.598233   0.387893   0.105779
| 18> 		C    1.832418  -0.116267  -0.037675
| 19> 		H   -1.544799   0.187662  -0.234977
| 20> 		H    0.558483   1.530557   0.001935
| 21> 		H    1.811472  -1.384335  -0.192319
| 22> 		H    2.972690   0.366560  -0.042200
| 23> *
| 24>
| 25>                          ****END OF INPUT****

CARTESIAN COORDINATES (ANGSTROEM)
---------------------------------
  C     -0.619396   -0.407979   -0.090078
  O     -0.531418   -1.626700    0.046283
  C      0.598233    0.387893    0.105779
  C      1.832418   -0.116267   -0.037675
  H     -1.544799    0.187662   -0.234977
  H      0.558483    1.530557    0.001935
  H      1.811472   -1.384335   -0.192319
  H      2.972690    0.366560   -0.042200

 Total Charge           Charge          ....    0
 Multiplicity           Mult            ....    1
 Number of Electrons    NEL             ....   30
 Basis Dimension        Dim             ....   76

ORBITAL ENERGIES
----------------

  NO   OCC          E(Eh)            E(eV)
   0   2.0000     -19.140831      -520.8485
   1   2.0000     -10.281484      -279.7734
   2   2.0000     -10.237841      -278.5858
   3   2.0000     -10.207667      -277.7647
   4   2.0000      -1.040322       -28.3086
   5   2.0000      -0.786477       -21.4011
   6   2.0000      -0.650172       -17.6921
   7   2.0000      -0.527682       -14.3590
   8   2.0000      -0.496306       -13.5052
   9   2.0000      -0.441415       -12.0115
  10   2.0000      -0.421358       -11.4657
  11   2.0000      -0.396648       -10.7933
  12   2.0000      -0.339648        -9.2423
  13   2.0000      -0.285116        -7.7584
  14   2.0000      -0.261322        -7.1109
  15   0.0000      -0.073089        -1.9889
  16   0.0000       0.048145         1.3101
  17   0.0000       0.051913         1.4126
  18   0.0000       0.066760         1.8166
  19   0.0000       0.114748         3.1225

MULLIKEN ATOMIC CHARGES
-----------------------
   0 C :    0.199142
   1 O :   -0.207295
   2 C :   -0.083348
   3 C :   -0.069521
   4 H :    0.002084
   5 H :    0.007788
   6 H :    0.072724
   7 H :    0.078426
Sum of atomic charges:    0.0000000

LOEWDIN ATOMIC CHARGES
----------------------
   0 C :   -0.021143
   1 O :   -0.016093
   2 C :   -0.110033
   3 C :   -0.009966
   4 H :    0.005432
   5 H :    0.035733
   6 H :    0.056061
   7 H :    0.060008

  Mayer bond orders larger than 0.100000
B(  0-C ,  1-O ) :   2.1405 B(  0-C ,  2-C ) :   1.0601 B(  0-C ,  4-H ) :   0.9199
B(  2-C ,  3-C ) :   1.9182 B(  2-C ,  5-H ) :   0.9310 B(  3-C ,  6-H ) :   0.9134
B(  3-C ,  7-H ) :   0.9391

-----------------------------------------------------------------------------
         ABSORPTION SPECTRUM VIA TRANSITION ELECTRIC DIPOLE MOMENTS
-----------------------------------------------------------------------------
State   Energy    Wavelength  fosc         T2        TX        TY        TZ
        (cm-1)      (nm)                 (au**2)    (au)      (au)      (au)
-----------------------------------------------------------------------------
   1   28075.4    356.2   0.000159580   0.00187  -0.03189  -0.01385   0.02574

FINAL SINGLE POINT ENERGY      -191.643057674033

DIPOLE MOMENT
-------------
                                X             Y             Z
Electronic contribution:     -2.09904      -1.55562       0.27793
Nuclear contribution   :      2.40735       2.44461      -0.43832
                        -----------------------------------------
Total Dipole Moment    :      0.30831       0.88899      -0.16040
                        -----------------------------------------
Magnitude (a.u.)       :      0.95451
Magnitude (Debye)      :      2.42617

Rotational constants in cm-1:     0.720089     0.214371     0.166425
Rotational constants in MHz : 21587.734708  6426.687399  4989.297459

                             ****ORCA TERMINATED NORMALLY****
TOTAL RUN TIME: 0 days 0 hours 3 minutes 13 seconds 870 msec
