                         Program Version 5.0.3 -  RELEASE  -
|  1> ! HF-3c
|  2> !TightSCF
|  3> %scf
|  4>  ConvForced true
|  5>  convergence tight
|  6>  MaxIter 500
|  7> end
|  8>
|  9> %tddft
| 10>  nroots 1
| 11> end
| 12>
| 13> # 	9292
| 14> * xyz 0 1
| 15> 		C   -1.179938  -0.315382  -0.063857
| 16> 		O   -1.826135  -0.881958  -0.884993
| 17> 		C   -0.018131   0.498910  -0.257327
| 18> 		C    1.221192   0.087066   0.167483
| 19> 		H   -1.479463  -0.588625   1.005904
| 20> 		H   -0.108000   1.374721  -0.845235
| 21> 		H    1.186297  -0.827479   0.778445
| 22> 		H    2.219805   0.637108   0.012384
| 23> *
| 24>
| 25>                          ****END OF INPUT****

CARTESIAN COORDINATES (ANGSTROEM)
---------------------------------
  C     -1.179938   -0.315382   -0.063857
  O     -1.826135   -0.881958   -0.884993
  C     -0.018131    0.498910   -0.257327
  C      1.221192    0.087066    0.167483
  H     -1.479463   -0.588625    1.005904
  H     -0.108000    1.374721   -0.845235
  H      1.186297   -0.827479    0.778445
  H      2.219805    0.637108    0.012384

 Total Charge           Charge          ....    0
 Multiplicity           Mult            ....    1
 Number of Electrons    NEL             ....   30
 Basis Dimension        Dim             ....   24

ORBITAL ENERGIES
----------------

  NO   OCC          E(Eh)            E(eV)
   0   2.0000     -20.373562      -554.3928
   1   2.0000     -11.302443      -307.5551
   2   2.0000     -11.191206      -304.5282
   3   2.0000     -11.188834      -304.4636
   4   2.0000      -1.420356       -38.6499
   5   2.0000      -1.079598       -29.3773
   6   2.0000      -0.878378       -23.9019
   7   2.0000      -0.770399       -20.9636
   8   2.0000      -0.679392       -18.4872
   9   2.0000      -0.640446       -17.4274
  10   2.0000      -0.597952       -16.2711
  11   2.0000      -0.550345       -14.9756
  12   2.0000      -0.513833       -13.9821
  13   2.0000      -0.412434       -11.2229
  14   2.0000      -0.387933       -10.5562
  15   0.0000       0.157102         4.2750
  16   0.0000       0.242387         6.5957
  17   0.0000       0.566646        15.4192
  18   0.0000       0.594308        16.1720
  19   0.0000       0.634415        17.2633

MULLIKEN ATOMIC CHARGES
-----------------------
   0 C :    0.169241
   1 O :   -0.348222
   2 C :   -0.184525
   3 C :   -0.211744
   4 H :    0.132046
   5 H :    0.153140
   6 H :    0.136353
   7 H :    0.153712
Sum of atomic charges:    0.0000000

LOEWDIN ATOMIC CHARGES
----------------------
   0 C :    0.145284
   1 O :   -0.247707
   2 C :   -0.138026
   3 C :   -0.123086
   4 H :    0.070817
   5 H :    0.097633
   6 H :    0.088378
   7 H :    0.106707

  Mayer bond orders larger than 0.100000
B(  0-C ,  1-O ) :   1.9274 B(  0-C ,  2-C ) :   1.0181 B(  0-C ,  4-H ) :   0.9146
B(  2-C ,  3-C ) :   1.9632 B(  2-C ,  5-H ) :   0.9519 B(  3-C ,  6-H ) :   0.9667
B(  3-C ,  7-H ) :   0.9618

-----------------------------------------------------------------------------
         ABSORPTION SPECTRUM VIA TRANSITION ELECTRIC DIPOLE MOMENTS
-----------------------------------------------------------------------------
State   Energy    Wavelength  fosc         T2        TX        TY        TZ
        (cm-1)      (nm)                 (au**2)    (au)      (au)      (au)
-----------------------------------------------------------------------------
   1   34588.4    289.1   0.000091019   0.00087  -0.02039  -0.01629   0.01360

Dispersion correction           -0.025319196
FINAL SINGLE POINT ENERGY      -189.311933471629

DIPOLE MOMENT
-------------
                                X             Y             Z
Electronic contribution:     -2.71115      -0.79539      -1.24874
Nuclear contribution   :      3.50068       1.23531       1.89067
                        -----------------------------------------
Total Dipole Moment    :      0.78953       0.43993       0.64194
                        -----------------------------------------
Magnitude (a.u.)       :      1.10859
Magnitude (Debye)      :      2.81781

Rotational constants in cm-1:     1.172348     0.160944     0.155655
Rotational constants in MHz : 35146.120713  4824.993325  4666.410160

                             ****ORCA TERMINATED NORMALLY****
TOTAL RUN TIME: 0 days 0 hours 0 minutes 12 seconds 128 msec
