                         Program Version 5.0.3 -  RELEASE  -
|  1> ! HF-3c
|  2> !TightSCF
|  3> %scf
|  4>  ConvForced true
|  5>  convergence tight
|  6>  MaxIter 500
|  7> end
|  8>
|  9> %tddft
| 10>  nroots 1
| 11> end
| 12>
| 13> # 	14041
| 14> * xyz 0 1
| 15> 		C   -1.203775  -0.275059   0.020147
| 16> 		O   -1.158753  -1.511718   0.219395
| 17> 		C   -0.002441   0.637464   0.176666
| 18> 		C    1.217344  -0.060655  -0.009639
| 19> 		H   -2.133617   0.255339  -0.435351
| 20> 		H   -0.190262   1.669905   0.236099
| 21> 		H    1.285009  -1.236528  -0.158300
| 22> 		H    2.246076   0.522994  -0.063830
| 23> *
| 24>
| 25>                          ****END OF INPUT****

CARTESIAN COORDINATES (ANGSTROEM)
---------------------------------
  C     -1.203775   -0.275059    0.020147
  O     -1.158753   -1.511718    0.219395
  C     -0.002441    0.637464    0.176666
  C      1.217344   -0.060655   -0.009639
  H     -2.133617    0.255339   -0.435351
  H     -0.190262    1.669905    0.236099
  H      1.285009   -1.236528   -0.158300
  H      2.246076    0.522994   -0.063830

 Total Charge           Charge          ....    0
 Multiplicity           Mult            ....    1
 Number of Electrons    NEL             ....   30
 Basis Dimension        Dim             ....   24

ORBITAL ENERGIES
----------------

  NO   OCC          E(Eh)            E(eV)
   0   2.0000     -20.335714      -553.3629
   1   2.0000     -11.274986      -306.8080
   2   2.0000     -11.187294      -304.4218
   3   2.0000     -11.174868      -304.0836
   4   2.0000      -1.358076       -36.9551
   5   2.0000      -1.040818       -28.3221
   6   2.0000      -0.860011       -23.4021
   7   2.0000      -0.732418       -19.9301
   8   2.0000      -0.672038       -18.2871
   9   2.0000      -0.587865       -15.9966
  10   2.0000      -0.566762       -15.4224
  11   2.0000      -0.519302       -14.1309
  12   2.0000      -0.499406       -13.5895
  13   2.0000      -0.397877       -10.8268
  14   2.0000      -0.364797        -9.9266
  15   0.0000       0.134591         3.6624
  16   0.0000       0.271329         7.3832
  17   0.0000       0.509186        13.8557
  18   0.0000       0.540451        14.7064
  19   0.0000       0.607576        16.5330

MULLIKEN ATOMIC CHARGES
-----------------------
   0 C :    0.163334
   1 O :   -0.367719
   2 C :   -0.196077
   3 C :   -0.175475
   4 H :    0.131694
   5 H :    0.141966
   6 H :    0.164849
   7 H :    0.137429
Sum of atomic charges:   -0.0000000

LOEWDIN ATOMIC CHARGES
----------------------
   0 C :    0.151603
   1 O :   -0.287122
   2 C :   -0.153089
   3 C :   -0.087908
   4 H :    0.075639
   5 H :    0.088704
   6 H :    0.117509
   7 H :    0.094664

  Mayer bond orders larger than 0.100000
B(  0-C ,  1-O ) :   1.8993 B(  0-C ,  2-C ) :   1.0277 B(  0-C ,  4-H ) :   0.9211
B(  2-C ,  3-C ) :   1.9202 B(  2-C ,  5-H ) :   0.9640 B(  3-C ,  6-H ) :   0.9547
B(  3-C ,  7-H ) :   0.9635

-----------------------------------------------------------------------------
         ABSORPTION SPECTRUM VIA TRANSITION ELECTRIC DIPOLE MOMENTS
-----------------------------------------------------------------------------
State   Energy    Wavelength  fosc         T2        TX        TY        TZ
        (cm-1)      (nm)                 (au**2)    (au)      (au)      (au)
-----------------------------------------------------------------------------
   1   31988.8    312.6   0.000022479   0.00023  -0.00840  -0.00594  -0.01120

Dispersion correction           -0.025089490
FINAL SINGLE POINT ENERGY      -189.315936956098

DIPOLE MOMENT
-------------
                                X             Y             Z
Electronic contribution:     -1.85209      -1.51090       0.46987
Nuclear contribution   :      2.27049       2.41410      -0.75050
                        -----------------------------------------
Total Dipole Moment    :      0.41841       0.90320      -0.28063
                        -----------------------------------------
Magnitude (a.u.)       :      1.03421
Magnitude (Debye)      :      2.62875

Rotational constants in cm-1:     0.647232     0.213674     0.163161
Rotational constants in MHz : 19403.539912  6405.798070  4891.430605

                             ****ORCA TERMINATED NORMALLY****
TOTAL RUN TIME: 0 days 0 hours 0 minutes 15 seconds 758 msec
