                         Program Version 5.0.3 -  RELEASE  -
|  1> ! B3LYP cc-pVDZ
|  2> !TightSCF
|  3> %scf
|  4>  ConvForced true
|  5>  convergence tight
|  6>  MaxIter 500
|  7> end
|  8>
|  9> %tddft
| 10>  nroots 1
| 11> end
| 12>
| 13> # 	16473
| 14> * xyz 0 1
| 15> 		C   -1.184976  -0.287752   0.018095
| 16> 		O   -2.129252  -0.399329  -0.795704
| 17> 		C    0.003210   0.452257  -0.341849
| 18> 		C    1.248822   0.091937   0.152329
| 19> 		H   -1.181475  -0.838950   1.029991
| 20> 		H   -0.250906   1.085036  -1.001686
| 21> 		H    1.196472  -0.769128   0.948600
| 22> 		H    2.247128   0.650605  -0.000689
| 23> *
| 24>
| 25>                          ****END OF INPUT****

CARTESIAN COORDINATES (ANGSTROEM)
---------------------------------
  C     -1.184976   -0.287752    0.018095
  O     -2.129252   -0.399329   -0.795704
  C      0.003210    0.452257   -0.341849
  C      1.248822    0.091937    0.152329
  H     -1.181475   -0.838950    1.029991
  H     -0.250906    1.085036   -1.001686
  H      1.196472   -0.769128    0.948600
  H      2.247128    0.650605   -0.000689

 Total Charge           Charge          ....    0
 Multiplicity           Mult            ....    1
 Number of Electrons    NEL             ....   30
 Basis Dimension        Dim             ....   76

ORBITAL ENERGIES
----------------

  NO   OCC          E(Eh)            E(eV)
   0   2.0000     -19.140500      -520.8395
   1   2.0000     -10.278870      -279.7023
   2   2.0000     -10.241224      -278.6779
   3   2.0000     -10.204166      -277.6695
   4   2.0000      -1.027131       -27.9497
   5   2.0000      -0.800779       -21.7903
   6   2.0000      -0.650631       -17.7046
   7   2.0000      -0.581329       -15.8188
   8   2.0000      -0.474994       -12.9253
   9   2.0000      -0.461511       -12.5584
  10   2.0000      -0.421772       -11.4770
  11   2.0000      -0.392534       -10.6814
  12   2.0000      -0.382129       -10.3983
  13   2.0000      -0.286791        -7.8040
  14   2.0000      -0.257216        -6.9992
  15   0.0000      -0.076995        -2.0951
  16   0.0000       0.030969         0.8427
  17   0.0000       0.059420         1.6169
  18   0.0000       0.086782         2.3615
  19   0.0000       0.114865         3.1256

MULLIKEN ATOMIC CHARGES
-----------------------
   0 C :    0.134013
   1 O :   -0.225853
   2 C :    0.084583
   3 C :   -0.027471
   4 H :   -0.010044
   5 H :   -0.075124
   6 H :    0.051008
   7 H :    0.068888
Sum of atomic charges:    0.0000000

LOEWDIN ATOMIC CHARGES
----------------------
   0 C :   -0.010767
   1 O :   -0.037008
   2 C :   -0.027365
   3 C :   -0.004863
   4 H :    0.000708
   5 H :   -0.014036
   6 H :    0.045581
   7 H :    0.047750

  Mayer bond orders larger than 0.100000
B(  0-C ,  1-O ) :   2.1002 B(  0-C ,  2-C ) :   1.1079 B(  0-C ,  4-H ) :   0.9132
B(  1-O ,  3-C ) :   0.1047 B(  2-C ,  3-C ) :   1.8829 B(  2-C ,  5-H ) :   0.9539
B(  3-C ,  6-H ) :   0.9332 B(  3-C ,  7-H ) :   0.9461

-----------------------------------------------------------------------------
         ABSORPTION SPECTRUM VIA TRANSITION ELECTRIC DIPOLE MOMENTS
-----------------------------------------------------------------------------
State   Energy    Wavelength  fosc         T2        TX        TY        TZ
        (cm-1)      (nm)                 (au**2)    (au)      (au)      (au)
-----------------------------------------------------------------------------
   1   26942.8    371.2   0.000890614   0.01088   0.09884  -0.02117   0.02579

FINAL SINGLE POINT ENERGY      -191.651887081549

DIPOLE MOMENT
-------------
                                X             Y             Z
Electronic contribution:     -2.92974      -0.10963      -1.28523
Nuclear contribution   :      3.95425       0.32748       1.83182
                        -----------------------------------------
Total Dipole Moment    :      1.02452       0.21785       0.54659
                        -----------------------------------------
Magnitude (a.u.)       :      1.18146
Magnitude (Debye)      :      3.00304

Rotational constants in cm-1:     1.420478     0.155057     0.143617
Rotational constants in MHz : 42584.848393  4648.486371  4305.538799

                             ****ORCA TERMINATED NORMALLY****
TOTAL RUN TIME: 0 days 0 hours 3 minutes 19 seconds 382 msec
