                         Program Version 5.0.3 -  RELEASE  -
|  1> ! B3LYP cc-pVDZ
|  2> !TightSCF
|  3> %scf
|  4>  ConvForced true
|  5>  convergence tight
|  6>  MaxIter 500
|  7> end
|  8>
|  9> %tddft
| 10>  nroots 1
| 11> end
| 12>
| 13> # 	21886
| 14> * xyz 0 1
| 15> 		C   -0.618221  -0.417793  -0.058036
| 16> 		O   -0.613108  -1.699786   0.038709
| 17> 		C    0.683062   0.410231   0.001100
| 18> 		C    1.879080  -0.062764  -0.013194
| 19> 		H   -1.578923   0.093436  -0.059848
| 20> 		H    0.429174   1.483398   0.339697
| 21> 		H    1.907429  -1.114203  -0.116034
| 22> 		H    2.778153   0.593494   0.079649
| 23> *
| 24>
| 25>                          ****END OF INPUT****

CARTESIAN COORDINATES (ANGSTROEM)
---------------------------------
  C     -0.618221   -0.417793   -0.058036
  O     -0.613108   -1.699786    0.038709
  C      0.683062    0.410231    0.001100
  C      1.879080   -0.062764   -0.013194
  H     -1.578923    0.093436   -0.059848
  H      0.429174    1.483398    0.339697
  H      1.907429   -1.114203   -0.116034
  H      2.778153    0.593494    0.079649

 Total Charge           Charge          ....    0
 Multiplicity           Mult            ....    1
 Number of Electrons    NEL             ....   30
 Basis Dimension        Dim             ....   76

ORBITAL ENERGIES
----------------

  NO   OCC          E(Eh)            E(eV)
   0   2.0000     -19.143453      -520.9198
   1   2.0000     -10.285643      -279.8866
   2   2.0000     -10.210633      -277.8454
   3   2.0000     -10.205456      -277.7046
   4   2.0000      -1.009168       -27.4609
   5   2.0000      -0.801019       -21.7968
   6   2.0000      -0.656297       -17.8587
   7   2.0000      -0.542704       -14.7677
   8   2.0000      -0.503415       -13.6986
   9   2.0000      -0.442535       -12.0420
  10   2.0000      -0.428386       -11.6570
  11   2.0000      -0.382281       -10.4024
  12   2.0000      -0.365041        -9.9333
  13   2.0000      -0.294108        -8.0031
  14   2.0000      -0.257293        -7.0013
  15   0.0000      -0.074154        -2.0178
  16   0.0000       0.043664         1.1882
  17   0.0000       0.061905         1.6845
  18   0.0000       0.094447         2.5700
  19   0.0000       0.117862         3.2072

MULLIKEN ATOMIC CHARGES
-----------------------
   0 C :    0.194528
   1 O :   -0.243934
   2 C :   -0.153716
   3 C :    0.124899
   4 H :    0.009039
   5 H :    0.006030
   6 H :    0.020701
   7 H :    0.042454
Sum of atomic charges:   -0.0000000

LOEWDIN ATOMIC CHARGES
----------------------
   0 C :    0.028224
   1 O :   -0.069482
   2 C :   -0.085624
   3 C :    0.013256
   4 H :    0.003782
   5 H :    0.035248
   6 H :    0.029009
   7 H :    0.045587

  Mayer bond orders larger than 0.100000
B(  0-C ,  1-O ) :   2.1116 B(  0-C ,  2-C ) :   1.0305 B(  0-C ,  4-H ) :   0.9278
B(  2-C ,  3-C ) :   2.0042 B(  2-C ,  5-H ) :   0.9365 B(  3-C ,  6-H ) :   0.9121
B(  3-C ,  7-H ) :   0.9341

-----------------------------------------------------------------------------
         ABSORPTION SPECTRUM VIA TRANSITION ELECTRIC DIPOLE MOMENTS
-----------------------------------------------------------------------------
State   Energy    Wavelength  fosc         T2        TX        TY        TZ
        (cm-1)      (nm)                 (au**2)    (au)      (au)      (au)
-----------------------------------------------------------------------------
   1   26355.9    379.4   0.000208956   0.00261   0.04244   0.01396   0.02478

FINAL SINGLE POINT ENERGY      -191.668372345708

DIPOLE MOMENT
-------------
                                X             Y             Z
Electronic contribution:     -1.84058      -1.81160      -0.21659
Nuclear contribution   :      2.15882       2.77841       0.22748
                        -----------------------------------------
Total Dipole Moment    :      0.31824       0.96681       0.01089
                        -----------------------------------------
Magnitude (a.u.)       :      1.01790
Magnitude (Debye)      :      2.58729

Rotational constants in cm-1:     0.770568     0.193039     0.154953
Rotational constants in MHz : 23101.046509  5787.157242  4645.371708

                             ****ORCA TERMINATED NORMALLY****
TOTAL RUN TIME: 0 days 0 hours 3 minutes 23 seconds 646 msec
