                         Program Version 5.0.3 -  RELEASE  -
|  1> ! HF-3c
|  2> !TightSCF
|  3> %scf
|  4>  ConvForced true
|  5>  convergence tight
|  6>  MaxIter 500
|  7> end
|  8>
|  9> %tddft
| 10>  nroots 1
| 11> end
| 12>
| 13> # 	9869
| 14> * xyz 0 1
| 15> 		C   -1.157890  -0.259707  -0.024791
| 16> 		O   -1.579290  -1.091739  -0.789777
| 17> 		C    0.017011   0.564827  -0.162816
| 18> 		C    1.213099   0.033313   0.231750
| 19> 		H   -1.678883  -0.265666   0.897425
| 20> 		H   -0.121945   1.483610  -0.768241
| 21> 		H    1.240364  -0.981603   0.624508
| 22> 		H    2.055163   0.484798  -0.034571
| 23> *
| 24>
| 25>                          ****END OF INPUT****

CARTESIAN COORDINATES (ANGSTROEM)
---------------------------------
  C     -1.157890   -0.259707   -0.024791
  O     -1.579290   -1.091739   -0.789777
  C      0.017011    0.564827   -0.162816
  C      1.213099    0.033313    0.231750
  H     -1.678883   -0.265666    0.897425
  H     -0.121945    1.483610   -0.768241
  H      1.240364   -0.981603    0.624508
  H      2.055163    0.484798   -0.034571

 Total Charge           Charge          ....    0
 Multiplicity           Mult            ....    1
 Number of Electrons    NEL             ....   30
 Basis Dimension        Dim             ....   24

ORBITAL ENERGIES
----------------

  NO   OCC          E(Eh)            E(eV)
   0   2.0000     -20.373652      -554.3953
   1   2.0000     -11.299621      -307.4783
   2   2.0000     -11.200291      -304.7754
   3   2.0000     -11.189246      -304.4749
   4   2.0000      -1.411833       -38.4179
   5   2.0000      -1.087132       -29.5824
   6   2.0000      -0.902242       -24.5512
   7   2.0000      -0.778219       -21.1764
   8   2.0000      -0.692952       -18.8562
   9   2.0000      -0.649896       -17.6846
  10   2.0000      -0.607267       -16.5246
  11   2.0000      -0.566680       -15.4202
  12   2.0000      -0.504324       -13.7233
  13   2.0000      -0.419764       -11.4224
  14   2.0000      -0.396939       -10.8013
  15   0.0000       0.181855         4.9485
  16   0.0000       0.194717         5.2985
  17   0.0000       0.588826        16.0228
  18   0.0000       0.623533        16.9672
  19   0.0000       0.733380        19.9563

MULLIKEN ATOMIC CHARGES
-----------------------
   0 C :    0.152021
   1 O :   -0.338907
   2 C :   -0.155037
   3 C :   -0.250340
   4 H :    0.139059
   5 H :    0.160083
   6 H :    0.149433
   7 H :    0.143687
Sum of atomic charges:    0.0000000

LOEWDIN ATOMIC CHARGES
----------------------
   0 C :    0.140773
   1 O :   -0.244990
   2 C :   -0.108428
   3 C :   -0.150798
   4 H :    0.070557
   5 H :    0.107792
   6 H :    0.098946
   7 H :    0.086149

  Mayer bond orders larger than 0.100000
B(  0-C ,  1-O ) :   1.9372 B(  0-C ,  2-C ) :   1.0065 B(  0-C ,  4-H ) :   0.9255
B(  2-C ,  3-C ) :   1.9811 B(  2-C ,  5-H ) :   0.9476 B(  3-C ,  6-H ) :   0.9649
B(  3-C ,  7-H ) :   0.9680

-----------------------------------------------------------------------------
         ABSORPTION SPECTRUM VIA TRANSITION ELECTRIC DIPOLE MOMENTS
-----------------------------------------------------------------------------
State   Energy    Wavelength  fosc         T2        TX        TY        TZ
        (cm-1)      (nm)                 (au**2)    (au)      (au)      (au)
-----------------------------------------------------------------------------
   1   33998.9    294.1   0.000008875   0.00009   0.00369   0.00523  -0.00670

Dispersion correction           -0.025618868
FINAL SINGLE POINT ENERGY      -189.305952934720

DIPOLE MOMENT
-------------
                                X             Y             Z
Electronic contribution:     -2.44959      -0.91963      -0.94551
Nuclear contribution   :      2.91734       1.51216       1.42776
                        -----------------------------------------
Total Dipole Moment    :      0.46775       0.59253       0.48224
                        -----------------------------------------
Magnitude (a.u.)       :      0.89579
Magnitude (Debye)      :      2.27692

Rotational constants in cm-1:     0.938661     0.177058     0.164573
Rotational constants in MHz : 28140.335240  5308.068011  4933.781995

                             ****ORCA TERMINATED NORMALLY****
TOTAL RUN TIME: 0 days 0 hours 0 minutes 8 seconds 906 msec
