                         Program Version 5.0.3 -  RELEASE  -
|  1> ! HF-3c
|  2> !TightSCF
|  3> %scf
|  4>  ConvForced true
|  5>  convergence tight
|  6>  MaxIter 500
|  7> end
|  8>
|  9> %tddft
| 10>  nroots 1
| 11> end
| 12>
| 13> # 	2749
| 14> * xyz 0 1
| 15> 		C   -1.147001  -0.335984   0.002649
| 16> 		O   -1.754549  -0.944551  -0.832650
| 17> 		C    0.006886   0.466980  -0.316649
| 18> 		C    1.204748   0.047382   0.135525
| 19> 		H   -1.509558  -0.361894   1.015848
| 20> 		H   -0.175963   1.302151  -0.995036
| 21> 		H    1.311313  -0.746434   0.907072
| 22> 		H    2.037309   0.563372   0.047758
| 23> *
| 24>
| 25>                          ****END OF INPUT****

CARTESIAN COORDINATES (ANGSTROEM)
---------------------------------
  C     -1.147001   -0.335984    0.002649
  O     -1.754549   -0.944551   -0.832650
  C      0.006886    0.466980   -0.316649
  C      1.204748    0.047382    0.135525
  H     -1.509558   -0.361894    1.015848
  H     -0.175963    1.302151   -0.995036
  H      1.311313   -0.746434    0.907072
  H      2.037309    0.563372    0.047758

 Total Charge           Charge          ....    0
 Multiplicity           Mult            ....    1
 Number of Electrons    NEL             ....   30
 Basis Dimension        Dim             ....   24

ORBITAL ENERGIES
----------------

  NO   OCC          E(Eh)            E(eV)
   0   2.0000     -20.375428      -554.4436
   1   2.0000     -11.302814      -307.5652
   2   2.0000     -11.200422      -304.7790
   3   2.0000     -11.188053      -304.4424
   4   2.0000      -1.418163       -38.5902
   5   2.0000      -1.089643       -29.6507
   6   2.0000      -0.899138       -24.4668
   7   2.0000      -0.785957       -21.3870
   8   2.0000      -0.684237       -18.6190
   9   2.0000      -0.663823       -18.0635
  10   2.0000      -0.609184       -16.5767
  11   2.0000      -0.555998       -15.1295
  12   2.0000      -0.512595       -13.9484
  13   2.0000      -0.418812       -11.3965
  14   2.0000      -0.402803       -10.9608
  15   0.0000       0.161254         4.3880
  16   0.0000       0.233772         6.3613
  17   0.0000       0.568115        15.4592
  18   0.0000       0.628137        17.0925
  19   0.0000       0.756169        20.5764

MULLIKEN ATOMIC CHARGES
-----------------------
   0 C :    0.161215
   1 O :   -0.341869
   2 C :   -0.157932
   3 C :   -0.248276
   4 H :    0.141498
   5 H :    0.162410
   6 H :    0.143826
   7 H :    0.139128
Sum of atomic charges:   -0.0000000

LOEWDIN ATOMIC CHARGES
----------------------
   0 C :    0.144962
   1 O :   -0.244584
   2 C :   -0.108976
   3 C :   -0.150364
   4 H :    0.074144
   5 H :    0.107741
   6 H :    0.095778
   7 H :    0.081299

  Mayer bond orders larger than 0.100000
B(  0-C ,  1-O ) :   1.9325 B(  0-C ,  2-C ) :   1.0080 B(  0-C ,  4-H ) :   0.9228
B(  2-C ,  3-C ) :   1.9799 B(  2-C ,  5-H ) :   0.9479 B(  3-C ,  6-H ) :   0.9648
B(  3-C ,  7-H ) :   0.9688

-----------------------------------------------------------------------------
         ABSORPTION SPECTRUM VIA TRANSITION ELECTRIC DIPOLE MOMENTS
-----------------------------------------------------------------------------
State   Energy    Wavelength  fosc         T2        TX        TY        TZ
        (cm-1)      (nm)                 (au**2)    (au)      (au)      (au)
-----------------------------------------------------------------------------
   1   34412.1    290.6   0.000162276   0.00155   0.03907   0.00204   0.00465

Dispersion correction           -0.025645215
FINAL SINGLE POINT ENERGY      -189.310142624683

DIPOLE MOMENT
-------------
                                X             Y             Z
Electronic contribution:     -2.69892      -1.00994      -1.21995
Nuclear contribution   :      3.25588       1.51666       1.87618
                        -----------------------------------------
Total Dipole Moment    :      0.55696       0.50672       0.65623
                        -----------------------------------------
Magnitude (a.u.)       :      0.99881
Magnitude (Debye)      :      2.53877

Rotational constants in cm-1:     1.100047     0.168980     0.163758
Rotational constants in MHz : 32978.578565  5065.885796  4909.350362

                             ****ORCA TERMINATED NORMALLY****
TOTAL RUN TIME: 0 days 0 hours 0 minutes 12 seconds 918 msec
