                         Program Version 5.0.3 -  RELEASE  -
|  1> ! B3LYP cc-pVDZ
|  2> !TightSCF
|  3> %scf
|  4>  ConvForced true
|  5>  convergence tight
|  6>  MaxIter 500
|  7> end
|  8>
|  9> %tddft
| 10>  nroots 1
| 11> end
| 12>
| 13> # 	5217
| 14> * xyz 0 1
| 15> 		C   -1.175741  -0.379862   0.022042
| 16> 		O   -2.221627  -0.237605   0.655107
| 17> 		C    0.108384   0.299832   0.397920
| 18> 		C    1.145557   0.154265  -0.324523
| 19> 		H   -1.128198  -1.108486  -0.869314
| 20> 		H    0.066569   0.918716   1.371769
| 21> 		H    1.094516  -0.381668  -1.347221
| 22> 		H    2.071579   0.647990   0.152073
| 23> *
| 24>
| 25>                          ****END OF INPUT****

CARTESIAN COORDINATES (ANGSTROEM)
---------------------------------
  C     -1.175741   -0.379862    0.022042
  O     -2.221627   -0.237605    0.655107
  C      0.108384    0.299832    0.397920
  C      1.145557    0.154265   -0.324523
  H     -1.128198   -1.108486   -0.869314
  H      0.066569    0.918716    1.371769
  H      1.094516   -0.381668   -1.347221
  H      2.071579    0.647990    0.152073

 Total Charge           Charge          ....    0
 Multiplicity           Mult            ....    1
 Number of Electrons    NEL             ....   30
 Basis Dimension        Dim             ....   76

ORBITAL ENERGIES
----------------

  NO   OCC          E(Eh)            E(eV)
   0   2.0000     -19.139696      -520.8176
   1   2.0000     -10.280365      -279.7429
   2   2.0000     -10.219649      -278.0908
   3   2.0000     -10.207037      -277.7476
   4   2.0000      -1.034976       -28.1631
   5   2.0000      -0.814161       -22.1545
   6   2.0000      -0.634646       -17.2696
   7   2.0000      -0.557743       -15.1770
   8   2.0000      -0.477076       -12.9819
   9   2.0000      -0.461906       -12.5691
  10   2.0000      -0.414618       -11.2823
  11   2.0000      -0.393878       -10.7180
  12   2.0000      -0.379359       -10.3229
  13   2.0000      -0.302742        -8.2380
  14   2.0000      -0.254699        -6.9307
  15   0.0000      -0.059419        -1.6169
  16   0.0000       0.050978         1.3872
  17   0.0000       0.058448         1.5905
  18   0.0000       0.060115         1.6358
  19   0.0000       0.112911         3.0725

MULLIKEN ATOMIC CHARGES
-----------------------
   0 C :    0.159967
   1 O :   -0.208772
   2 C :   -0.089774
   3 C :    0.038013
   4 H :   -0.013962
   5 H :    0.022722
   6 H :    0.045041
   7 H :    0.046765
Sum of atomic charges:    0.0000000

LOEWDIN ATOMIC CHARGES
----------------------
   0 C :   -0.023770
   1 O :   -0.021057
   2 C :   -0.079195
   3 C :   -0.023210
   4 H :   -0.000865
   5 H :    0.048448
   6 H :    0.047005
   7 H :    0.052644

  Mayer bond orders larger than 0.100000
B(  0-C ,  1-O ) :   2.1473 B(  0-C ,  2-C ) :   1.0624 B(  0-C ,  4-H ) :   0.9115
B(  2-C ,  3-C ) :   1.9529 B(  2-C ,  5-H ) :   0.9393 B(  3-C ,  6-H ) :   0.9273
B(  3-C ,  7-H ) :   0.9183

-----------------------------------------------------------------------------
         ABSORPTION SPECTRUM VIA TRANSITION ELECTRIC DIPOLE MOMENTS
-----------------------------------------------------------------------------
State   Energy    Wavelength  fosc         T2        TX        TY        TZ
        (cm-1)      (nm)                 (au**2)    (au)      (au)      (au)
-----------------------------------------------------------------------------
   1   29323.8    341.0   0.000151328   0.00170   0.00488   0.03391  -0.02292

FINAL SINGLE POINT ENERGY      -191.661042936157

DIPOLE MOMENT
-------------
                                X             Y             Z
Electronic contribution:     -3.07946      -0.22291       0.97745
Nuclear contribution   :      4.12437       0.25866      -1.37462
                        -----------------------------------------
Total Dipole Moment    :      1.04491       0.03575      -0.39717
                        -----------------------------------------
Magnitude (a.u.)       :      1.11842
Magnitude (Debye)      :      2.84279

Rotational constants in cm-1:     1.477412     0.157464     0.142436
Rotational constants in MHz : 44291.708614  4720.646402  4270.123590

                             ****ORCA TERMINATED NORMALLY****
TOTAL RUN TIME: 0 days 0 hours 3 minutes 27 seconds 934 msec
