                         Program Version 5.0.3 -  RELEASE  -
|  1> ! HF-3c
|  2> !TightSCF
|  3> %scf
|  4>  ConvForced true
|  5>  convergence tight
|  6>  MaxIter 500
|  7> end
|  8>
|  9> %tddft
| 10>  nroots 1
| 11> end
| 12>
| 13> # 	29538
| 14> * xyz 0 1
| 15> 		C   -0.600389  -0.378339   0.018860
| 16> 		O   -0.568447  -1.704600   0.003514
| 17> 		C    0.625538   0.448833  -0.054710
| 18> 		C    1.837609  -0.109467   0.012211
| 19> 		H   -1.400634   0.112775  -0.067574
| 20> 		H    0.456641   1.540423   0.296304
| 21> 		H    1.867391  -1.215479  -0.010173
| 22> 		H    2.862401   0.334913   0.022291
| 23> *
| 24>
| 25>                          ****END OF INPUT****

CARTESIAN COORDINATES (ANGSTROEM)
---------------------------------
  C     -0.600389   -0.378339    0.018860
  O     -0.568447   -1.704600    0.003514
  C      0.625538    0.448833   -0.054710
  C      1.837609   -0.109467    0.012211
  H     -1.400634    0.112775   -0.067574
  H      0.456641    1.540423    0.296304
  H      1.867391   -1.215479   -0.010173
  H      2.862401    0.334913    0.022291

 Total Charge           Charge          ....    0
 Multiplicity           Mult            ....    1
 Number of Electrons    NEL             ....   30
 Basis Dimension        Dim             ....   24

ORBITAL ENERGIES
----------------

  NO   OCC          E(Eh)            E(eV)
   0   2.0000     -20.345223      -553.6217
   1   2.0000     -11.280341      -306.9537
   2   2.0000     -11.193116      -304.5802
   3   2.0000     -11.187893      -304.4381
   4   2.0000      -1.327444       -36.1216
   5   2.0000      -1.074210       -29.2307
   6   2.0000      -0.918939       -25.0056
   7   2.0000      -0.762566       -20.7505
   8   2.0000      -0.681814       -18.5531
   9   2.0000      -0.608058       -16.5461
  10   2.0000      -0.577940       -15.7265
  11   2.0000      -0.517352       -14.0779
  12   2.0000      -0.491779       -13.3820
  13   2.0000      -0.428088       -11.6489
  14   2.0000      -0.378365       -10.2958
  15   0.0000       0.105727         2.8770
  16   0.0000       0.277541         7.5523
  17   0.0000       0.527548        14.3553
  18   0.0000       0.581510        15.8237
  19   0.0000       0.634797        17.2737

MULLIKEN ATOMIC CHARGES
-----------------------
   0 C :    0.106138
   1 O :   -0.320921
   2 C :   -0.172782
   3 C :   -0.204906
   4 H :    0.140722
   5 H :    0.143736
   6 H :    0.157325
   7 H :    0.150688
Sum of atomic charges:    0.0000000

LOEWDIN ATOMIC CHARGES
----------------------
   0 C :    0.128997
   1 O :   -0.259165
   2 C :   -0.135002
   3 C :   -0.104637
   4 H :    0.067089
   5 H :    0.097691
   6 H :    0.104060
   7 H :    0.100969

  Mayer bond orders larger than 0.100000
B(  0-C ,  1-O ) :   1.8839 B(  0-C ,  2-C ) :   1.0548 B(  0-C ,  4-H ) :   0.9509
B(  2-C ,  3-C ) :   1.9246 B(  2-C ,  5-H ) :   0.9537 B(  3-C ,  6-H ) :   0.9556
B(  3-C ,  7-H ) :   0.9632

-----------------------------------------------------------------------------
         ABSORPTION SPECTRUM VIA TRANSITION ELECTRIC DIPOLE MOMENTS
-----------------------------------------------------------------------------
State   Energy    Wavelength  fosc         T2        TX        TY        TZ
        (cm-1)      (nm)                 (au**2)    (au)      (au)      (au)
-----------------------------------------------------------------------------
   1   26158.0    382.3   0.000196119   0.00247  -0.04871  -0.00612  -0.00765

Dispersion correction           -0.025672851
FINAL SINGLE POINT ENERGY      -189.317507029281

DIPOLE MOMENT
-------------
                                X             Y             Z
Electronic contribution:     -1.97934      -1.57965      -0.14034
Nuclear contribution   :      2.39455       2.51144       0.22500
                        -----------------------------------------
Total Dipole Moment    :      0.41521       0.93179       0.08466
                        -----------------------------------------
Magnitude (a.u.)       :      1.02362
Magnitude (Debye)      :      2.60184

Rotational constants in cm-1:     0.701383     0.206701     0.160063
Rotational constants in MHz : 21026.932459  6196.734603  4798.566113

                             ****ORCA TERMINATED NORMALLY****
TOTAL RUN TIME: 0 days 0 hours 0 minutes 15 seconds 599 msec
