                         Program Version 5.0.3 -  RELEASE  -
|  1> ! HF-3c
|  2> !TightSCF
|  3> %scf
|  4>  ConvForced true
|  5>  convergence tight
|  6>  MaxIter 500
|  7> end
|  8>
|  9> %tddft
| 10>  nroots 1
| 11> end
| 12>
| 13> # 	383
| 14> * xyz 0 1
| 15> 		C   -1.236424  -0.320659  -0.016466
| 16> 		O   -1.321886  -1.448811   0.336410
| 17> 		C   -0.035851   0.504404   0.141113
| 18> 		C    1.174179  -0.022977  -0.127560
| 19> 		H   -1.964870   0.051978  -0.745043
| 20> 		H   -0.221596   1.653968   0.430275
| 21> 		H    1.407880  -1.034406  -0.087586
| 22> 		H    2.142866   0.660071   0.064808
| 23> *
| 24>
| 25>                          ****END OF INPUT****

CARTESIAN COORDINATES (ANGSTROEM)
---------------------------------
  C     -1.236424   -0.320659   -0.016466
  O     -1.321886   -1.448811    0.336410
  C     -0.035851    0.504404    0.141113
  C      1.174179   -0.022977   -0.127560
  H     -1.964870    0.051978   -0.745043
  H     -0.221596    1.653968    0.430275
  H      1.407880   -1.034406   -0.087586
  H      2.142866    0.660071    0.064808

 Total Charge           Charge          ....    0
 Multiplicity           Mult            ....    1
 Number of Electrons    NEL             ....   30
 Basis Dimension        Dim             ....   24

ORBITAL ENERGIES
----------------

  NO   OCC          E(Eh)            E(eV)
   0   2.0000     -20.374606      -554.4212
   1   2.0000     -11.300896      -307.5130
   2   2.0000     -11.187757      -304.4343
   3   2.0000     -11.178691      -304.1877
   4   2.0000      -1.423067       -38.7236
   5   2.0000      -1.067551       -29.0495
   6   2.0000      -0.885209       -24.0878
   7   2.0000      -0.747750       -20.3473
   8   2.0000      -0.688819       -18.7437
   9   2.0000      -0.616159       -16.7665
  10   2.0000      -0.604557       -16.4508
  11   2.0000      -0.528468       -14.3804
  12   2.0000      -0.511890       -13.9292
  13   2.0000      -0.407690       -11.0938
  14   2.0000      -0.391042       -10.6408
  15   0.0000       0.152614         4.1528
  16   0.0000       0.260235         7.0814
  17   0.0000       0.501579        13.6487
  18   0.0000       0.580696        15.8015
  19   0.0000       0.666538        18.1374

MULLIKEN ATOMIC CHARGES
-----------------------
   0 C :    0.162717
   1 O :   -0.349724
   2 C :   -0.154770
   3 C :   -0.231379
   4 H :    0.135914
   5 H :    0.147952
   6 H :    0.149361
   7 H :    0.139929
Sum of atomic charges:   -0.0000000

LOEWDIN ATOMIC CHARGES
----------------------
   0 C :    0.140660
   1 O :   -0.246911
   2 C :   -0.118763
   3 C :   -0.142894
   4 H :    0.071090
   5 H :    0.104374
   6 H :    0.093431
   7 H :    0.099013

  Mayer bond orders larger than 0.100000
B(  0-C ,  1-O ) :   1.9235 B(  0-C ,  2-C ) :   1.0092 B(  0-C ,  4-H ) :   0.9188
B(  2-C ,  3-C ) :   1.9673 B(  2-C ,  5-H ) :   0.9501 B(  3-C ,  6-H ) :   0.9632
B(  3-C ,  7-H ) :   0.9599

-----------------------------------------------------------------------------
         ABSORPTION SPECTRUM VIA TRANSITION ELECTRIC DIPOLE MOMENTS
-----------------------------------------------------------------------------
State   Energy    Wavelength  fosc         T2        TX        TY        TZ
        (cm-1)      (nm)                 (au**2)    (au)      (au)      (au)
-----------------------------------------------------------------------------
   1   34096.7    293.3   0.000159267   0.00154   0.03506   0.00065   0.01756

Dispersion correction           -0.025329151
FINAL SINGLE POINT ENERGY      -189.300727258022

DIPOLE MOMENT
-------------
                                X             Y             Z
Electronic contribution:     -2.33159      -1.63843       0.41697
Nuclear contribution   :      2.66835       2.56556      -0.64817
                        -----------------------------------------
Total Dipole Moment    :      0.33676       0.92713      -0.23120
                        -----------------------------------------
Magnitude (a.u.)       :      1.01313
Magnitude (Debye)      :      2.57518

Rotational constants in cm-1:     0.788202     0.201141     0.166310
Rotational constants in MHz : 23629.715025  6030.067049  4985.842667

                             ****ORCA TERMINATED NORMALLY****
TOTAL RUN TIME: 0 days 0 hours 0 minutes 12 seconds 97 msec
