                         Program Version 5.0.3 -  RELEASE  -
|  1> ! B3LYP cc-pVDZ
|  2> !TightSCF
|  3> %scf
|  4>  ConvForced true
|  5>  convergence tight
|  6>  MaxIter 500
|  7> end
|  8>
|  9> %tddft
| 10>  nroots 1
| 11> end
| 12>
| 13> # 	636
| 14> * xyz 0 1
| 15> 		C   -1.177027  -0.345514   0.122472
| 16> 		O   -1.929873  -0.600353   0.967647
| 17> 		C    0.015280   0.415200   0.308986
| 18> 		C    1.211991  -0.005168  -0.248348
| 19> 		H   -1.433491  -0.659495  -0.985811
| 20> 		H   -0.025774   1.368161   0.929100
| 21> 		H    1.258928  -0.877030  -0.838354
| 22> 		H    2.138317   0.631445  -0.248180
| 23> *
| 24>
| 25>                          ****END OF INPUT****

CARTESIAN COORDINATES (ANGSTROEM)
---------------------------------
  C     -1.177027   -0.345514    0.122472
  O     -1.929873   -0.600353    0.967647
  C      0.015280    0.415200    0.308986
  C      1.211991   -0.005168   -0.248348
  H     -1.433491   -0.659495   -0.985811
  H     -0.025774    1.368161    0.929100
  H      1.258928   -0.877030   -0.838354
  H      2.138317    0.631445   -0.248180

 Total Charge           Charge          ....    0
 Multiplicity           Mult            ....    1
 Number of Electrons    NEL             ....   30
 Basis Dimension        Dim             ....   76

ORBITAL ENERGIES
----------------

  NO   OCC          E(Eh)            E(eV)
   0   2.0000     -19.139390      -520.8093
   1   2.0000     -10.274501      -279.5834
   2   2.0000     -10.218120      -278.0492
   3   2.0000     -10.213705      -277.9290
   4   2.0000      -1.078623       -29.3508
   5   2.0000      -0.795182       -21.6380
   6   2.0000      -0.649509       -17.6740
   7   2.0000      -0.556916       -15.1545
   8   2.0000      -0.485368       -13.2075
   9   2.0000      -0.469018       -12.7626
  10   2.0000      -0.440548       -11.9879
  11   2.0000      -0.402693       -10.9578
  12   2.0000      -0.385243       -10.4830
  13   2.0000      -0.283260        -7.7079
  14   2.0000      -0.254416        -6.9230
  15   0.0000      -0.059688        -1.6242
  16   0.0000       0.022019         0.5992
  17   0.0000       0.082651         2.2491
  18   0.0000       0.084786         2.3072
  19   0.0000       0.115987         3.1562

MULLIKEN ATOMIC CHARGES
-----------------------
   0 C :    0.148870
   1 O :   -0.142316
   2 C :   -0.095297
   3 C :    0.024456
   4 H :   -0.030227
   5 H :    0.032839
   6 H :    0.015759
   7 H :    0.045915
Sum of atomic charges:   -0.0000000

LOEWDIN ATOMIC CHARGES
----------------------
   0 C :   -0.087552
   1 O :    0.055403
   2 C :   -0.058014
   3 C :   -0.002408
   4 H :   -0.010115
   5 H :    0.047767
   6 H :    0.015890
   7 H :    0.039029

  Mayer bond orders larger than 0.100000
B(  0-C ,  1-O ) :   2.2436 B(  0-C ,  2-C ) :   1.0353 B(  0-C ,  4-H ) :   0.9013
B(  2-C ,  3-C ) :   1.9639 B(  2-C ,  5-H ) :   0.9401 B(  3-C ,  6-H ) :   0.9506
B(  3-C ,  7-H ) :   0.9499

-----------------------------------------------------------------------------
         ABSORPTION SPECTRUM VIA TRANSITION ELECTRIC DIPOLE MOMENTS
-----------------------------------------------------------------------------
State   Energy    Wavelength  fosc         T2        TX        TY        TZ
        (cm-1)      (nm)                 (au**2)    (au)      (au)      (au)
-----------------------------------------------------------------------------
   1   30522.8    327.6   0.000453435   0.00489   0.06152  -0.01246  -0.03084

FINAL SINGLE POINT ENERGY      -191.650366182918

DIPOLE MOMENT
-------------
                                X             Y             Z
Electronic contribution:     -2.91082      -0.66459       1.64537
Nuclear contribution   :      3.69266       0.98759      -2.16896
                        -----------------------------------------
Total Dipole Moment    :      0.78184       0.32299      -0.52358
                        -----------------------------------------
Magnitude (a.u.)       :      0.99486
Magnitude (Debye)      :      2.52873

Rotational constants in cm-1:     1.317395     0.161267     0.151859
Rotational constants in MHz : 39494.518059  4834.668222  4552.610912

                             ****ORCA TERMINATED NORMALLY****
TOTAL RUN TIME: 0 days 0 hours 3 minutes 0 seconds 124 msec
