                         Program Version 5.0.3 -  RELEASE  -
|  1> ! B3LYP cc-pVDZ
|  2> !TightSCF
|  3> %scf
|  4>  ConvForced true
|  5>  convergence tight
|  6>  MaxIter 500
|  7> end
|  8>
|  9> %tddft
| 10>  nroots 1
| 11> end
| 12>
| 13> # 	6900
| 14> * xyz 0 1
| 15> 		C   -1.231225  -0.317226   0.004418
| 16> 		O   -1.149561  -1.509434   0.040058
| 17> 		C   -0.036768   0.521084   0.058792
| 18> 		C    1.230662  -0.023081  -0.019643
| 19> 		H   -2.070145   0.388470  -0.262135
| 20> 		H   -0.237680   1.539523   0.147095
| 21> 		H    1.226241  -1.150956   0.093296
| 22> 		H    2.240608   0.536051   0.010338
| 23> *
| 24>
| 25>                          ****END OF INPUT****

CARTESIAN COORDINATES (ANGSTROEM)
---------------------------------
  C     -1.231225   -0.317226    0.004418
  O     -1.149561   -1.509434    0.040058
  C     -0.036768    0.521084    0.058792
  C      1.230662   -0.023081   -0.019643
  H     -2.070145    0.388470   -0.262135
  H     -0.237680    1.539523    0.147095
  H      1.226241   -1.150956    0.093296
  H      2.240608    0.536051    0.010338

 Total Charge           Charge          ....    0
 Multiplicity           Mult            ....    1
 Number of Electrons    NEL             ....   30
 Basis Dimension        Dim             ....   76

ORBITAL ENERGIES
----------------

  NO   OCC          E(Eh)            E(eV)
   0   2.0000     -19.141876      -520.8769
   1   2.0000     -10.275063      -279.5987
   2   2.0000     -10.224926      -278.2344
   3   2.0000     -10.197949      -277.5003
   4   2.0000      -1.057808       -28.7844
   5   2.0000      -0.785873       -21.3847
   6   2.0000      -0.660383       -17.9699
   7   2.0000      -0.535728       -14.5779
   8   2.0000      -0.503130       -13.6909
   9   2.0000      -0.449126       -12.2213
  10   2.0000      -0.425095       -11.5674
  11   2.0000      -0.402203       -10.9445
  12   2.0000      -0.376340       -10.2407
  13   2.0000      -0.278861        -7.5882
  14   2.0000      -0.258122        -7.0239
  15   0.0000      -0.074498        -2.0272
  16   0.0000       0.053835         1.4649
  17   0.0000       0.070730         1.9247
  18   0.0000       0.083249         2.2653
  19   0.0000       0.132925         3.6171

MULLIKEN ATOMIC CHARGES
-----------------------
   0 C :    0.180110
   1 O :   -0.177872
   2 C :   -0.082821
   3 C :    0.015264
   4 H :   -0.014805
   5 H :   -0.034151
   6 H :    0.056905
   7 H :    0.057369
Sum of atomic charges:    0.0000000

LOEWDIN ATOMIC CHARGES
----------------------
   0 C :   -0.053959
   1 O :    0.017240
   2 C :   -0.077003
   3 C :    0.018034
   4 H :   -0.000369
   5 H :    0.010063
   6 H :    0.042025
   7 H :    0.043968

  Mayer bond orders larger than 0.100000
B(  0-C ,  1-O ) :   2.1966 B(  0-C ,  2-C ) :   1.0782 B(  0-C ,  4-H ) :   0.9060
B(  2-C ,  3-C ) :   1.9280 B(  2-C ,  5-H ) :   0.9535 B(  3-C ,  6-H ) :   0.9233
B(  3-C ,  7-H ) :   0.9480

-----------------------------------------------------------------------------
         ABSORPTION SPECTRUM VIA TRANSITION ELECTRIC DIPOLE MOMENTS
-----------------------------------------------------------------------------
State   Energy    Wavelength  fosc         T2        TX        TY        TZ
        (cm-1)      (nm)                 (au**2)    (au)      (au)      (au)
-----------------------------------------------------------------------------
   1   27622.1    362.0   0.000106756   0.00127  -0.00508  -0.01019   0.03380

FINAL SINGLE POINT ENERGY      -191.665081599420

DIPOLE MOMENT
-------------
                                X             Y             Z
Electronic contribution:     -1.91791      -1.75077       0.09185
Nuclear contribution   :      2.25792       2.59757      -0.08757
                        -----------------------------------------
Total Dipole Moment    :      0.34001       0.84680       0.00428
                        -----------------------------------------
Magnitude (a.u.)       :      0.91252
Magnitude (Debye)      :      2.31944

Rotational constants in cm-1:     0.726217     0.217495     0.167861
Rotational constants in MHz : 21771.439981  6520.338672  5032.361108

                             ****ORCA TERMINATED NORMALLY****
TOTAL RUN TIME: 0 days 0 hours 3 minutes 22 seconds 765 msec
