                         Program Version 5.0.3 -  RELEASE  -
|  1> ! B3LYP cc-pVDZ
|  2> !TightSCF
|  3> %scf
|  4>  ConvForced true
|  5>  convergence tight
|  6>  MaxIter 500
|  7> end
|  8>
|  9> %tddft
| 10>  nroots 1
| 11> end
| 12>
| 13> # 	10064
| 14> * xyz 0 1
| 15> 		C   -1.191296  -0.346193   0.047204
| 16> 		O   -1.368430  -1.502232  -0.435118
| 17> 		C    0.028006   0.514337  -0.125542
| 18> 		C    1.250365   0.029507   0.100683
| 19> 		H   -1.960696   0.088730   0.808263
| 20> 		H   -0.101246   1.550908  -0.708395
| 21> 		H    1.296840  -1.025495   0.427682
| 22> 		H    2.056152   0.675668  -0.159800
| 23> *
| 24>
| 25>                          ****END OF INPUT****

CARTESIAN COORDINATES (ANGSTROEM)
---------------------------------
  C     -1.191296   -0.346193    0.047204
  O     -1.368430   -1.502232   -0.435118
  C      0.028006    0.514337   -0.125542
  C      1.250365    0.029507    0.100683
  H     -1.960696    0.088730    0.808263
  H     -0.101246    1.550908   -0.708395
  H      1.296840   -1.025495    0.427682
  H      2.056152    0.675668   -0.159800

 Total Charge           Charge          ....    0
 Multiplicity           Mult            ....    1
 Number of Electrons    NEL             ....   30
 Basis Dimension        Dim             ....   76

ORBITAL ENERGIES
----------------

  NO   OCC          E(Eh)            E(eV)
   0   2.0000     -19.149956      -521.0968
   1   2.0000     -10.291922      -280.0574
   2   2.0000     -10.218208      -278.0516
   3   2.0000     -10.208687      -277.7925
   4   2.0000      -1.023357       -27.8470
   5   2.0000      -0.796519       -21.6744
   6   2.0000      -0.653451       -17.7813
   7   2.0000      -0.535819       -14.5804
   8   2.0000      -0.498265       -13.5585
   9   2.0000      -0.440388       -11.9836
  10   2.0000      -0.435930       -11.8623
  11   2.0000      -0.389615       -10.6020
  12   2.0000      -0.363196        -9.8831
  13   2.0000      -0.289909        -7.8888
  14   2.0000      -0.258627        -7.0376
  15   0.0000      -0.059612        -1.6221
  16   0.0000      -0.000748        -0.0203
  17   0.0000       0.069352         1.8872
  18   0.0000       0.085947         2.3387
  19   0.0000       0.094713         2.5773

MULLIKEN ATOMIC CHARGES
-----------------------
   0 C :    0.166772
   1 O :   -0.217201
   2 C :   -0.151975
   3 C :    0.084156
   4 H :    0.012553
   5 H :    0.044886
   6 H :    0.036704
   7 H :    0.024105
Sum of atomic charges:   -0.0000000

LOEWDIN ATOMIC CHARGES
----------------------
   0 C :    0.004909
   1 O :   -0.042676
   2 C :   -0.082140
   3 C :   -0.007432
   4 H :    0.005527
   5 H :    0.054271
   6 H :    0.038994
   7 H :    0.028548

  Mayer bond orders larger than 0.100000
B(  0-C ,  1-O ) :   2.1670 B(  0-C ,  2-C ) :   0.9931 B(  0-C ,  4-H ) :   0.9068
B(  2-C ,  3-C ) :   2.0186 B(  2-C ,  5-H ) :   0.9256 B(  3-C ,  6-H ) :   0.9377
B(  3-C ,  7-H ) :   0.9378

-----------------------------------------------------------------------------
         ABSORPTION SPECTRUM VIA TRANSITION ELECTRIC DIPOLE MOMENTS
-----------------------------------------------------------------------------
State   Energy    Wavelength  fosc         T2        TX        TY        TZ
        (cm-1)      (nm)                 (au**2)    (au)      (au)      (au)
-----------------------------------------------------------------------------
   1   29183.9    342.7   0.000101177   0.00114   0.02380  -0.00248  -0.02385

FINAL SINGLE POINT ENERGY      -191.652444392627

DIPOLE MOMENT
-------------
                                X             Y             Z
Electronic contribution:     -2.06685      -1.69793      -0.52537
Nuclear contribution   :      2.50450       2.55605       0.76344
                        -----------------------------------------
Total Dipole Moment    :      0.43765       0.85812       0.23807
                        -----------------------------------------
Magnitude (a.u.)       :      0.99226
Magnitude (Debye)      :      2.52213

Rotational constants in cm-1:     0.790583     0.183554     0.157376
Rotational constants in MHz : 23701.080902  5502.805976  4718.007974

                             ****ORCA TERMINATED NORMALLY****
TOTAL RUN TIME: 0 days 0 hours 3 minutes 22 seconds 186 msec
