                         Program Version 5.0.3 -  RELEASE  -
|  1> ! HF-3c
|  2> !TightSCF
|  3> %scf
|  4>  ConvForced true
|  5>  convergence tight
|  6>  MaxIter 500
|  7> end
|  8>
|  9> %tddft
| 10>  nroots 1
| 11> end
| 12>
| 13> # 	24018
| 14> * xyz 0 1
| 15> 		C   -0.655540  -0.444408   0.015759
| 16> 		O   -0.552645  -1.598618   0.001524
| 17> 		C    0.604501   0.371086  -0.017453
| 18> 		C    1.895493  -0.146032  -0.000494
| 19> 		H   -1.511182   0.214365  -0.047686
| 20> 		H    0.535546   1.547082   0.017707
| 21> 		H    2.059970  -1.143801  -0.107216
| 22> 		H    2.657177   0.651086   0.150076
| 23> *
| 24>
| 25>                          ****END OF INPUT****

CARTESIAN COORDINATES (ANGSTROEM)
---------------------------------
  C     -0.655540   -0.444408    0.015759
  O     -0.552645   -1.598618    0.001524
  C      0.604501    0.371086   -0.017453
  C      1.895493   -0.146032   -0.000494
  H     -1.511182    0.214365   -0.047686
  H      0.535546    1.547082    0.017707
  H      2.059970   -1.143801   -0.107216
  H      2.657177    0.651086    0.150076

 Total Charge           Charge          ....    0
 Multiplicity           Mult            ....    1
 Number of Electrons    NEL             ....   30
 Basis Dimension        Dim             ....   24

ORBITAL ENERGIES
----------------

  NO   OCC          E(Eh)            E(eV)
   0   2.0000     -20.389639      -554.8303
   1   2.0000     -11.314976      -307.8962
   2   2.0000     -11.175930      -304.1125
   3   2.0000     -11.165680      -303.8336
   4   2.0000      -1.448238       -39.4086
   5   2.0000      -1.047466       -28.5030
   6   2.0000      -0.893346       -24.3092
   7   2.0000      -0.748325       -20.3629
   8   2.0000      -0.700017       -19.0484
   9   2.0000      -0.629692       -17.1348
  10   2.0000      -0.578503       -15.7419
  11   2.0000      -0.566042       -15.4028
  12   2.0000      -0.530430       -14.4337
  13   2.0000      -0.409383       -11.1399
  14   2.0000      -0.372710       -10.1419
  15   0.0000       0.133475         3.6320
  16   0.0000       0.308753         8.4016
  17   0.0000       0.552507        15.0345
  18   0.0000       0.594645        16.1811
  19   0.0000       0.652378        17.7521

MULLIKEN ATOMIC CHARGES
-----------------------
   0 C :    0.173185
   1 O :   -0.354174
   2 C :   -0.147027
   3 C :   -0.239051
   4 H :    0.142972
   5 H :    0.125318
   6 H :    0.151930
   7 H :    0.146848
Sum of atomic charges:    0.0000000

LOEWDIN ATOMIC CHARGES
----------------------
   0 C :    0.146516
   1 O :   -0.240668
   2 C :   -0.120725
   3 C :   -0.136725
   4 H :    0.074707
   5 H :    0.083412
   6 H :    0.093788
   7 H :    0.099696

  Mayer bond orders larger than 0.100000
B(  0-C ,  1-O ) :   1.9208 B(  0-C ,  2-C ) :   1.0077 B(  0-C ,  4-H ) :   0.9169
B(  2-C ,  3-C ) :   1.9444 B(  2-C ,  5-H ) :   0.9645 B(  3-C ,  6-H ) :   0.9655
B(  3-C ,  7-H ) :   0.9661

-----------------------------------------------------------------------------
         ABSORPTION SPECTRUM VIA TRANSITION ELECTRIC DIPOLE MOMENTS
-----------------------------------------------------------------------------
State   Energy    Wavelength  fosc         T2        TX        TY        TZ
        (cm-1)      (nm)                 (au**2)    (au)      (au)      (au)
-----------------------------------------------------------------------------
   1   34391.6    290.8   0.000029642   0.00028  -0.01618   0.00315   0.00345

Dispersion correction           -0.025500948
FINAL SINGLE POINT ENERGY      -189.306850237536

DIPOLE MOMENT
-------------
                                X             Y             Z
Electronic contribution:     -2.20910      -2.01148       0.00529
Nuclear contribution   :      2.35402       2.97648       0.01136
                        -----------------------------------------
Total Dipole Moment    :      0.14492       0.96501       0.01665
                        -----------------------------------------
Magnitude (a.u.)       :      0.97597
Magnitude (Debye)      :      2.48072

Rotational constants in cm-1:     0.758182     0.208996     0.163973
Rotational constants in MHz : 22729.736795  6265.529861  4915.777972

                             ****ORCA TERMINATED NORMALLY****
TOTAL RUN TIME: 0 days 0 hours 0 minutes 10 seconds 692 msec
