                         Program Version 5.0.3 -  RELEASE  -
|  1> ! HF-3c
|  2> !TightSCF
|  3> %scf
|  4>  ConvForced true
|  5>  convergence tight
|  6>  MaxIter 500
|  7> end
|  8>
|  9> %tddft
| 10>  nroots 1
| 11> end
| 12>
| 13> # 	25242
| 14> * xyz 0 1
| 15> 		C   -0.541990  -0.429990   0.017895
| 16> 		O   -0.608312  -1.638109  -0.007180
| 17> 		C    0.664419   0.394252   0.021859
| 18> 		C    1.808847  -0.103663   0.016525
| 19> 		H   -1.436583   0.172545  -0.167632
| 20> 		H    0.352784   1.410223  -0.126176
| 21> 		H    1.925649  -1.133840  -0.106081
| 22> 		H    2.751083   0.469547  -0.167336
| 23> *
| 24>
| 25>                          ****END OF INPUT****

CARTESIAN COORDINATES (ANGSTROEM)
---------------------------------
  C     -0.541990   -0.429990    0.017895
  O     -0.608312   -1.638109   -0.007180
  C      0.664419    0.394252    0.021859
  C      1.808847   -0.103663    0.016525
  H     -1.436583    0.172545   -0.167632
  H      0.352784    1.410223   -0.126176
  H      1.925649   -1.133840   -0.106081
  H      2.751083    0.469547   -0.167336

 Total Charge           Charge          ....    0
 Multiplicity           Mult            ....    1
 Number of Electrons    NEL             ....   30
 Basis Dimension        Dim             ....   24

ORBITAL ENERGIES
----------------

  NO   OCC          E(Eh)            E(eV)
   0   2.0000     -20.368647      -554.2591
   1   2.0000     -11.293892      -307.3224
   2   2.0000     -11.201715      -304.8142
   3   2.0000     -11.200208      -304.7732
   4   2.0000      -1.403287       -38.1854
   5   2.0000      -1.115686       -30.3594
   6   2.0000      -0.910642       -24.7798
   7   2.0000      -0.750408       -20.4196
   8   2.0000      -0.714104       -19.4318
   9   2.0000      -0.640988       -17.4422
  10   2.0000      -0.599663       -16.3177
  11   2.0000      -0.550564       -14.9816
  12   2.0000      -0.529606       -14.4113
  13   2.0000      -0.421301       -11.4642
  14   2.0000      -0.412867       -11.2347
  15   0.0000       0.135736         3.6936
  16   0.0000       0.323221         8.7953
  17   0.0000       0.522798        14.2261
  18   0.0000       0.673112        18.3163
  19   0.0000       0.693427        18.8691

MULLIKEN ATOMIC CHARGES
-----------------------
   0 C :    0.171700
   1 O :   -0.349828
   2 C :   -0.186700
   3 C :   -0.229223
   4 H :    0.130069
   5 H :    0.148081
   6 H :    0.161916
   7 H :    0.153985
Sum of atomic charges:    0.0000000

LOEWDIN ATOMIC CHARGES
----------------------
   0 C :    0.150626
   1 O :   -0.254720
   2 C :   -0.135847
   3 C :   -0.126756
   4 H :    0.066220
   5 H :    0.093607
   6 H :    0.103067
   7 H :    0.103802

  Mayer bond orders larger than 0.100000
B(  0-C ,  1-O ) :   1.9119 B(  0-C ,  2-C ) :   1.0147 B(  0-C ,  4-H ) :   0.9277
B(  2-C ,  3-C ) :   1.9664 B(  2-C ,  5-H ) :   0.9530 B(  3-C ,  6-H ) :   0.9534
B(  3-C ,  7-H ) :   0.9565

-----------------------------------------------------------------------------
         ABSORPTION SPECTRUM VIA TRANSITION ELECTRIC DIPOLE MOMENTS
-----------------------------------------------------------------------------
State   Energy    Wavelength  fosc         T2        TX        TY        TZ
        (cm-1)      (nm)                 (au**2)    (au)      (au)      (au)
-----------------------------------------------------------------------------
   1   32213.0    310.4   0.000016091   0.00016   0.00814  -0.00247   0.00960

Dispersion correction           -0.026426949
FINAL SINGLE POINT ENERGY      -189.329759432196

DIPOLE MOMENT
-------------
                                X             Y             Z
Electronic contribution:     -1.87367      -1.71589       0.40937
Nuclear contribution   :      2.21364       2.64895      -0.53155
                        -----------------------------------------
Total Dipole Moment    :      0.33997       0.93306      -0.12218
                        -----------------------------------------
Magnitude (a.u.)       :      1.00055
Magnitude (Debye)      :      2.54321

Rotational constants in cm-1:     0.830249     0.210598     0.168315
Rotational constants in MHz : 24890.245490  6313.580180  5045.948935

                             ****ORCA TERMINATED NORMALLY****
TOTAL RUN TIME: 0 days 0 hours 0 minutes 12 seconds 845 msec
