                         Program Version 5.0.3 -  RELEASE  -
|  1> ! B3LYP cc-pVDZ
|  2> !TightSCF
|  3> %scf
|  4>  ConvForced true
|  5>  convergence tight
|  6>  MaxIter 500
|  7> end
|  8>
|  9> %tddft
| 10>  nroots 1
| 11> end
| 12>
| 13> # 	17516
| 14> * xyz 0 1
| 15> 		C   -1.245154  -0.470871  -0.045604
| 16> 		O   -2.030476  -0.698446  -0.921056
| 17> 		C   -0.031528   0.445025  -0.309960
| 18> 		C    1.176028   0.036295   0.216635
| 19> 		H   -1.320022  -0.741711   0.997492
| 20> 		H    0.046300   1.391974  -1.020978
| 21> 		H    1.241924  -0.684675   0.958230
| 22> 		H    2.098527   0.722792   0.096549
| 23> *
| 24>
| 25>                          ****END OF INPUT****

CARTESIAN COORDINATES (ANGSTROEM)
---------------------------------
  C     -1.245154   -0.470871   -0.045604
  O     -2.030476   -0.698446   -0.921056
  C     -0.031528    0.445025   -0.309960
  C      1.176028    0.036295    0.216635
  H     -1.320022   -0.741711    0.997492
  H      0.046300    1.391974   -1.020978
  H      1.241924   -0.684675    0.958230
  H      2.098527    0.722792    0.096549

 Total Charge           Charge          ....    0
 Multiplicity           Mult            ....    1
 Number of Electrons    NEL             ....   30
 Basis Dimension        Dim             ....   76

ORBITAL ENERGIES
----------------

  NO   OCC          E(Eh)            E(eV)
   0   2.0000     -19.146735      -521.0091
   1   2.0000     -10.285233      -279.8754
   2   2.0000     -10.218185      -278.0509
   3   2.0000     -10.211937      -277.8809
   4   2.0000      -1.059336       -28.8260
   5   2.0000      -0.782927       -21.3045
   6   2.0000      -0.638611       -17.3775
   7   2.0000      -0.567751       -15.4493
   8   2.0000      -0.481743       -13.1089
   9   2.0000      -0.459022       -12.4906
  10   2.0000      -0.427700       -11.6383
  11   2.0000      -0.392620       -10.6837
  12   2.0000      -0.379951       -10.3390
  13   2.0000      -0.282539        -7.6883
  14   2.0000      -0.259261        -7.0549
  15   0.0000      -0.058537        -1.5929
  16   0.0000       0.014933         0.4064
  17   0.0000       0.069698         1.8966
  18   0.0000       0.078913         2.1473
  19   0.0000       0.122896         3.3442

MULLIKEN ATOMIC CHARGES
-----------------------
   0 C :    0.207761
   1 O :   -0.172183
   2 C :   -0.135785
   3 C :    0.005714
   4 H :   -0.002246
   5 H :    0.042880
   6 H :    0.008329
   7 H :    0.045531
Sum of atomic charges:   -0.0000000

LOEWDIN ATOMIC CHARGES
----------------------
   0 C :   -0.029582
   1 O :    0.022623
   2 C :   -0.064071
   3 C :   -0.025915
   4 H :   -0.003879
   5 H :    0.052561
   6 H :    0.005742
   7 H :    0.042521

  Mayer bond orders larger than 0.100000
B(  0-C ,  1-O ) :   2.2100 B(  0-C ,  2-C ) :   0.9898 B(  0-C ,  4-H ) :   0.9152
B(  2-C ,  3-C ) :   1.9596 B(  2-C ,  5-H ) :   0.9402 B(  3-C ,  6-H ) :   0.9552
B(  3-C ,  7-H ) :   0.9490

-----------------------------------------------------------------------------
         ABSORPTION SPECTRUM VIA TRANSITION ELECTRIC DIPOLE MOMENTS
-----------------------------------------------------------------------------
State   Energy    Wavelength  fosc         T2        TX        TY        TZ
        (cm-1)      (nm)                 (au**2)    (au)      (au)      (au)
-----------------------------------------------------------------------------
   1   30936.4    323.2   0.001296061   0.01379  -0.11190  -0.03502   0.00661

FINAL SINGLE POINT ENERGY      -191.643916690583

DIPOLE MOMENT
-------------
                                X             Y             Z
Electronic contribution:     -3.32215      -1.04976      -1.34963
Nuclear contribution   :      4.03320       1.33135       1.98645
                        -----------------------------------------
Total Dipole Moment    :      0.71105       0.28159       0.63682
                        -----------------------------------------
Magnitude (a.u.)       :      0.99520
Magnitude (Debye)      :      2.52960

Rotational constants in cm-1:     1.225881     0.154950     0.144300
Rotational constants in MHz : 36750.988805  4645.280281  4325.991213

                             ****ORCA TERMINATED NORMALLY****
TOTAL RUN TIME: 0 days 0 hours 3 minutes 18 seconds 531 msec
