                         Program Version 5.0.3 -  RELEASE  -
|  1> ! B3LYP cc-pVDZ
|  2> !TightSCF
|  3> %scf
|  4>  ConvForced true
|  5>  convergence tight
|  6>  MaxIter 500
|  7> end
|  8>
|  9> %tddft
| 10>  nroots 1
| 11> end
| 12>
| 13> # 	4078
| 14> * xyz 0 1
| 15> 		C   -1.208130  -0.390884  -0.065341
| 16> 		O   -2.249341  -0.335255  -0.521811
| 17> 		C   -0.056661   0.380660  -0.319784
| 18> 		C    1.167096   0.039835   0.274000
| 19> 		H   -1.050405  -1.073641   0.570930
| 20> 		H   -0.068120   1.309615  -0.970061
| 21> 		H    1.419906  -0.717158   1.014815
| 22> 		H    2.071404   0.732645   0.004730
| 23> *
| 24>
| 25>                          ****END OF INPUT****

CARTESIAN COORDINATES (ANGSTROEM)
---------------------------------
  C     -1.208130   -0.390884   -0.065341
  O     -2.249341   -0.335255   -0.521811
  C     -0.056661    0.380660   -0.319784
  C      1.167096    0.039835    0.274000
  H     -1.050405   -1.073641    0.570930
  H     -0.068120    1.309615   -0.970061
  H      1.419906   -0.717158    1.014815
  H      2.071404    0.732645    0.004730

 Total Charge           Charge          ....    0
 Multiplicity           Mult            ....    1
 Number of Electrons    NEL             ....   30
 Basis Dimension        Dim             ....   76

ORBITAL ENERGIES
----------------

  NO   OCC          E(Eh)            E(eV)
   0   2.0000     -19.124415      -520.4018
   1   2.0000     -10.243193      -278.7315
   2   2.0000     -10.235173      -278.5132
   3   2.0000     -10.212186      -277.8877
   4   2.0000      -1.080820       -29.4106
   5   2.0000      -0.798222       -21.7207
   6   2.0000      -0.656003       -17.8508
   7   2.0000      -0.586521       -15.9600
   8   2.0000      -0.495444       -13.4817
   9   2.0000      -0.460641       -12.5347
  10   2.0000      -0.420474       -11.4417
  11   2.0000      -0.411514       -11.1979
  12   2.0000      -0.390910       -10.6372
  13   2.0000      -0.287130        -7.8132
  14   2.0000      -0.247076        -6.7233
  15   0.0000      -0.067790        -1.8447
  16   0.0000       0.059431         1.6172
  17   0.0000       0.070771         1.9258
  18   0.0000       0.082051         2.2327
  19   0.0000       0.131524         3.5790

MULLIKEN ATOMIC CHARGES
-----------------------
   0 C :    0.294238
   1 O :   -0.151086
   2 C :   -0.117499
   3 C :   -0.014794
   4 H :   -0.124212
   5 H :    0.015795
   6 H :    0.042483
   7 H :    0.055076
Sum of atomic charges:    0.0000000

LOEWDIN ATOMIC CHARGES
----------------------
   0 C :   -0.107999
   1 O :    0.074302
   2 C :   -0.052020
   3 C :    0.011028
   4 H :   -0.040534
   5 H :    0.040609
   6 H :    0.027061
   7 H :    0.047553

  Mayer bond orders larger than 0.100000
B(  0-C ,  1-O ) :   2.2486 B(  0-C ,  2-C ) :   1.1023 B(  0-C ,  4-H ) :   0.9269
B(  1-O ,  3-C ) :   0.1047 B(  2-C ,  3-C ) :   1.8917 B(  2-C ,  5-H ) :   0.9370
B(  3-C ,  6-H ) :   0.9536 B(  3-C ,  7-H ) :   0.9467

-----------------------------------------------------------------------------
         ABSORPTION SPECTRUM VIA TRANSITION ELECTRIC DIPOLE MOMENTS
-----------------------------------------------------------------------------
State   Energy    Wavelength  fosc         T2        TX        TY        TZ
        (cm-1)      (nm)                 (au**2)    (au)      (au)      (au)
-----------------------------------------------------------------------------
   1   27526.6    363.3   0.000008139   0.00010   0.00398   0.00662   0.00613

FINAL SINGLE POINT ENERGY      -191.634674329813

DIPOLE MOMENT
-------------
                                X             Y             Z
Electronic contribution:     -3.43536      -0.46989      -0.81611
Nuclear contribution   :      4.52929       0.55047       1.18302
                        -----------------------------------------
Total Dipole Moment    :      1.09393       0.08058       0.36691
                        -----------------------------------------
Magnitude (a.u.)       :      1.15663
Magnitude (Debye)      :      2.93993

Rotational constants in cm-1:     1.692413     0.157236     0.144004
Rotational constants in MHz : 50737.265915  4713.807005  4317.134499

                             ****ORCA TERMINATED NORMALLY****
TOTAL RUN TIME: 0 days 0 hours 3 minutes 15 seconds 482 msec
