                         Program Version 5.0.3 -  RELEASE  -
|  1> ! HF-3c
|  2> !TightSCF
|  3> %scf
|  4>  ConvForced true
|  5>  convergence tight
|  6>  MaxIter 500
|  7> end
|  8>
|  9> %tddft
| 10>  nroots 1
| 11> end
| 12>
| 13> # 	17653
| 14> * xyz 0 1
| 15> 		C   -1.226394  -0.332130   0.030748
| 16> 		O   -1.800241  -0.996616   0.803005
| 17> 		C    0.053517   0.435937   0.260231
| 18> 		C    1.226904   0.087463  -0.274153
| 19> 		H   -1.543234  -0.354544  -1.054724
| 20> 		H   -0.130430   1.239455   0.932813
| 21> 		H    1.245401  -0.755268  -0.714476
| 22> 		H    2.077148   0.716659  -0.044180
| 23> *
| 24>
| 25>                          ****END OF INPUT****

CARTESIAN COORDINATES (ANGSTROEM)
---------------------------------
  C     -1.226394   -0.332130    0.030748
  O     -1.800241   -0.996616    0.803005
  C      0.053517    0.435937    0.260231
  C      1.226904    0.087463   -0.274153
  H     -1.543234   -0.354544   -1.054724
  H     -0.130430    1.239455    0.932813
  H      1.245401   -0.755268   -0.714476
  H      2.077148    0.716659   -0.044180

 Total Charge           Charge          ....    0
 Multiplicity           Mult            ....    1
 Number of Electrons    NEL             ....   30
 Basis Dimension        Dim             ....   24

ORBITAL ENERGIES
----------------

  NO   OCC          E(Eh)            E(eV)
   0   2.0000     -20.392728      -554.9143
   1   2.0000     -11.311124      -307.7913
   2   2.0000     -11.197898      -304.7103
   3   2.0000     -11.190751      -304.5158
   4   2.0000      -1.441654       -39.2294
   5   2.0000      -1.091464       -29.7002
   6   2.0000      -0.893240       -24.3063
   7   2.0000      -0.781462       -21.2647
   8   2.0000      -0.696513       -18.9531
   9   2.0000      -0.650915       -17.7123
  10   2.0000      -0.615442       -16.7470
  11   2.0000      -0.580756       -15.8032
  12   2.0000      -0.533219       -14.5096
  13   2.0000      -0.411818       -11.2061
  14   2.0000      -0.404542       -11.0081
  15   0.0000       0.168283         4.5792
  16   0.0000       0.239827         6.5260
  17   0.0000       0.556922        15.1546
  18   0.0000       0.631246        17.1771
  19   0.0000       0.692213        18.8361

MULLIKEN ATOMIC CHARGES
-----------------------
   0 C :    0.185932
   1 O :   -0.350499
   2 C :   -0.144523
   3 C :   -0.276579
   4 H :    0.133728
   5 H :    0.151173
   6 H :    0.143161
   7 H :    0.157608
Sum of atomic charges:   -0.0000000

LOEWDIN ATOMIC CHARGES
----------------------
   0 C :    0.152361
   1 O :   -0.239181
   2 C :   -0.096635
   3 C :   -0.172397
   4 H :    0.070646
   5 H :    0.095995
   6 H :    0.083380
   7 H :    0.105832

  Mayer bond orders larger than 0.100000
B(  0-C ,  1-O ) :   1.9545 B(  0-C ,  2-C ) :   0.9759 B(  0-C ,  4-H ) :   0.9113
B(  2-C ,  3-C ) :   1.9933 B(  2-C ,  5-H ) :   0.9548 B(  3-C ,  6-H ) :   0.9688
B(  3-C ,  7-H ) :   0.9610

-----------------------------------------------------------------------------
         ABSORPTION SPECTRUM VIA TRANSITION ELECTRIC DIPOLE MOMENTS
-----------------------------------------------------------------------------
State   Energy    Wavelength  fosc         T2        TX        TY        TZ
        (cm-1)      (nm)                 (au**2)    (au)      (au)      (au)
-----------------------------------------------------------------------------
   1   36362.9    275.0   0.000238288   0.00216  -0.03091  -0.01055  -0.03302

Dispersion correction           -0.025448744
FINAL SINGLE POINT ENERGY      -189.295201215917

DIPOLE MOMENT
-------------
                                X             Y             Z
Electronic contribution:     -2.76493      -1.07518       1.11384
Nuclear contribution   :      3.30052       1.63903      -1.63152
                        -----------------------------------------
Total Dipole Moment    :      0.53559       0.56385      -0.51768
                        -----------------------------------------
Magnitude (a.u.)       :      0.93422
Magnitude (Debye)      :      2.37460

Rotational constants in cm-1:     1.208324     0.157722     0.153851
Rotational constants in MHz : 36224.641779  4728.395353  4612.340646

                             ****ORCA TERMINATED NORMALLY****
TOTAL RUN TIME: 0 days 0 hours 0 minutes 6 seconds 697 msec
