                         Program Version 5.0.3 -  RELEASE  -
|  1> ! HF-3c
|  2> !TightSCF
|  3> %scf
|  4>  ConvForced true
|  5>  convergence tight
|  6>  MaxIter 500
|  7> end
|  8>
|  9> %tddft
| 10>  nroots 1
| 11> end
| 12>
| 13> # 	15671
| 14> * xyz 0 1
| 15> 		C   -1.214448  -0.301073   0.006836
| 16> 		O   -1.817892  -0.861252  -0.814713
| 17> 		C   -0.057017   0.496315  -0.325718
| 18> 		C    1.159760   0.010164   0.147836
| 19> 		H   -1.451971  -0.364424   1.175143
| 20> 		H   -0.200753   1.268398  -1.073182
| 21> 		H    1.220048  -0.951891   0.893184
| 22> 		H    2.275438   0.627489  -0.042391
| 23> *
| 24>
| 25>                          ****END OF INPUT****

CARTESIAN COORDINATES (ANGSTROEM)
---------------------------------
  C     -1.214448   -0.301073    0.006836
  O     -1.817892   -0.861252   -0.814713
  C     -0.057017    0.496315   -0.325718
  C      1.159760    0.010164    0.147836
  H     -1.451971   -0.364424    1.175143
  H     -0.200753    1.268398   -1.073182
  H      1.220048   -0.951891    0.893184
  H      2.275438    0.627489   -0.042391

 Total Charge           Charge          ....    0
 Multiplicity           Mult            ....    1
 Number of Electrons    NEL             ....   30
 Basis Dimension        Dim             ....   24

ORBITAL ENERGIES
----------------

  NO   OCC          E(Eh)            E(eV)
   0   2.0000     -20.374643      -554.4222
   1   2.0000     -11.302168      -307.5476
   2   2.0000     -11.176082      -304.1166
   3   2.0000     -11.171435      -303.9902
   4   2.0000      -1.436618       -39.0924
   5   2.0000      -1.055212       -28.7138
   6   2.0000      -0.843613       -22.9559
   7   2.0000      -0.752390       -20.4736
   8   2.0000      -0.659942       -17.9579
   9   2.0000      -0.623253       -16.9596
  10   2.0000      -0.589590       -16.0436
  11   2.0000      -0.519391       -14.1334
  12   2.0000      -0.508475       -13.8363
  13   2.0000      -0.394854       -10.7445
  14   2.0000      -0.372963       -10.1488
  15   0.0000       0.168245         4.5782
  16   0.0000       0.257872         7.0171
  17   0.0000       0.475716        12.9449
  18   0.0000       0.509441        13.8626
  19   0.0000       0.558632        15.2011

MULLIKEN ATOMIC CHARGES
-----------------------
   0 C :    0.189083
   1 O :   -0.363240
   2 C :   -0.196254
   3 C :   -0.185736
   4 H :    0.128055
   5 H :    0.153827
   6 H :    0.134369
   7 H :    0.139896
Sum of atomic charges:   -0.0000000

LOEWDIN ATOMIC CHARGES
----------------------
   0 C :    0.153185
   1 O :   -0.252263
   2 C :   -0.156537
   3 C :   -0.116020
   4 H :    0.070679
   5 H :    0.101391
   6 H :    0.095241
   7 H :    0.104324

  Mayer bond orders larger than 0.100000
B(  0-C ,  1-O ) :   1.9318 B(  0-C ,  2-C ) :   1.0049 B(  0-C ,  4-H ) :   0.9021
B(  2-C ,  3-C ) :   1.9618 B(  2-C ,  5-H ) :   0.9520 B(  3-C ,  6-H ) :   0.9602
B(  3-C ,  7-H ) :   0.9563

-----------------------------------------------------------------------------
         ABSORPTION SPECTRUM VIA TRANSITION ELECTRIC DIPOLE MOMENTS
-----------------------------------------------------------------------------
State   Energy    Wavelength  fosc         T2        TX        TY        TZ
        (cm-1)      (nm)                 (au**2)    (au)      (au)      (au)
-----------------------------------------------------------------------------
   1   37095.9    269.6   0.000111190   0.00099   0.02466  -0.01389   0.01362

Dispersion correction           -0.025033199
FINAL SINGLE POINT ENERGY      -189.258841943486

DIPOLE MOMENT
-------------
                                X             Y             Z
Electronic contribution:     -2.82075      -0.83844      -1.15121
Nuclear contribution   :      3.62176       1.25191       1.83125
                        -----------------------------------------
Total Dipole Moment    :      0.80101       0.41347       0.68003
                        -----------------------------------------
Magnitude (a.u.)       :      1.12917
Magnitude (Debye)      :      2.87011

Rotational constants in cm-1:     1.020302     0.169221     0.162335
Rotational constants in MHz : 30587.885523  5073.121235  4866.668798

                             ****ORCA TERMINATED NORMALLY****
TOTAL RUN TIME: 0 days 0 hours 0 minutes 15 seconds 841 msec
