                         Program Version 5.0.3 -  RELEASE  -
|  1> ! B3LYP cc-pVDZ
|  2> !TightSCF
|  3> %scf
|  4>  ConvForced true
|  5>  convergence tight
|  6>  MaxIter 500
|  7> end
|  8>
|  9> %tddft
| 10>  nroots 1
| 11> end
| 12>
| 13> # 	23543
| 14> * xyz 0 1
| 15> 		C   -0.662425  -0.446585  -0.068659
| 16> 		O   -0.554020  -1.629603   0.038830
| 17> 		C    0.656334   0.429424   0.044673
| 18> 		C    1.869432  -0.127469  -0.030535
| 19> 		H   -1.641944   0.168726  -0.167456
| 20> 		H    0.455249   1.436776   0.279349
| 21> 		H    2.063448  -1.179990  -0.003008
| 22> 		H    2.647256   0.438231  -0.063573
| 23> *
| 24>
| 25>                          ****END OF INPUT****

CARTESIAN COORDINATES (ANGSTROEM)
---------------------------------
  C     -0.662425   -0.446585   -0.068659
  O     -0.554020   -1.629603    0.038830
  C      0.656334    0.429424    0.044673
  C      1.869432   -0.127469   -0.030535
  H     -1.641944    0.168726   -0.167456
  H      0.455249    1.436776    0.279349
  H      2.063448   -1.179990   -0.003008
  H      2.647256    0.438231   -0.063573

 Total Charge           Charge          ....    0
 Multiplicity           Mult            ....    1
 Number of Electrons    NEL             ....   30
 Basis Dimension        Dim             ....   76

ORBITAL ENERGIES
----------------

  NO   OCC          E(Eh)            E(eV)
   0   2.0000     -19.145628      -520.9790
   1   2.0000     -10.285162      -279.8735
   2   2.0000     -10.200785      -277.5775
   3   2.0000     -10.191489      -277.3245
   4   2.0000      -1.060367       -28.8540
   5   2.0000      -0.784385       -21.3442
   6   2.0000      -0.648588       -17.6490
   7   2.0000      -0.549844       -14.9620
   8   2.0000      -0.501490       -13.6462
   9   2.0000      -0.450386       -12.2556
  10   2.0000      -0.435069       -11.8388
  11   2.0000      -0.403142       -10.9700
  12   2.0000      -0.389129       -10.5887
  13   2.0000      -0.282542        -7.6884
  14   2.0000      -0.252665        -6.8754
  15   0.0000      -0.060287        -1.6405
  16   0.0000       0.044779         1.2185
  17   0.0000       0.073347         1.9959
  18   0.0000       0.101325         2.7572
  19   0.0000       0.119630         3.2553

MULLIKEN ATOMIC CHARGES
-----------------------
   0 C :    0.154640
   1 O :   -0.163162
   2 C :   -0.138141
   3 C :    0.164689
   4 H :    0.000163
   5 H :   -0.022485
   6 H :    0.025316
   7 H :   -0.021019
Sum of atomic charges:   -0.0000000

LOEWDIN ATOMIC CHARGES
----------------------
   0 C :   -0.030023
   1 O :    0.019285
   2 C :   -0.060900
   3 C :    0.035024
   4 H :   -0.000783
   5 H :    0.011888
   6 H :    0.031801
   7 H :   -0.006292

  Mayer bond orders larger than 0.100000
B(  0-C ,  1-O ) :   2.2258 B(  0-C ,  2-C ) :   0.9922 B(  0-C ,  4-H ) :   0.8944
B(  2-C ,  3-C ) :   2.0054 B(  2-C ,  5-H ) :   0.9478 B(  3-C ,  6-H ) :   0.9421
B(  3-C ,  7-H ) :   0.9367

-----------------------------------------------------------------------------
         ABSORPTION SPECTRUM VIA TRANSITION ELECTRIC DIPOLE MOMENTS
-----------------------------------------------------------------------------
State   Energy    Wavelength  fosc         T2        TX        TY        TZ
        (cm-1)      (nm)                 (au**2)    (au)      (au)      (au)
-----------------------------------------------------------------------------
   1   29576.8    338.1   0.000216653   0.00241   0.04621   0.01607   0.00425

FINAL SINGLE POINT ENERGY      -191.646845133610

DIPOLE MOMENT
-------------
                                X             Y             Z
Electronic contribution:     -1.92383      -1.79581      -0.06088
Nuclear contribution   :      2.15091       2.59651       0.04227
                        -----------------------------------------
Total Dipole Moment    :      0.22709       0.80070      -0.01861
                        -----------------------------------------
Magnitude (a.u.)       :      0.83248
Magnitude (Debye)      :      2.11601

Rotational constants in cm-1:     0.732710     0.205786     0.161360
Rotational constants in MHz : 21966.106125  6169.310382  4837.457090

                             ****ORCA TERMINATED NORMALLY****
TOTAL RUN TIME: 0 days 0 hours 3 minutes 23 seconds 427 msec
