                         Program Version 5.0.3 -  RELEASE  -
|  1> ! HF-3c
|  2> !TightSCF
|  3> %scf
|  4>  ConvForced true
|  5>  convergence tight
|  6>  MaxIter 500
|  7> end
|  8>
|  9> %tddft
| 10>  nroots 1
| 11> end
| 12>
| 13> # 	10546
| 14> * xyz 0 1
| 15> 		C   -1.194021  -0.341086  -0.022446
| 16> 		O   -1.484813  -1.295690   0.680786
| 17> 		C   -0.041376   0.538653   0.153810
| 18> 		C    1.195302   0.003921  -0.115396
| 19> 		H   -1.901688  -0.032918  -0.772707
| 20> 		H   -0.115548   1.481463   0.555933
| 21> 		H    1.476721  -0.980235  -0.493957
| 22> 		H    2.067829   0.654653   0.009917
| 23> *
| 24>
| 25>                          ****END OF INPUT****

CARTESIAN COORDINATES (ANGSTROEM)
---------------------------------
  C     -1.194021   -0.341086   -0.022446
  O     -1.484813   -1.295690    0.680786
  C     -0.041376    0.538653    0.153810
  C      1.195302    0.003921   -0.115396
  H     -1.901688   -0.032918   -0.772707
  H     -0.115548    1.481463    0.555933
  H      1.476721   -0.980235   -0.493957
  H      2.067829    0.654653    0.009917

 Total Charge           Charge          ....    0
 Multiplicity           Mult            ....    1
 Number of Electrons    NEL             ....   30
 Basis Dimension        Dim             ....   24

ORBITAL ENERGIES
----------------

  NO   OCC          E(Eh)            E(eV)
   0   2.0000     -20.371922      -554.3482
   1   2.0000     -11.297565      -307.4224
   2   2.0000     -11.192643      -304.5673
   3   2.0000     -11.185660      -304.3773
   4   2.0000      -1.398439       -38.0535
   5   2.0000      -1.076038       -29.2805
   6   2.0000      -0.891683       -24.2639
   7   2.0000      -0.773313       -21.0429
   8   2.0000      -0.700604       -19.0644
   9   2.0000      -0.623090       -16.9551
  10   2.0000      -0.609388       -16.5823
  11   2.0000      -0.551306       -15.0018
  12   2.0000      -0.501790       -13.6544
  13   2.0000      -0.416837       -11.3427
  14   2.0000      -0.392769       -10.6878
  15   0.0000       0.164726         4.4824
  16   0.0000       0.218428         5.9437
  17   0.0000       0.584661        15.9094
  18   0.0000       0.637338        17.3429
  19   0.0000       0.680721        18.5234

MULLIKEN ATOMIC CHARGES
-----------------------
   0 C :    0.160776
   1 O :   -0.336899
   2 C :   -0.185452
   3 C :   -0.214529
   4 H :    0.136994
   5 H :    0.155891
   6 H :    0.147408
   7 H :    0.135812
Sum of atomic charges:   -0.0000000

LOEWDIN ATOMIC CHARGES
----------------------
   0 C :    0.150118
   1 O :   -0.245855
   2 C :   -0.135878
   3 C :   -0.120383
   4 H :    0.070966
   5 H :    0.098145
   6 H :    0.095907
   7 H :    0.086980

  Mayer bond orders larger than 0.100000
B(  0-C ,  1-O ) :   1.9365 B(  0-C ,  2-C ) :   1.0085 B(  0-C ,  4-H ) :   0.9238
B(  2-C ,  3-C ) :   1.9718 B(  2-C ,  5-H ) :   0.9535 B(  3-C ,  6-H ) :   0.9671
B(  3-C ,  7-H ) :   0.9674

-----------------------------------------------------------------------------
         ABSORPTION SPECTRUM VIA TRANSITION ELECTRIC DIPOLE MOMENTS
-----------------------------------------------------------------------------
State   Energy    Wavelength  fosc         T2        TX        TY        TZ
        (cm-1)      (nm)                 (au**2)    (au)      (au)      (au)
-----------------------------------------------------------------------------
   1   33335.5    300.0   0.000086670   0.00086  -0.02622   0.00437  -0.01223

Dispersion correction           -0.025223531
FINAL SINGLE POINT ENERGY      -189.323091742782

DIPOLE MOMENT
-------------
                                X             Y             Z
Electronic contribution:     -2.45183      -1.46510       0.81721
Nuclear contribution   :      2.93621       2.18872      -1.34477
                        -----------------------------------------
Total Dipole Moment    :      0.48437       0.72362      -0.52756
                        -----------------------------------------
Magnitude (a.u.)       :      1.01811
Magnitude (Debye)      :      2.58784

Rotational constants in cm-1:     0.851700     0.183316     0.162481
Rotational constants in MHz : 25533.320753  5495.677636  4871.050123

                             ****ORCA TERMINATED NORMALLY****
TOTAL RUN TIME: 0 days 0 hours 0 minutes 13 seconds 340 msec
