                         Program Version 5.0.3 -  RELEASE  -
|  1> ! HF-3c
|  2> !TightSCF
|  3> %scf
|  4>  ConvForced true
|  5>  convergence tight
|  6>  MaxIter 500
|  7> end
|  8>
|  9> %tddft
| 10>  nroots 1
| 11> end
| 12>
| 13> # 	29456
| 14> * xyz 0 1
| 15> 		C   -0.573153  -0.366864  -0.070037
| 16> 		O   -0.544078  -1.603320   0.031058
| 17> 		C    0.610573   0.353679   0.054989
| 18> 		C    1.831286  -0.158227   0.013378
| 19> 		H   -1.494956   0.105909   0.003011
| 20> 		H    0.467845   1.354963  -0.084751
| 21> 		H    1.728354  -1.237825  -0.333458
| 22> 		H    2.595528   0.508674  -0.059090
| 23> *
| 24>
| 25>                          ****END OF INPUT****

CARTESIAN COORDINATES (ANGSTROEM)
---------------------------------
  C     -0.573153   -0.366864   -0.070037
  O     -0.544078   -1.603320    0.031058
  C      0.610573    0.353679    0.054989
  C      1.831286   -0.158227    0.013378
  H     -1.494956    0.105909    0.003011
  H      0.467845    1.354963   -0.084751
  H      1.728354   -1.237825   -0.333458
  H      2.595528    0.508674   -0.059090

 Total Charge           Charge          ....    0
 Multiplicity           Mult            ....    1
 Number of Electrons    NEL             ....   30
 Basis Dimension        Dim             ....   24

ORBITAL ENERGIES
----------------

  NO   OCC          E(Eh)            E(eV)
   0   2.0000     -20.351430      -553.7906
   1   2.0000     -11.288858      -307.1854
   2   2.0000     -11.196606      -304.6751
   3   2.0000     -11.189056      -304.4697
   4   2.0000      -1.386254       -37.7219
   5   2.0000      -1.103416       -30.0255
   6   2.0000      -0.923485       -25.1293
   7   2.0000      -0.759028       -20.6542
   8   2.0000      -0.728037       -19.8109
   9   2.0000      -0.617376       -16.7997
  10   2.0000      -0.603759       -16.4291
  11   2.0000      -0.551772       -15.0145
  12   2.0000      -0.518109       -14.0984
  13   2.0000      -0.427644       -11.6368
  14   2.0000      -0.387860       -10.5542
  15   0.0000       0.108582         2.9547
  16   0.0000       0.307979         8.3805
  17   0.0000       0.578263        15.7353
  18   0.0000       0.631974        17.1969
  19   0.0000       0.742677        20.2093

MULLIKEN ATOMIC CHARGES
-----------------------
   0 C :    0.128430
   1 O :   -0.342690
   2 C :   -0.189170
   3 C :   -0.219616
   4 H :    0.146149
   5 H :    0.139370
   6 H :    0.183546
   7 H :    0.153980
Sum of atomic charges:    0.0000000

LOEWDIN ATOMIC CHARGES
----------------------
   0 C :    0.126939
   1 O :   -0.260043
   2 C :   -0.138177
   3 C :   -0.115674
   4 H :    0.077105
   5 H :    0.082644
   6 H :    0.130767
   7 H :    0.096439

  Mayer bond orders larger than 0.100000
B(  0-C ,  1-O ) :   1.8623 B(  0-C ,  2-C ) :   1.0796 B(  0-C ,  4-H ) :   0.9377
B(  2-C ,  3-C ) :   1.9070 B(  2-C ,  5-H ) :   0.9593 B(  3-C ,  6-H ) :   0.9466
B(  3-C ,  7-H ) :   0.9646

-----------------------------------------------------------------------------
         ABSORPTION SPECTRUM VIA TRANSITION ELECTRIC DIPOLE MOMENTS
-----------------------------------------------------------------------------
State   Energy    Wavelength  fosc         T2        TX        TY        TZ
        (cm-1)      (nm)                 (au**2)    (au)      (au)      (au)
-----------------------------------------------------------------------------
   1   28691.6    348.5   0.000060660   0.00070  -0.01774   0.00251   0.01937

Dispersion correction           -0.027161689
FINAL SINGLE POINT ENERGY      -189.316263188206

DIPOLE MOMENT
-------------
                                X             Y             Z
Electronic contribution:     -1.66467      -1.61758       0.25401
Nuclear contribution   :      1.93824       2.47534      -0.44442
                        -----------------------------------------
Total Dipole Moment    :      0.27357       0.85776      -0.19042
                        -----------------------------------------
Magnitude (a.u.)       :      0.92024
Magnitude (Debye)      :      2.33908

Rotational constants in cm-1:     0.785280     0.225481     0.176041
Rotational constants in MHz : 23542.094900  6759.759137  5277.591021

                             ****ORCA TERMINATED NORMALLY****
TOTAL RUN TIME: 0 days 0 hours 0 minutes 12 seconds 372 msec
