                         Program Version 5.0.3 -  RELEASE  -
|  1> ! HF-3c
|  2> !TightSCF
|  3> %scf
|  4>  ConvForced true
|  5>  convergence tight
|  6>  MaxIter 500
|  7> end
|  8>
|  9> %tddft
| 10>  nroots 1
| 11> end
| 12>
| 13> # 	20448
| 14> * xyz 0 1
| 15> 		C   -0.603967  -0.434323   0.013378
| 16> 		O   -0.587925  -1.625037  -0.008109
| 17> 		C    0.657230   0.385336  -0.050277
| 18> 		C    1.839984  -0.124737   0.013356
| 19> 		H   -1.565612   0.194175   0.146404
| 20> 		H    0.530671   1.476810   0.147309
| 21> 		H    2.249179  -1.079353   0.114011
| 22> 		H    2.530209   0.568878   0.004017
| 23> *
| 24>
| 25>                          ****END OF INPUT****

CARTESIAN COORDINATES (ANGSTROEM)
---------------------------------
  C     -0.603967   -0.434323    0.013378
  O     -0.587925   -1.625037   -0.008109
  C      0.657230    0.385336   -0.050277
  C      1.839984   -0.124737    0.013356
  H     -1.565612    0.194175    0.146404
  H      0.530671    1.476810    0.147309
  H      2.249179   -1.079353    0.114011
  H      2.530209    0.568878    0.004017

 Total Charge           Charge          ....    0
 Multiplicity           Mult            ....    1
 Number of Electrons    NEL             ....   30
 Basis Dimension        Dim             ....   24

ORBITAL ENERGIES
----------------

  NO   OCC          E(Eh)            E(eV)
   0   2.0000     -20.375888      -554.4561
   1   2.0000     -11.299856      -307.4847
   2   2.0000     -11.195239      -304.6379
   3   2.0000     -11.194000      -304.6042
   4   2.0000      -1.417660       -38.5765
   5   2.0000      -1.097692       -29.8697
   6   2.0000      -0.897408       -24.4197
   7   2.0000      -0.755522       -20.5588
   8   2.0000      -0.708914       -19.2905
   9   2.0000      -0.630705       -17.1623
  10   2.0000      -0.604107       -16.4386
  11   2.0000      -0.553096       -15.0505
  12   2.0000      -0.539765       -14.6878
  13   2.0000      -0.415286       -11.3005
  14   2.0000      -0.403707       -10.9854
  15   0.0000       0.139483         3.7955
  16   0.0000       0.310495         8.4490
  17   0.0000       0.533983        14.5304
  18   0.0000       0.609801        16.5935
  19   0.0000       0.646517        17.5926

MULLIKEN ATOMIC CHARGES
-----------------------
   0 C :    0.182203
   1 O :   -0.353390
   2 C :   -0.156967
   3 C :   -0.258762
   4 H :    0.133539
   5 H :    0.145487
   6 H :    0.164401
   7 H :    0.143490
Sum of atomic charges:    0.0000000

LOEWDIN ATOMIC CHARGES
----------------------
   0 C :    0.151329
   1 O :   -0.250192
   2 C :   -0.116174
   3 C :   -0.145501
   4 H :    0.073983
   5 H :    0.095137
   6 H :    0.105763
   7 H :    0.085655

  Mayer bond orders larger than 0.100000
B(  0-C ,  1-O ) :   1.9276 B(  0-C ,  2-C ) :   0.9991 B(  0-C ,  4-H ) :   0.9165
B(  2-C ,  3-C ) :   1.9690 B(  2-C ,  5-H ) :   0.9564 B(  3-C ,  6-H ) :   0.9597
B(  3-C ,  7-H ) :   0.9635

-----------------------------------------------------------------------------
         ABSORPTION SPECTRUM VIA TRANSITION ELECTRIC DIPOLE MOMENTS
-----------------------------------------------------------------------------
State   Energy    Wavelength  fosc         T2        TX        TY        TZ
        (cm-1)      (nm)                 (au**2)    (au)      (au)      (au)
-----------------------------------------------------------------------------
   1   33528.0    298.3   0.000099226   0.00097  -0.03056  -0.00609  -0.00189

Dispersion correction           -0.025655348
FINAL SINGLE POINT ENERGY      -189.315988879989

DIPOLE MOMENT
-------------
                                X             Y             Z
Electronic contribution:     -2.14265      -1.91044      -0.27402
Nuclear contribution   :      2.35460       2.87347       0.38600
                        -----------------------------------------
Total Dipole Moment    :      0.21195       0.96302       0.11197
                        -----------------------------------------
Magnitude (a.u.)       :      0.99241
Magnitude (Debye)      :      2.52251

Rotational constants in cm-1:     0.788835     0.208210     0.165028
Rotational constants in MHz : 23648.689852  6241.988636  4947.414758

                             ****ORCA TERMINATED NORMALLY****
TOTAL RUN TIME: 0 days 0 hours 0 minutes 16 seconds 118 msec
