                         Program Version 5.0.3 -  RELEASE  -
|  1> ! B3LYP cc-pVDZ
|  2> !TightSCF
|  3> %scf
|  4>  ConvForced true
|  5>  convergence tight
|  6>  MaxIter 500
|  7> end
|  8>
|  9> %tddft
| 10>  nroots 1
| 11> end
| 12>
| 13> # 	14947
| 14> * xyz 0 1
| 15> 		C   -1.146479  -0.292857   0.023099
| 16> 		O   -1.531702  -1.207127   0.719680
| 17> 		C   -0.005950   0.482852   0.208067
| 18> 		C    1.239030   0.012631  -0.134697
| 19> 		H   -1.760560  -0.085066  -0.944593
| 20> 		H   -0.119502   1.414025   0.585142
| 21> 		H    1.364636  -0.929122  -0.462056
| 22> 		H    1.968390   0.611441   0.032048
| 23> *
| 24>
| 25>                          ****END OF INPUT****

CARTESIAN COORDINATES (ANGSTROEM)
---------------------------------
  C     -1.146479   -0.292857    0.023099
  O     -1.531702   -1.207127    0.719680
  C     -0.005950    0.482852    0.208067
  C      1.239030    0.012631   -0.134697
  H     -1.760560   -0.085066   -0.944593
  H     -0.119502    1.414025    0.585142
  H      1.364636   -0.929122   -0.462056
  H      1.968390    0.611441    0.032048

 Total Charge           Charge          ....    0
 Multiplicity           Mult            ....    1
 Number of Electrons    NEL             ....   30
 Basis Dimension        Dim             ....   76

ORBITAL ENERGIES
----------------

  NO   OCC          E(Eh)            E(eV)
   0   2.0000     -19.140192      -520.8311
   1   2.0000     -10.276243      -279.6308
   2   2.0000     -10.201305      -277.5916
   3   2.0000     -10.193343      -277.3750
   4   2.0000      -1.048187       -28.5226
   5   2.0000      -0.811361       -22.0783
   6   2.0000      -0.678454       -18.4617
   7   2.0000      -0.563139       -15.3238
   8   2.0000      -0.511825       -13.9275
   9   2.0000      -0.460322       -12.5260
  10   2.0000      -0.446407       -12.1474
  11   2.0000      -0.420453       -11.4411
  12   2.0000      -0.370028       -10.0690
  13   2.0000      -0.281897        -7.6708
  14   2.0000      -0.253426        -6.8961
  15   0.0000      -0.035217        -0.9583
  16   0.0000      -0.018920        -0.5148
  17   0.0000       0.090597         2.4653
  18   0.0000       0.100471         2.7340
  19   0.0000       0.112987         3.0745

MULLIKEN ATOMIC CHARGES
-----------------------
   0 C :    0.142963
   1 O :   -0.185372
   2 C :   -0.054352
   3 C :    0.167380
   4 H :   -0.015999
   5 H :   -0.017622
   6 H :   -0.012048
   7 H :   -0.024950
Sum of atomic charges:    0.0000000

LOEWDIN ATOMIC CHARGES
----------------------
   0 C :   -0.039020
   1 O :    0.004364
   2 C :   -0.027304
   3 C :    0.040215
   4 H :   -0.001852
   5 H :    0.020325
   6 H :    0.009664
   7 H :   -0.006392

  Mayer bond orders larger than 0.100000
B(  0-C ,  1-O ) :   2.2304 B(  0-C ,  2-C ) :   1.0280 B(  0-C ,  4-H ) :   0.9051
B(  2-C ,  3-C ) :   2.0311 B(  2-C ,  5-H ) :   0.9356 B(  3-C ,  6-H ) :   0.9513
B(  3-C ,  7-H ) :   0.9419

-----------------------------------------------------------------------------
         ABSORPTION SPECTRUM VIA TRANSITION ELECTRIC DIPOLE MOMENTS
-----------------------------------------------------------------------------
State   Energy    Wavelength  fosc         T2        TX        TY        TZ
        (cm-1)      (nm)                 (au**2)    (au)      (au)      (au)
-----------------------------------------------------------------------------
   1   33100.5    302.1   0.000357873   0.00356   0.05352  -0.02460  -0.00950

FINAL SINGLE POINT ENERGY      -191.611512737204

DIPOLE MOMENT
-------------
                                X             Y             Z
Electronic contribution:     -2.26315      -1.26272       1.12681
Nuclear contribution   :      2.81895       1.99668      -1.52815
                        -----------------------------------------
Total Dipole Moment    :      0.55579       0.73396      -0.40134
                        -----------------------------------------
Magnitude (a.u.)       :      1.00433
Magnitude (Debye)      :      2.55279

Rotational constants in cm-1:     0.948525     0.181964     0.166096
Rotational constants in MHz : 28436.063780  5455.132111  4979.438002

                             ****ORCA TERMINATED NORMALLY****
TOTAL RUN TIME: 0 days 0 hours 3 minutes 23 seconds 355 msec
