                         Program Version 5.0.3 -  RELEASE  -
|  1> ! HF-3c
|  2> !TightSCF
|  3> %scf
|  4>  ConvForced true
|  5>  convergence tight
|  6>  MaxIter 500
|  7> end
|  8>
|  9> %tddft
| 10>  nroots 1
| 11> end
| 12>
| 13> # 	11153
| 14> * xyz 0 1
| 15> 		C   -1.189405  -0.284862   0.084521
| 16> 		O   -2.122317  -0.346083   0.842345
| 17> 		C   -0.039352   0.386869   0.287092
| 18> 		C    1.160694   0.030934  -0.273812
| 19> 		H   -1.214813  -0.866977  -0.847048
| 20> 		H    0.003638   1.242657   1.052813
| 21> 		H    1.127013  -0.702411  -1.049128
| 22> 		H    2.299680   0.519213  -0.008325
| 23> *
| 24>
| 25>                          ****END OF INPUT****

CARTESIAN COORDINATES (ANGSTROEM)
---------------------------------
  C     -1.189405   -0.284862    0.084521
  O     -2.122317   -0.346083    0.842345
  C     -0.039352    0.386869    0.287092
  C      1.160694    0.030934   -0.273812
  H     -1.214813   -0.866977   -0.847048
  H      0.003638    1.242657    1.052813
  H      1.127013   -0.702411   -1.049128
  H      2.299680    0.519213   -0.008325

 Total Charge           Charge          ....    0
 Multiplicity           Mult            ....    1
 Number of Electrons    NEL             ....   30
 Basis Dimension        Dim             ....   24

ORBITAL ENERGIES
----------------

  NO   OCC          E(Eh)            E(eV)
   0   2.0000     -20.355097      -553.8904
   1   2.0000     -11.297773      -307.4280
   2   2.0000     -11.198478      -304.7261
   3   2.0000     -11.188731      -304.4609
   4   2.0000      -1.402260       -38.1574
   5   2.0000      -1.093082       -29.7443
   6   2.0000      -0.889372       -24.2011
   7   2.0000      -0.774055       -21.0631
   8   2.0000      -0.669343       -18.2137
   9   2.0000      -0.630549       -17.1581
  10   2.0000      -0.572593       -15.5810
  11   2.0000      -0.544416       -14.8143
  12   2.0000      -0.516289       -14.0489
  13   2.0000      -0.412318       -11.2197
  14   2.0000      -0.378601       -10.3023
  15   0.0000       0.118748         3.2313
  16   0.0000       0.315062         8.5733
  17   0.0000       0.460306        12.5256
  18   0.0000       0.588299        16.0084
  19   0.0000       0.673796        18.3349

MULLIKEN ATOMIC CHARGES
-----------------------
   0 C :    0.145764
   1 O :   -0.352364
   2 C :   -0.186921
   3 C :   -0.185238
   4 H :    0.129800
   5 H :    0.156595
   6 H :    0.133102
   7 H :    0.159262
Sum of atomic charges:   -0.0000000

LOEWDIN ATOMIC CHARGES
----------------------
   0 C :    0.132126
   1 O :   -0.260247
   2 C :   -0.148789
   3 C :   -0.097871
   4 H :    0.066261
   5 H :    0.106673
   6 H :    0.082172
   7 H :    0.119675

  Mayer bond orders larger than 0.100000
B(  0-C ,  1-O ) :   1.8601 B(  0-C ,  2-C ) :   1.0989 B(  0-C ,  4-H ) :   0.9194
B(  1-O ,  3-C ) :   0.1062 B(  2-C ,  3-C ) :   1.8912 B(  2-C ,  5-H ) :   0.9475
B(  3-C ,  6-H ) :   0.9663 B(  3-C ,  7-H ) :   0.9581

-----------------------------------------------------------------------------
         ABSORPTION SPECTRUM VIA TRANSITION ELECTRIC DIPOLE MOMENTS
-----------------------------------------------------------------------------
State   Energy    Wavelength  fosc         T2        TX        TY        TZ
        (cm-1)      (nm)                 (au**2)    (au)      (au)      (au)
-----------------------------------------------------------------------------
   1   32130.1    311.2   0.000008784   0.00009   0.00315  -0.00872   0.00200

Dispersion correction           -0.025777826
FINAL SINGLE POINT ENERGY      -189.298236996692

DIPOLE MOMENT
-------------
                                X             Y             Z
Electronic contribution:     -3.00109      -0.28998       1.11320
Nuclear contribution   :      4.23379       0.42721      -1.71345
                        -----------------------------------------
Total Dipole Moment    :      1.23271       0.13723      -0.60025
                        -----------------------------------------
Magnitude (a.u.)       :      1.37793
Magnitude (Debye)      :      3.50243

Rotational constants in cm-1:     1.587254     0.160039     0.148112
Rotational constants in MHz : 47584.677380  4797.861576  4440.271365

                             ****ORCA TERMINATED NORMALLY****
TOTAL RUN TIME: 0 days 0 hours 0 minutes 11 seconds 242 msec
