                         Program Version 5.0.3 -  RELEASE  -
|  1> ! HF-3c
|  2> !TightSCF
|  3> %scf
|  4>  ConvForced true
|  5>  convergence tight
|  6>  MaxIter 500
|  7> end
|  8>
|  9> %tddft
| 10>  nroots 1
| 11> end
| 12>
| 13> # 	12232
| 14> * xyz 0 1
| 15> 		C   -1.203564  -0.323877   0.023561
| 16> 		O   -1.819839  -0.990029  -0.796388
| 17> 		C   -0.020695   0.545615  -0.339849
| 18> 		C    1.204425   0.017185   0.088417
| 19> 		H   -1.560445  -0.378136   1.112804
| 20> 		H   -0.231804   1.422455  -0.718548
| 21> 		H    1.308955  -0.908260   0.636509
| 22> 		H    2.262665   0.618841   0.016556
| 23> *
| 24>
| 25>                          ****END OF INPUT****

CARTESIAN COORDINATES (ANGSTROEM)
---------------------------------
  C     -1.203564   -0.323877    0.023561
  O     -1.819839   -0.990029   -0.796388
  C     -0.020695    0.545615   -0.339849
  C      1.204425    0.017185    0.088417
  H     -1.560445   -0.378136    1.112804
  H     -0.231804    1.422455   -0.718548
  H      1.308955   -0.908260    0.636509
  H      2.262665    0.618841    0.016556

 Total Charge           Charge          ....    0
 Multiplicity           Mult            ....    1
 Number of Electrons    NEL             ....   30
 Basis Dimension        Dim             ....   24

ORBITAL ENERGIES
----------------

  NO   OCC          E(Eh)            E(eV)
   0   2.0000     -20.363167      -554.1099
   1   2.0000     -11.288481      -307.1752
   2   2.0000     -11.190797      -304.5171
   3   2.0000     -11.186066      -304.3883
   4   2.0000      -1.391321       -37.8598
   5   2.0000      -1.060004       -28.8442
   6   2.0000      -0.861795       -23.4506
   7   2.0000      -0.777937       -21.1687
   8   2.0000      -0.672533       -18.3006
   9   2.0000      -0.626376       -17.0446
  10   2.0000      -0.595903       -16.2153
  11   2.0000      -0.537204       -14.6181
  12   2.0000      -0.495024       -13.4703
  13   2.0000      -0.405116       -11.0238
  14   2.0000      -0.384054       -10.4507
  15   0.0000       0.170216         4.6318
  16   0.0000       0.211503         5.7553
  17   0.0000       0.505949        13.7676
  18   0.0000       0.573887        15.6163
  19   0.0000       0.632206        17.2032

MULLIKEN ATOMIC CHARGES
-----------------------
   0 C :    0.168960
   1 O :   -0.346333
   2 C :   -0.187384
   3 C :   -0.203487
   4 H :    0.138559
   5 H :    0.150539
   6 H :    0.136915
   7 H :    0.142231
Sum of atomic charges:   -0.0000000

LOEWDIN ATOMIC CHARGES
----------------------
   0 C :    0.150101
   1 O :   -0.254384
   2 C :   -0.134268
   3 C :   -0.117919
   4 H :    0.078878
   5 H :    0.089343
   6 H :    0.086864
   7 H :    0.101385

  Mayer bond orders larger than 0.100000
B(  0-C ,  1-O ) :   1.9464 B(  0-C ,  2-C ) :   0.9852 B(  0-C ,  4-H ) :   0.9176
B(  2-C ,  3-C ) :   1.9812 B(  2-C ,  5-H ) :   0.9604 B(  3-C ,  6-H ) :   0.9682
B(  3-C ,  7-H ) :   0.9609

-----------------------------------------------------------------------------
         ABSORPTION SPECTRUM VIA TRANSITION ELECTRIC DIPOLE MOMENTS
-----------------------------------------------------------------------------
State   Energy    Wavelength  fosc         T2        TX        TY        TZ
        (cm-1)      (nm)                 (au**2)    (au)      (au)      (au)
-----------------------------------------------------------------------------
   1   33732.8    296.4   0.000022393   0.00022   0.00221   0.01329  -0.00608

Dispersion correction           -0.024742124
FINAL SINGLE POINT ENERGY      -189.296601106709

DIPOLE MOMENT
-------------
                                X             Y             Z
Electronic contribution:     -2.76202      -1.01433      -1.19899
Nuclear contribution   :      3.49449       1.51402       1.94000
                        -----------------------------------------
Total Dipole Moment    :      0.73247       0.49969       0.74100
                        -----------------------------------------
Magnitude (a.u.)       :      1.15555
Magnitude (Debye)      :      2.93716

Rotational constants in cm-1:     0.979033     0.161674     0.155277
Rotational constants in MHz : 29350.675268  4846.850431  4655.099773

                             ****ORCA TERMINATED NORMALLY****
TOTAL RUN TIME: 0 days 0 hours 0 minutes 11 seconds 739 msec
