                         Program Version 5.0.3 -  RELEASE  -
|  1> ! B3LYP cc-pVDZ
|  2> !TightSCF
|  3> %scf
|  4>  ConvForced true
|  5>  convergence tight
|  6>  MaxIter 500
|  7> end
|  8>
|  9> %tddft
| 10>  nroots 1
| 11> end
| 12>
| 13> # 	4484
| 14> * xyz 0 1
| 15> 		C   -1.181543  -0.392785   0.003682
| 16> 		O   -1.333118  -1.526496   0.369127
| 17> 		C    0.078950   0.453129   0.136880
| 18> 		C    1.208139  -0.036860   0.007049
| 19> 		H   -2.125182   0.212195  -0.369779
| 20> 		H   -0.180362   1.478086   0.183822
| 21> 		H    1.454677  -0.954135  -0.377773
| 22> 		H    2.039847   0.713264  -0.023619
| 23> *
| 24>
| 25>                          ****END OF INPUT****

CARTESIAN COORDINATES (ANGSTROEM)
---------------------------------
  C     -1.181543   -0.392785    0.003682
  O     -1.333118   -1.526496    0.369127
  C      0.078950    0.453129    0.136880
  C      1.208139   -0.036860    0.007049
  H     -2.125182    0.212195   -0.369779
  H     -0.180362    1.478086    0.183822
  H      1.454677   -0.954135   -0.377773
  H      2.039847    0.713264   -0.023619

 Total Charge           Charge          ....    0
 Multiplicity           Mult            ....    1
 Number of Electrons    NEL             ....   30
 Basis Dimension        Dim             ....   76

ORBITAL ENERGIES
----------------

  NO   OCC          E(Eh)            E(eV)
   0   2.0000     -19.142960      -520.9064
   1   2.0000     -10.279717      -279.7253
   2   2.0000     -10.196851      -277.4704
   3   2.0000     -10.195078      -277.4222
   4   2.0000      -1.053158       -28.6579
   5   2.0000      -0.817699       -22.2507
   6   2.0000      -0.650987       -17.7142
   7   2.0000      -0.547043       -14.8858
   8   2.0000      -0.505270       -13.7491
   9   2.0000      -0.463994       -12.6259
  10   2.0000      -0.432558       -11.7705
  11   2.0000      -0.397330       -10.8119
  12   2.0000      -0.377986       -10.2855
  13   2.0000      -0.306556        -8.3418
  14   2.0000      -0.250827        -6.8254
  15   0.0000      -0.052931        -1.4403
  16   0.0000       0.046739         1.2718
  17   0.0000       0.060582         1.6485
  18   0.0000       0.097930         2.6648
  19   0.0000       0.121387         3.3031

MULLIKEN ATOMIC CHARGES
-----------------------
   0 C :    0.132092
   1 O :   -0.171882
   2 C :   -0.070977
   3 C :    0.120102
   4 H :   -0.024069
   5 H :   -0.016995
   6 H :    0.005968
   7 H :    0.025762
Sum of atomic charges:   -0.0000000

LOEWDIN ATOMIC CHARGES
----------------------
   0 C :   -0.031947
   1 O :    0.009123
   2 C :   -0.070742
   3 C :    0.008666
   4 H :   -0.009673
   5 H :    0.028410
   6 H :    0.021014
   7 H :    0.045149

  Mayer bond orders larger than 0.100000
B(  0-C ,  1-O ) :   2.2308 B(  0-C ,  2-C ) :   1.0138 B(  0-C ,  4-H ) :   0.8913
B(  2-C ,  3-C ) :   2.0180 B(  2-C ,  5-H ) :   0.9369 B(  3-C ,  6-H ) :   0.9376
B(  3-C ,  7-H ) :   0.9266

-----------------------------------------------------------------------------
         ABSORPTION SPECTRUM VIA TRANSITION ELECTRIC DIPOLE MOMENTS
-----------------------------------------------------------------------------
State   Energy    Wavelength  fosc         T2        TX        TY        TZ
        (cm-1)      (nm)                 (au**2)    (au)      (au)      (au)
-----------------------------------------------------------------------------
   1   30112.2    332.1   0.000625462   0.00684  -0.07851  -0.01044   0.02377

FINAL SINGLE POINT ENERGY      -191.641696135103

DIPOLE MOMENT
-------------
                                X             Y             Z
Electronic contribution:     -1.89922      -2.02674       0.71056
Nuclear contribution   :      2.36331       2.86128      -1.02179
                        -----------------------------------------
Total Dipole Moment    :      0.46408       0.83453      -0.31123
                        -----------------------------------------
Magnitude (a.u.)       :      1.00433
Magnitude (Debye)      :      2.55281

Rotational constants in cm-1:     0.868747     0.193685     0.161782
Rotational constants in MHz : 26044.388991  5806.541645  4850.106538

                             ****ORCA TERMINATED NORMALLY****
TOTAL RUN TIME: 0 days 0 hours 3 minutes 23 seconds 520 msec
