                         Program Version 5.0.3 -  RELEASE  -
|  1> ! HF-3c
|  2> !TightSCF
|  3> %scf
|  4>  ConvForced true
|  5>  convergence tight
|  6>  MaxIter 500
|  7> end
|  8>
|  9> %tddft
| 10>  nroots 1
| 11> end
| 12>
| 13> # 	14759
| 14> * xyz 0 1
| 15> 		C   -1.260264  -0.440325  -0.110570
| 16> 		O   -2.237401  -0.347868  -0.581010
| 17> 		C   -0.042847   0.426118  -0.393468
| 18> 		C    1.161959   0.179436   0.318312
| 19> 		H   -1.146961  -1.274856   0.718969
| 20> 		H    0.075818   1.233621  -1.133441
| 21> 		H    1.311135  -0.670725   1.220521
| 22> 		H    2.111304   0.844392   0.008385
| 23> *
| 24>
| 25>                          ****END OF INPUT****

CARTESIAN COORDINATES (ANGSTROEM)
---------------------------------
  C     -1.260264   -0.440325   -0.110570
  O     -2.237401   -0.347868   -0.581010
  C     -0.042847    0.426118   -0.393468
  C      1.161959    0.179436    0.318312
  H     -1.146961   -1.274856    0.718969
  H      0.075818    1.233621   -1.133441
  H      1.311135   -0.670725    1.220521
  H      2.111304    0.844392    0.008385

 Total Charge           Charge          ....    0
 Multiplicity           Mult            ....    1
 Number of Electrons    NEL             ....   30
 Basis Dimension        Dim             ....   24

ORBITAL ENERGIES
----------------

  NO   OCC          E(Eh)            E(eV)
   0   2.0000     -20.398983      -555.0846
   1   2.0000     -11.328735      -308.2705
   2   2.0000     -11.177035      -304.1426
   3   2.0000     -11.164415      -303.7992
   4   2.0000      -1.498469       -40.7754
   5   2.0000      -1.033933       -28.1348
   6   2.0000      -0.833182       -22.6720
   7   2.0000      -0.761752       -20.7283
   8   2.0000      -0.673774       -18.3343
   9   2.0000      -0.638882       -17.3849
  10   2.0000      -0.596723       -16.2377
  11   2.0000      -0.549943       -14.9647
  12   2.0000      -0.514788       -14.0081
  13   2.0000      -0.389188       -10.5904
  14   2.0000      -0.369652       -10.0587
  15   0.0000       0.151939         4.1345
  16   0.0000       0.325368         8.8537
  17   0.0000       0.481992        13.1157
  18   0.0000       0.504561        13.7298
  19   0.0000       0.540996        14.7213

MULLIKEN ATOMIC CHARGES
-----------------------
   0 C :    0.215498
   1 O :   -0.382041
   2 C :   -0.188232
   3 C :   -0.185748
   4 H :    0.119070
   5 H :    0.148128
   6 H :    0.139052
   7 H :    0.134273
Sum of atomic charges:   -0.0000000

LOEWDIN ATOMIC CHARGES
----------------------
   0 C :    0.150912
   1 O :   -0.237979
   2 C :   -0.158843
   3 C :   -0.106191
   4 H :    0.059358
   5 H :    0.097914
   6 H :    0.101135
   7 H :    0.093693

  Mayer bond orders larger than 0.100000
B(  0-C ,  1-O ) :   1.9281 B(  0-C ,  2-C ) :   0.9874 B(  0-C ,  4-H ) :   0.8958
B(  2-C ,  3-C ) :   1.9393 B(  2-C ,  5-H ) :   0.9579 B(  3-C ,  6-H ) :   0.9591
B(  3-C ,  7-H ) :   0.9638

-----------------------------------------------------------------------------
         ABSORPTION SPECTRUM VIA TRANSITION ELECTRIC DIPOLE MOMENTS
-----------------------------------------------------------------------------
State   Energy    Wavelength  fosc         T2        TX        TY        TZ
        (cm-1)      (nm)                 (au**2)    (au)      (au)      (au)
-----------------------------------------------------------------------------
   1   40282.7    248.2   0.000026142   0.00021   0.00919   0.00763  -0.00843

Dispersion correction           -0.024386903
FINAL SINGLE POINT ENERGY      -189.234238009643

DIPOLE MOMENT
-------------
                                X             Y             Z
Electronic contribution:     -3.38796      -0.37539      -1.00962
Nuclear contribution   :      4.53300       0.35077       1.47489
                        -----------------------------------------
Total Dipole Moment    :      1.14504      -0.02462       0.46527
                        -----------------------------------------
Magnitude (a.u.)       :      1.23620
Magnitude (Debye)      :      3.14217

Rotational constants in cm-1:     1.432662     0.153162     0.138384
Rotational constants in MHz : 42950.114260  4591.677493  4148.652990

                             ****ORCA TERMINATED NORMALLY****
TOTAL RUN TIME: 0 days 0 hours 0 minutes 10 seconds 601 msec
