                         Program Version 5.0.3 -  RELEASE  -
|  1> ! HF-3c
|  2> !TightSCF
|  3> %scf
|  4>  ConvForced true
|  5>  convergence tight
|  6>  MaxIter 500
|  7> end
|  8>
|  9> %tddft
| 10>  nroots 1
| 11> end
| 12>
| 13> # 	31343
| 14> * xyz 0 1
| 15> 		C   -0.603443  -0.461275   0.049511
| 16> 		O   -0.603718  -1.645116  -0.022560
| 17> 		C    0.608199   0.425111  -0.019144
| 18> 		C    1.879262  -0.106460   0.014384
| 19> 		H   -1.489086   0.204621   0.008930
| 20> 		H    0.564717   1.427420  -0.203139
| 21> 		H    2.231953  -1.044831  -0.060491
| 22> 		H    2.779070   0.499701   0.075036
| 23> *
| 24>
| 25>                          ****END OF INPUT****

CARTESIAN COORDINATES (ANGSTROEM)
---------------------------------
  C     -0.603443   -0.461275    0.049511
  O     -0.603718   -1.645116   -0.022560
  C      0.608199    0.425111   -0.019144
  C      1.879262   -0.106460    0.014384
  H     -1.489086    0.204621    0.008930
  H      0.564717    1.427420   -0.203139
  H      2.231953   -1.044831   -0.060491
  H      2.779070    0.499701    0.075036

 Total Charge           Charge          ....    0
 Multiplicity           Mult            ....    1
 Number of Electrons    NEL             ....   30
 Basis Dimension        Dim             ....   24

ORBITAL ENERGIES
----------------

  NO   OCC          E(Eh)            E(eV)
   0   2.0000     -20.381795      -554.6168
   1   2.0000     -11.307978      -307.7057
   2   2.0000     -11.192719      -304.5694
   3   2.0000     -11.186288      -304.3944
   4   2.0000      -1.422399       -38.7055
   5   2.0000      -1.068802       -29.0836
   6   2.0000      -0.902076       -24.5467
   7   2.0000      -0.774916       -21.0865
   8   2.0000      -0.705335       -19.1931
   9   2.0000      -0.627017       -17.0620
  10   2.0000      -0.594401       -16.1745
  11   2.0000      -0.557554       -15.1718
  12   2.0000      -0.545567       -14.8456
  13   2.0000      -0.412689       -11.2299
  14   2.0000      -0.384166       -10.4537
  15   0.0000       0.123899         3.3715
  16   0.0000       0.293318         7.9816
  17   0.0000       0.562616        15.3096
  18   0.0000       0.633998        17.2520
  19   0.0000       0.673635        18.3305

MULLIKEN ATOMIC CHARGES
-----------------------
   0 C :    0.183091
   1 O :   -0.353030
   2 C :   -0.184268
   3 C :   -0.213193
   4 H :    0.133868
   5 H :    0.144694
   6 H :    0.149559
   7 H :    0.139281
Sum of atomic charges:   -0.0000000

LOEWDIN ATOMIC CHARGES
----------------------
   0 C :    0.158030
   1 O :   -0.248740
   2 C :   -0.141031
   3 C :   -0.104312
   4 H :    0.069481
   5 H :    0.087880
   6 H :    0.089553
   7 H :    0.089139

  Mayer bond orders larger than 0.100000
B(  0-C ,  1-O ) :   1.9216 B(  0-C ,  2-C ) :   1.0127 B(  0-C ,  4-H ) :   0.9176
B(  2-C ,  3-C ) :   1.9389 B(  2-C ,  5-H ) :   0.9645 B(  3-C ,  6-H ) :   0.9683
B(  3-C ,  7-H ) :   0.9685

-----------------------------------------------------------------------------
         ABSORPTION SPECTRUM VIA TRANSITION ELECTRIC DIPOLE MOMENTS
-----------------------------------------------------------------------------
State   Energy    Wavelength  fosc         T2        TX        TY        TZ
        (cm-1)      (nm)                 (au**2)    (au)      (au)      (au)
-----------------------------------------------------------------------------
   1   33673.3    297.0   0.000007116   0.00007   0.00051  -0.00349  -0.00756

Dispersion correction           -0.025274242
FINAL SINGLE POINT ENERGY      -189.314281089475

DIPOLE MOMENT
-------------
                                X             Y             Z
Electronic contribution:     -2.31514      -1.87466       0.16365
Nuclear contribution   :      2.67667       2.80559      -0.16859
                        -----------------------------------------
Total Dipole Moment    :      0.36153       0.93093      -0.00494
                        -----------------------------------------
Magnitude (a.u.)       :      0.99868
Magnitude (Debye)      :      2.53843

Rotational constants in cm-1:     0.770622     0.200202     0.159203
Rotational constants in MHz : 23102.655608  6001.912979  4772.798700

                             ****ORCA TERMINATED NORMALLY****
TOTAL RUN TIME: 0 days 0 hours 0 minutes 9 seconds 842 msec
