                         Program Version 5.0.3 -  RELEASE  -
|  1> ! HF-3c
|  2> !TightSCF
|  3> %scf
|  4>  ConvForced true
|  5>  convergence tight
|  6>  MaxIter 500
|  7> end
|  8>
|  9> %tddft
| 10>  nroots 1
| 11> end
| 12>
| 13> # 	27495
| 14> * xyz 0 1
| 15> 		C   -0.519244  -0.450270  -0.038432
| 16> 		O   -0.625151  -1.668545   0.019384
| 17> 		C    0.595777   0.463660   0.004511
| 18> 		C    1.862241  -0.110553   0.017311
| 19> 		H   -1.492769   0.153249   0.012897
| 20> 		H    0.483031   1.466708   0.117598
| 21> 		H    2.079442  -1.232595  -0.153543
| 22> 		H    2.735803   0.508572  -0.083672
| 23> *
| 24>
| 25>                          ****END OF INPUT****

CARTESIAN COORDINATES (ANGSTROEM)
---------------------------------
  C     -0.519244   -0.450270   -0.038432
  O     -0.625151   -1.668545    0.019384
  C      0.595777    0.463660    0.004511
  C      1.862241   -0.110553    0.017311
  H     -1.492769    0.153249    0.012897
  H      0.483031    1.466708    0.117598
  H      2.079442   -1.232595   -0.153543
  H      2.735803    0.508572   -0.083672

 Total Charge           Charge          ....    0
 Multiplicity           Mult            ....    1
 Number of Electrons    NEL             ....   30
 Basis Dimension        Dim             ....   24

ORBITAL ENERGIES
----------------

  NO   OCC          E(Eh)            E(eV)
   0   2.0000     -20.350162      -553.7561
   1   2.0000     -11.286338      -307.1169
   2   2.0000     -11.202555      -304.8370
   3   2.0000     -11.191448      -304.5348
   4   2.0000      -1.381323       -37.5877
   5   2.0000      -1.078545       -29.3487
   6   2.0000      -0.893968       -24.3261
   7   2.0000      -0.748336       -20.3632
   8   2.0000      -0.702716       -19.1219
   9   2.0000      -0.607433       -16.5291
  10   2.0000      -0.576778       -15.6949
  11   2.0000      -0.545070       -14.8321
  12   2.0000      -0.533429       -14.5153
  13   2.0000      -0.399507       -10.8711
  14   2.0000      -0.382084       -10.3970
  15   0.0000       0.114272         3.1095
  16   0.0000       0.302242         8.2244
  17   0.0000       0.553927        15.0731
  18   0.0000       0.596396        16.2288
  19   0.0000       0.628489        17.1021

MULLIKEN ATOMIC CHARGES
-----------------------
   0 C :    0.168276
   1 O :   -0.362049
   2 C :   -0.203342
   3 C :   -0.175830
   4 H :    0.119215
   5 H :    0.149334
   6 H :    0.163702
   7 H :    0.140692
Sum of atomic charges:   -0.0000000

LOEWDIN ATOMIC CHARGES
----------------------
   0 C :    0.151612
   1 O :   -0.274072
   2 C :   -0.156303
   3 C :   -0.075161
   4 H :    0.060843
   5 H :    0.090919
   6 H :    0.113473
   7 H :    0.088690

  Mayer bond orders larger than 0.100000
B(  0-C ,  1-O ) :   1.8859 B(  0-C ,  2-C ) :   1.0596 B(  0-C ,  4-H ) :   0.9226
B(  2-C ,  3-C ) :   1.8977 B(  2-C ,  5-H ) :   0.9624 B(  3-C ,  6-H ) :   0.9595
B(  3-C ,  7-H ) :   0.9681

-----------------------------------------------------------------------------
         ABSORPTION SPECTRUM VIA TRANSITION ELECTRIC DIPOLE MOMENTS
-----------------------------------------------------------------------------
State   Energy    Wavelength  fosc         T2        TX        TY        TZ
        (cm-1)      (nm)                 (au**2)    (au)      (au)      (au)
-----------------------------------------------------------------------------
   1   30935.6    323.3   0.000009446   0.00010   0.00051  -0.00220  -0.00977

Dispersion correction           -0.025478634
FINAL SINGLE POINT ENERGY      -189.328554772906

DIPOLE MOMENT
-------------
                                X             Y             Z
Electronic contribution:     -1.80498      -1.70788       0.04711
Nuclear contribution   :      2.41048       2.62751      -0.10004
                        -----------------------------------------
Total Dipole Moment    :      0.60549       0.91963      -0.05293
                        -----------------------------------------
Magnitude (a.u.)       :      1.10233
Magnitude (Debye)      :      2.80191

Rotational constants in cm-1:     0.752573     0.203017     0.160106
Rotational constants in MHz : 22561.573458  6086.298117  4799.846431

                             ****ORCA TERMINATED NORMALLY****
TOTAL RUN TIME: 0 days 0 hours 0 minutes 11 seconds 678 msec
