                         Program Version 5.0.3 -  RELEASE  -
|  1> ! HF-3c
|  2> !TightSCF
|  3> %scf
|  4>  ConvForced true
|  5>  convergence tight
|  6>  MaxIter 500
|  7> end
|  8>
|  9> %tddft
| 10>  nroots 1
| 11> end
| 12>
| 13> # 	19548
| 14> * xyz 0 1
| 15> 		C   -1.195704  -0.405503  -0.043255
| 16> 		O   -1.498183  -1.408796  -0.596931
| 17> 		C    0.051913   0.477223  -0.187524
| 18> 		C    1.261840   0.041971   0.134679
| 19> 		H   -1.949114   0.077254   0.725252
| 20> 		H   -0.281279   1.479410  -0.412066
| 21> 		H    1.510264  -1.045671   0.482881
| 22> 		H    2.032984   0.810120  -0.063083
| 23> *
| 24>
| 25>                          ****END OF INPUT****

CARTESIAN COORDINATES (ANGSTROEM)
---------------------------------
  C     -1.195704   -0.405503   -0.043255
  O     -1.498183   -1.408796   -0.596931
  C      0.051913    0.477223   -0.187524
  C      1.261840    0.041971    0.134679
  H     -1.949114    0.077254    0.725252
  H     -0.281279    1.479410   -0.412066
  H      1.510264   -1.045671    0.482881
  H      2.032984    0.810120   -0.063083

 Total Charge           Charge          ....    0
 Multiplicity           Mult            ....    1
 Number of Electrons    NEL             ....   30
 Basis Dimension        Dim             ....   24

ORBITAL ENERGIES
----------------

  NO   OCC          E(Eh)            E(eV)
   0   2.0000     -20.377279      -554.4940
   1   2.0000     -11.295794      -307.3742
   2   2.0000     -11.187365      -304.4237
   3   2.0000     -11.184170      -304.3367
   4   2.0000      -1.417824       -38.5809
   5   2.0000      -1.072200       -29.1761
   6   2.0000      -0.873105       -23.7584
   7   2.0000      -0.734048       -19.9745
   8   2.0000      -0.683531       -18.5998
   9   2.0000      -0.614579       -16.7235
  10   2.0000      -0.608573       -16.5601
  11   2.0000      -0.541533       -14.7358
  12   2.0000      -0.520584       -14.1658
  13   2.0000      -0.411169       -11.1885
  14   2.0000      -0.383648       -10.4396
  15   0.0000       0.175336         4.7711
  16   0.0000       0.259187         7.0528
  17   0.0000       0.499990        13.6054
  18   0.0000       0.571175        15.5425
  19   0.0000       0.625641        17.0246

MULLIKEN ATOMIC CHARGES
-----------------------
   0 C :    0.190944
   1 O :   -0.358832
   2 C :   -0.170417
   3 C :   -0.231923
   4 H :    0.120802
   5 H :    0.146396
   6 H :    0.158750
   7 H :    0.144281
Sum of atomic charges:    0.0000000

LOEWDIN ATOMIC CHARGES
----------------------
   0 C :    0.156159
   1 O :   -0.252166
   2 C :   -0.126960
   3 C :   -0.144454
   4 H :    0.064415
   5 H :    0.094465
   6 H :    0.112599
   7 H :    0.095942

  Mayer bond orders larger than 0.100000
B(  0-C ,  1-O ) :   1.9519 B(  0-C ,  2-C ) :   0.9735 B(  0-C ,  4-H ) :   0.9075
B(  2-C ,  3-C ) :   1.9910 B(  2-C ,  5-H ) :   0.9538 B(  3-C ,  6-H ) :   0.9573
B(  3-C ,  7-H ) :   0.9602

-----------------------------------------------------------------------------
         ABSORPTION SPECTRUM VIA TRANSITION ELECTRIC DIPOLE MOMENTS
-----------------------------------------------------------------------------
State   Energy    Wavelength  fosc         T2        TX        TY        TZ
        (cm-1)      (nm)                 (au**2)    (au)      (au)      (au)
-----------------------------------------------------------------------------
   1   35890.7    278.6   0.000522478   0.00479   0.06895   0.00323   0.00531

Dispersion correction           -0.024749472
FINAL SINGLE POINT ENERGY      -189.310428808363

DIPOLE MOMENT
-------------
                                X             Y             Z
Electronic contribution:     -2.18806      -1.73329      -0.86973
Nuclear contribution   :      2.63606       2.55199       1.34853
                        -----------------------------------------
Total Dipole Moment    :      0.44801       0.81870       0.47881
                        -----------------------------------------
Magnitude (a.u.)       :      1.04892
Magnitude (Debye)      :      2.66614

Rotational constants in cm-1:     0.903952     0.172149     0.152530
Rotational constants in MHz : 27099.813590  5160.908347  4572.721479

                             ****ORCA TERMINATED NORMALLY****
TOTAL RUN TIME: 0 days 0 hours 0 minutes 11 seconds 191 msec
