                         Program Version 5.0.3 -  RELEASE  -
|  1> ! B3LYP cc-pVDZ
|  2> !TightSCF
|  3> %scf
|  4>  ConvForced true
|  5>  convergence tight
|  6>  MaxIter 500
|  7> end
|  8>
|  9> %tddft
| 10>  nroots 1
| 11> end
| 12>
| 13> # 	1315
| 14> * xyz 0 1
| 15> 		C   -1.217426  -0.398418   0.016478
| 16> 		O   -1.953117  -0.679883   0.934872
| 17> 		C    0.034001   0.457655   0.212350
| 18> 		C    1.214570   0.129023  -0.267554
| 19> 		H   -1.150554  -0.590442  -0.940898
| 20> 		H   -0.141068   1.294862   0.961539
| 21> 		H    1.138473  -0.730619  -0.860055
| 22> 		H    2.100858   0.484018  -0.048588
| 23> *
| 24>
| 25>                          ****END OF INPUT****

CARTESIAN COORDINATES (ANGSTROEM)
---------------------------------
  C     -1.217426   -0.398418    0.016478
  O     -1.953117   -0.679883    0.934872
  C      0.034001    0.457655    0.212350
  C      1.214570    0.129023   -0.267554
  H     -1.150554   -0.590442   -0.940898
  H     -0.141068    1.294862    0.961539
  H      1.138473   -0.730619   -0.860055
  H      2.100858    0.484018   -0.048588

 Total Charge           Charge          ....    0
 Multiplicity           Mult            ....    1
 Number of Electrons    NEL             ....   30
 Basis Dimension        Dim             ....   76

ORBITAL ENERGIES
----------------

  NO   OCC          E(Eh)            E(eV)
   0   2.0000     -19.151554      -521.1403
   1   2.0000     -10.276149      -279.6282
   2   2.0000     -10.201420      -277.5947
   3   2.0000     -10.194139      -277.3966
   4   2.0000      -1.053848       -28.6767
   5   2.0000      -0.805746       -21.9255
   6   2.0000      -0.671898       -18.2833
   7   2.0000      -0.577949       -15.7268
   8   2.0000      -0.493069       -13.4171
   9   2.0000      -0.472091       -12.8463
  10   2.0000      -0.444231       -12.0881
  11   2.0000      -0.401303       -10.9200
  12   2.0000      -0.370539       -10.0829
  13   2.0000      -0.291674        -7.9368
  14   2.0000      -0.258167        -7.0251
  15   0.0000      -0.056447        -1.5360
  16   0.0000       0.024911         0.6779
  17   0.0000       0.087039         2.3685
  18   0.0000       0.095676         2.6035
  19   0.0000       0.132745         3.6122

MULLIKEN ATOMIC CHARGES
-----------------------
   0 C :    0.254607
   1 O :   -0.186517
   2 C :   -0.181925
   3 C :    0.162395
   4 H :   -0.036885
   5 H :    0.009169
   6 H :   -0.009367
   7 H :   -0.011477
Sum of atomic charges:    0.0000000

LOEWDIN ATOMIC CHARGES
----------------------
   0 C :    0.000002
   1 O :    0.018208
   2 C :   -0.047023
   3 C :    0.004218
   4 H :   -0.029315
   5 H :    0.031761
   6 H :    0.021519
   7 H :    0.000630

  Mayer bond orders larger than 0.100000
B(  0-C ,  1-O ) :   2.2090 B(  0-C ,  2-C ) :   1.0157 B(  0-C ,  4-H ) :   0.9283
B(  2-C ,  3-C ) :   1.9827 B(  2-C ,  5-H ) :   0.9461 B(  3-C ,  6-H ) :   0.9264
B(  3-C ,  7-H ) :   0.9491

-----------------------------------------------------------------------------
         ABSORPTION SPECTRUM VIA TRANSITION ELECTRIC DIPOLE MOMENTS
-----------------------------------------------------------------------------
State   Energy    Wavelength  fosc         T2        TX        TY        TZ
        (cm-1)      (nm)                 (au**2)    (au)      (au)      (au)
-----------------------------------------------------------------------------
   1   30532.7    327.5   0.000481056   0.00519  -0.06007  -0.03970  -0.00159

FINAL SINGLE POINT ENERGY      -191.622930332680

DIPOLE MOMENT
-------------
                                X             Y             Z
Electronic contribution:     -3.02076      -0.74239       1.11710
Nuclear contribution   :      3.74120       0.96746      -1.73298
                        -----------------------------------------
Total Dipole Moment    :      0.72043       0.22507      -0.61588
                        -----------------------------------------
Magnitude (a.u.)       :      0.97416
Magnitude (Debye)      :      2.47611

Rotational constants in cm-1:     1.353269     0.156078     0.148281
Rotational constants in MHz : 40569.990377  4679.086123  4445.364883

                             ****ORCA TERMINATED NORMALLY****
TOTAL RUN TIME: 0 days 0 hours 3 minutes 15 seconds 614 msec
