                         Program Version 5.0.3 -  RELEASE  -
|  1> ! HF-3c
|  2> !TightSCF
|  3> %scf
|  4>  ConvForced true
|  5>  convergence tight
|  6>  MaxIter 500
|  7> end
|  8>
|  9> %tddft
| 10>  nroots 1
| 11> end
| 12>
| 13> # 	20705
| 14> * xyz 0 1
| 15> 		C   -0.570913  -0.464221  -0.106575
| 16> 		O   -0.628918  -1.671522   0.057712
| 17> 		C    0.666514   0.440168   0.089072
| 18> 		C    1.862688  -0.074496  -0.023592
| 19> 		H   -1.560269  -0.004558  -0.204480
| 20> 		H    0.570379   1.580563   0.128465
| 21> 		H    1.957149  -1.188452  -0.298989
| 22> 		H    2.690504   0.540025  -0.039226
| 23> *
| 24>
| 25>                          ****END OF INPUT****

CARTESIAN COORDINATES (ANGSTROEM)
---------------------------------
  C     -0.570913   -0.464221   -0.106575
  O     -0.628918   -1.671522    0.057712
  C      0.666514    0.440168    0.089072
  C      1.862688   -0.074496   -0.023592
  H     -1.560269   -0.004558   -0.204480
  H      0.570379    1.580563    0.128465
  H      1.957149   -1.188452   -0.298989
  H      2.690504    0.540025   -0.039226

 Total Charge           Charge          ....    0
 Multiplicity           Mult            ....    1
 Number of Electrons    NEL             ....   30
 Basis Dimension        Dim             ....   24

ORBITAL ENERGIES
----------------

  NO   OCC          E(Eh)            E(eV)
   0   2.0000     -20.363656      -554.1233
   1   2.0000     -11.292248      -307.2777
   2   2.0000     -11.190642      -304.5128
   3   2.0000     -11.187293      -304.4217
   4   2.0000      -1.395458       -37.9723
   5   2.0000      -1.080279       -29.3959
   6   2.0000      -0.874787       -23.8042
   7   2.0000      -0.745884       -20.2965
   8   2.0000      -0.698027       -18.9943
   9   2.0000      -0.607803       -16.5392
  10   2.0000      -0.597163       -16.2496
  11   2.0000      -0.531935       -14.4747
  12   2.0000      -0.521562       -14.1924
  13   2.0000      -0.410471       -11.1695
  14   2.0000      -0.402851       -10.9621
  15   0.0000       0.141123         3.8401
  16   0.0000       0.296183         8.0596
  17   0.0000       0.511649        13.9227
  18   0.0000       0.550309        14.9747
  19   0.0000       0.629846        17.1390

MULLIKEN ATOMIC CHARGES
-----------------------
   0 C :    0.160762
   1 O :   -0.351703
   2 C :   -0.165211
   3 C :   -0.234097
   4 H :    0.137188
   5 H :    0.148525
   6 H :    0.161723
   7 H :    0.142815
Sum of atomic charges:    0.0000000

LOEWDIN ATOMIC CHARGES
----------------------
   0 C :    0.144981
   1 O :   -0.259086
   2 C :   -0.124930
   3 C :   -0.135810
   4 H :    0.073125
   5 H :    0.100563
   6 H :    0.112676
   7 H :    0.088480

  Mayer bond orders larger than 0.100000
B(  0-C ,  1-O ) :   1.9219 B(  0-C ,  2-C ) :   0.9947 B(  0-C ,  4-H ) :   0.9315
B(  2-C ,  3-C ) :   1.9694 B(  2-C ,  5-H ) :   0.9542 B(  3-C ,  6-H ) :   0.9543
B(  3-C ,  7-H ) :   0.9650

-----------------------------------------------------------------------------
         ABSORPTION SPECTRUM VIA TRANSITION ELECTRIC DIPOLE MOMENTS
-----------------------------------------------------------------------------
State   Energy    Wavelength  fosc         T2        TX        TY        TZ
        (cm-1)      (nm)                 (au**2)    (au)      (au)      (au)
-----------------------------------------------------------------------------
   1   32291.9    309.7   0.000384881   0.00392  -0.06091  -0.01350   0.00559

Dispersion correction           -0.025251503
FINAL SINGLE POINT ENERGY      -189.332383999411

DIPOLE MOMENT
-------------
                                X             Y             Z
Electronic contribution:     -1.96849      -1.72148       0.20539
Nuclear contribution   :      2.27012       2.65933      -0.38859
                        -----------------------------------------
Total Dipole Moment    :      0.30162       0.93785      -0.18319
                        -----------------------------------------
Magnitude (a.u.)       :      1.00204
Magnitude (Debye)      :      2.54700

Rotational constants in cm-1:     0.793849     0.194838     0.157736
Rotational constants in MHz : 23799.004185  5841.102067  4728.794607

                             ****ORCA TERMINATED NORMALLY****
TOTAL RUN TIME: 0 days 0 hours 0 minutes 13 seconds 660 msec
