                         Program Version 5.0.3 -  RELEASE  -
|  1> ! B3LYP cc-pVDZ
|  2> !TightSCF
|  3> %scf
|  4>  ConvForced true
|  5>  convergence tight
|  6>  MaxIter 500
|  7> end
|  8>
|  9> %tddft
| 10>  nroots 1
| 11> end
| 12>
| 13> # 	15344
| 14> * xyz 0 1
| 15> 		C   -1.238970  -0.265268   0.001351
| 16> 		O   -1.151933  -1.392123  -0.383764
| 17> 		C    0.057996   0.514340  -0.124423
| 18> 		C    1.192868  -0.037793   0.093701
| 19> 		H   -2.071343   0.214438   0.516235
| 20> 		H   -0.106587   1.644081  -0.209033
| 21> 		H    1.242278  -1.144681   0.165528
| 22> 		H    2.080747   0.516494  -0.086117
| 23> *
| 24>
| 25>                          ****END OF INPUT****

CARTESIAN COORDINATES (ANGSTROEM)
---------------------------------
  C     -1.238970   -0.265268    0.001351
  O     -1.151933   -1.392123   -0.383764
  C      0.057996    0.514340   -0.124423
  C      1.192868   -0.037793    0.093701
  H     -2.071343    0.214438    0.516235
  H     -0.106587    1.644081   -0.209033
  H      1.242278   -1.144681    0.165528
  H      2.080747    0.516494   -0.086117

 Total Charge           Charge          ....    0
 Multiplicity           Mult            ....    1
 Number of Electrons    NEL             ....   30
 Basis Dimension        Dim             ....   76

ORBITAL ENERGIES
----------------

  NO   OCC          E(Eh)            E(eV)
   0   2.0000     -19.140935      -520.8513
   1   2.0000     -10.276233      -279.6305
   2   2.0000     -10.196217      -277.4532
   3   2.0000     -10.193078      -277.3677
   4   2.0000      -1.060752       -28.8645
   5   2.0000      -0.794254       -21.6128
   6   2.0000      -0.649869       -17.6838
   7   2.0000      -0.543759       -14.7964
   8   2.0000      -0.502905       -13.6848
   9   2.0000      -0.447160       -12.1678
  10   2.0000      -0.443647       -12.0722
  11   2.0000      -0.393496       -10.7076
  12   2.0000      -0.370251       -10.0750
  13   2.0000      -0.292446        -7.9579
  14   2.0000      -0.252484        -6.8704
  15   0.0000      -0.050861        -1.3840
  16   0.0000       0.042110         1.1459
  17   0.0000       0.071873         1.9558
  18   0.0000       0.096460         2.6248
  19   0.0000       0.114727         3.1219

MULLIKEN ATOMIC CHARGES
-----------------------
   0 C :    0.181110
   1 O :   -0.176749
   2 C :   -0.130941
   3 C :    0.087085
   4 H :   -0.007388
   5 H :   -0.005919
   6 H :    0.033741
   7 H :    0.019060
Sum of atomic charges:    0.0000000

LOEWDIN ATOMIC CHARGES
----------------------
   0 C :   -0.024120
   1 O :    0.020180
   2 C :   -0.077481
   3 C :   -0.009082
   4 H :   -0.003907
   5 H :    0.028943
   6 H :    0.038216
   7 H :    0.027249

  Mayer bond orders larger than 0.100000
B(  0-C ,  1-O ) :   2.2005 B(  0-C ,  2-C ) :   1.0133 B(  0-C ,  4-H ) :   0.9170
B(  2-C ,  3-C ) :   2.0381 B(  2-C ,  5-H ) :   0.9271 B(  3-C ,  6-H ) :   0.9225
B(  3-C ,  7-H ) :   0.9348

-----------------------------------------------------------------------------
         ABSORPTION SPECTRUM VIA TRANSITION ELECTRIC DIPOLE MOMENTS
-----------------------------------------------------------------------------
State   Energy    Wavelength  fosc         T2        TX        TY        TZ
        (cm-1)      (nm)                 (au**2)    (au)      (au)      (au)
-----------------------------------------------------------------------------
   1   30511.9    327.7   0.000671871   0.00725  -0.08075   0.02088   0.01712

FINAL SINGLE POINT ENERGY      -191.650679126337

DIPOLE MOMENT
-------------
                                X             Y             Z
Electronic contribution:     -2.06480      -1.61247      -0.50818
Nuclear contribution   :      2.20858       2.37652       0.76715
                        -----------------------------------------
Total Dipole Moment    :      0.14378       0.76405       0.25897
                        -----------------------------------------
Magnitude (a.u.)       :      0.81946
Magnitude (Debye)      :      2.08290

Rotational constants in cm-1:     0.756650     0.220128     0.175508
Rotational constants in MHz : 22683.797223  6599.267216  5261.597095

                             ****ORCA TERMINATED NORMALLY****
TOTAL RUN TIME: 0 days 0 hours 3 minutes 0 seconds 632 msec
