                         Program Version 5.0.3 -  RELEASE  -
|  1> ! B3LYP cc-pVDZ
|  2> !TightSCF
|  3> %scf
|  4>  ConvForced true
|  5>  convergence tight
|  6>  MaxIter 500
|  7> end
|  8>
|  9> %tddft
| 10>  nroots 1
| 11> end
| 12>
| 13> # 	12501
| 14> * xyz 0 1
| 15> 		C   -1.172415  -0.338319   0.047847
| 16> 		O   -1.236300  -1.524825  -0.213016
| 17> 		C   -0.016287   0.556053  -0.111438
| 18> 		C    1.301419  -0.054529   0.005074
| 19> 		H   -2.165815   0.270789   0.302591
| 20> 		H   -0.095946   1.604008  -0.394105
| 21> 		H    1.319448  -1.134326   0.199857
| 22> 		H    2.067328   0.604180   0.193075
| 23> *
| 24>
| 25>                          ****END OF INPUT****

CARTESIAN COORDINATES (ANGSTROEM)
---------------------------------
  C     -1.172415   -0.338319    0.047847
  O     -1.236300   -1.524825   -0.213016
  C     -0.016287    0.556053   -0.111438
  C      1.301419   -0.054529    0.005074
  H     -2.165815    0.270789    0.302591
  H     -0.095946    1.604008   -0.394105
  H      1.319448   -1.134326    0.199857
  H      2.067328    0.604180    0.193075

 Total Charge           Charge          ....    0
 Multiplicity           Mult            ....    1
 Number of Electrons    NEL             ....   30
 Basis Dimension        Dim             ....   76

ORBITAL ENERGIES
----------------

  NO   OCC          E(Eh)            E(eV)
   0   2.0000     -19.140665      -520.8440
   1   2.0000     -10.282172      -279.7921
   2   2.0000     -10.224206      -278.2148
   3   2.0000     -10.220611      -278.1170
   4   2.0000      -1.043365       -28.3914
   5   2.0000      -0.781403       -21.2631
   6   2.0000      -0.658856       -17.9284
   7   2.0000      -0.539555       -14.6820
   8   2.0000      -0.505244       -13.7484
   9   2.0000      -0.442098       -12.0301
  10   2.0000      -0.417004       -11.3472
  11   2.0000      -0.406650       -11.0655
  12   2.0000      -0.385222       -10.4824
  13   2.0000      -0.275133        -7.4867
  14   2.0000      -0.253483        -6.8976
  15   0.0000      -0.080600        -2.1932
  16   0.0000       0.027886         0.7588
  17   0.0000       0.073698         2.0054
  18   0.0000       0.089755         2.4424
  19   0.0000       0.113884         3.0989

MULLIKEN ATOMIC CHARGES
-----------------------
   0 C :    0.167025
   1 O :   -0.193888
   2 C :   -0.118615
   3 C :    0.068828
   4 H :   -0.016425
   5 H :    0.015570
   6 H :    0.052748
   7 H :    0.024757
Sum of atomic charges:    0.0000000

LOEWDIN ATOMIC CHARGES
----------------------
   0 C :   -0.048173
   1 O :   -0.011774
   2 C :   -0.060089
   3 C :    0.046387
   4 H :   -0.004334
   5 H :    0.029929
   6 H :    0.035865
   7 H :    0.012189

  Mayer bond orders larger than 0.100000
B(  0-C ,  1-O ) :   2.1703 B(  0-C ,  2-C ) :   1.0560 B(  0-C ,  4-H ) :   0.8985
B(  2-C ,  3-C ) :   1.9053 B(  2-C ,  5-H ) :   0.9522 B(  3-C ,  6-H ) :   0.9489
B(  3-C ,  7-H ) :   0.9517

-----------------------------------------------------------------------------
         ABSORPTION SPECTRUM VIA TRANSITION ELECTRIC DIPOLE MOMENTS
-----------------------------------------------------------------------------
State   Energy    Wavelength  fosc         T2        TX        TY        TZ
        (cm-1)      (nm)                 (au**2)    (au)      (au)      (au)
-----------------------------------------------------------------------------
   1   26408.2    378.7   0.000053033   0.00066   0.02262  -0.00990   0.00716

FINAL SINGLE POINT ENERGY      -191.662780527200

DIPOLE MOMENT
-------------
                                X             Y             Z
Electronic contribution:     -1.68063      -1.75531      -0.36194
Nuclear contribution   :      2.19918       2.65554       0.53547
                        -----------------------------------------
Total Dipole Moment    :      0.51855       0.90024       0.17352
                        -----------------------------------------
Magnitude (a.u.)       :      1.05329
Magnitude (Debye)      :      2.67726

Rotational constants in cm-1:     0.713027     0.201497     0.159561
Rotational constants in MHz : 21376.000555  6040.736571  4783.510988

                             ****ORCA TERMINATED NORMALLY****
TOTAL RUN TIME: 0 days 0 hours 3 minutes 27 seconds 951 msec
