                         Program Version 5.0.3 -  RELEASE  -
|  1> ! HF-3c
|  2> !TightSCF
|  3> %scf
|  4>  ConvForced true
|  5>  convergence tight
|  6>  MaxIter 500
|  7> end
|  8>
|  9> %tddft
| 10>  nroots 1
| 11> end
| 12>
| 13> # 	13494
| 14> * xyz 0 1
| 15> 		C   -1.185596  -0.331237  -0.020361
| 16> 		O   -1.869583  -0.757276  -1.017442
| 17> 		C    0.061107   0.429836  -0.286062
| 18> 		C    1.165531   0.003708   0.206256
| 19> 		H   -1.464930  -0.577224   1.055864
| 20> 		H    0.016317   1.415448  -0.953716
| 21> 		H    1.239513  -0.896395   0.830921
| 22> 		H    2.093571   0.629235   0.193874
| 23> *
| 24>
| 25>                          ****END OF INPUT****

CARTESIAN COORDINATES (ANGSTROEM)
---------------------------------
  C     -1.185596   -0.331237   -0.020361
  O     -1.869583   -0.757276   -1.017442
  C      0.061107    0.429836   -0.286062
  C      1.165531    0.003708    0.206256
  H     -1.464930   -0.577224    1.055864
  H      0.016317    1.415448   -0.953716
  H      1.239513   -0.896395    0.830921
  H      2.093571    0.629235    0.193874

 Total Charge           Charge          ....    0
 Multiplicity           Mult            ....    1
 Number of Electrons    NEL             ....   30
 Basis Dimension        Dim             ....   24

ORBITAL ENERGIES
----------------

  NO   OCC          E(Eh)            E(eV)
   0   2.0000     -20.351237      -553.7853
   1   2.0000     -11.281237      -306.9781
   2   2.0000     -11.194515      -304.6182
   3   2.0000     -11.180430      -304.2350
   4   2.0000      -1.352893       -36.8141
   5   2.0000      -1.091506       -29.7014
   6   2.0000      -0.870708       -23.6932
   7   2.0000      -0.754858       -20.5407
   8   2.0000      -0.660295       -17.9675
   9   2.0000      -0.634340       -17.2613
  10   2.0000      -0.578882       -15.7522
  11   2.0000      -0.523354       -14.2412
  12   2.0000      -0.480843       -13.0844
  13   2.0000      -0.417251       -11.3540
  14   2.0000      -0.401515       -10.9258
  15   0.0000       0.149120         4.0578
  16   0.0000       0.262872         7.1531
  17   0.0000       0.525432        14.2977
  18   0.0000       0.540914        14.7190
  19   0.0000       0.653470        17.7818

MULLIKEN ATOMIC CHARGES
-----------------------
   0 C :    0.148269
   1 O :   -0.333035
   2 C :   -0.160266
   3 C :   -0.246465
   4 H :    0.148189
   5 H :    0.163216
   6 H :    0.137269
   7 H :    0.142823
Sum of atomic charges:    0.0000000

LOEWDIN ATOMIC CHARGES
----------------------
   0 C :    0.143656
   1 O :   -0.258377
   2 C :   -0.116458
   3 C :   -0.158058
   4 H :    0.088803
   5 H :    0.116415
   6 H :    0.088929
   7 H :    0.095091

  Mayer bond orders larger than 0.100000
B(  0-C ,  1-O ) :   1.9265 B(  0-C ,  2-C ) :   1.0092 B(  0-C ,  4-H ) :   0.9250
B(  2-C ,  3-C ) :   1.9924 B(  2-C ,  5-H ) :   0.9396 B(  3-C ,  6-H ) :   0.9621
B(  3-C ,  7-H ) :   0.9596

-----------------------------------------------------------------------------
         ABSORPTION SPECTRUM VIA TRANSITION ELECTRIC DIPOLE MOMENTS
-----------------------------------------------------------------------------
State   Energy    Wavelength  fosc         T2        TX        TY        TZ
        (cm-1)      (nm)                 (au**2)    (au)      (au)      (au)
-----------------------------------------------------------------------------
   1   29678.5    336.9   0.000093450   0.00104  -0.02893  -0.00145  -0.01405

Dispersion correction           -0.025138096
FINAL SINGLE POINT ENERGY      -189.333198645470

DIPOLE MOMENT
-------------
                                X             Y             Z
Electronic contribution:     -2.92467      -0.80719      -1.35523
Nuclear contribution   :      3.58959       1.21747       2.14062
                        -----------------------------------------
Total Dipole Moment    :      0.66492       0.41028       0.78539
                        -----------------------------------------
Magnitude (a.u.)       :      1.10783
Magnitude (Debye)      :      2.81588

Rotational constants in cm-1:     1.113604     0.161567     0.154655
Rotational constants in MHz : 33385.016833  4843.659735  4636.441395

                             ****ORCA TERMINATED NORMALLY****
TOTAL RUN TIME: 0 days 0 hours 0 minutes 13 seconds 345 msec
