                         Program Version 5.0.3 -  RELEASE  -
|  1> ! B3LYP cc-pVDZ
|  2> !TightSCF
|  3> %scf
|  4>  ConvForced true
|  5>  convergence tight
|  6>  MaxIter 500
|  7> end
|  8>
|  9> %tddft
| 10>  nroots 1
| 11> end
| 12>
| 13> # 	7468
| 14> * xyz 0 1
| 15> 		C   -1.240417  -0.317411  -0.043092
| 16> 		O   -1.703130  -0.974086  -0.862444
| 17> 		C    0.017576   0.518616  -0.187668
| 18> 		C    1.216943   0.031869   0.149357
| 19> 		H   -1.769161  -0.483017   0.921237
| 20> 		H   -0.031713   1.565635  -0.776669
| 21> 		H    1.374688  -0.962979   0.739458
| 22> 		H    2.153182   0.613232   0.064813
| 23> *
| 24>
| 25>                          ****END OF INPUT****

CARTESIAN COORDINATES (ANGSTROEM)
---------------------------------
  C     -1.240417   -0.317411   -0.043092
  O     -1.703130   -0.974086   -0.862444
  C      0.017576    0.518616   -0.187668
  C      1.216943    0.031869    0.149357
  H     -1.769161   -0.483017    0.921237
  H     -0.031713    1.565635   -0.776669
  H      1.374688   -0.962979    0.739458
  H      2.153182    0.613232    0.064813

 Total Charge           Charge          ....    0
 Multiplicity           Mult            ....    1
 Number of Electrons    NEL             ....   30
 Basis Dimension        Dim             ....   76

ORBITAL ENERGIES
----------------

  NO   OCC          E(Eh)            E(eV)
   0   2.0000     -19.140991      -520.8528
   1   2.0000     -10.277020      -279.6519
   2   2.0000     -10.218051      -278.0473
   3   2.0000     -10.213849      -277.9330
   4   2.0000      -1.088761       -29.6267
   5   2.0000      -0.785792       -21.3825
   6   2.0000      -0.633523       -17.2390
   7   2.0000      -0.553155       -15.0521
   8   2.0000      -0.488615       -13.2959
   9   2.0000      -0.465043       -12.6545
  10   2.0000      -0.444969       -12.1082
  11   2.0000      -0.399310       -10.8658
  12   2.0000      -0.371172       -10.1001
  13   2.0000      -0.287420        -7.8211
  14   2.0000      -0.249799        -6.7974
  15   0.0000      -0.028144        -0.7658
  16   0.0000      -0.002758        -0.0750
  17   0.0000       0.069710         1.8969
  18   0.0000       0.083347         2.2680
  19   0.0000       0.100423         2.7326

MULLIKEN ATOMIC CHARGES
-----------------------
   0 C :    0.159188
   1 O :   -0.123801
   2 C :   -0.124588
   3 C :   -0.010723
   4 H :   -0.029548
   5 H :    0.050613
   6 H :    0.040724
   7 H :    0.038133
Sum of atomic charges:    0.0000000

LOEWDIN ATOMIC CHARGES
----------------------
   0 C :   -0.064260
   1 O :    0.068806
   2 C :   -0.077829
   3 C :   -0.042528
   4 H :   -0.012651
   5 H :    0.056692
   6 H :    0.039440
   7 H :    0.032330

  Mayer bond orders larger than 0.100000
B(  0-C ,  1-O ) :   2.2922 B(  0-C ,  2-C ) :   0.9295 B(  0-C ,  4-H ) :   0.9236
B(  2-C ,  3-C ) :   2.0348 B(  2-C ,  5-H ) :   0.9230 B(  3-C ,  6-H ) :   0.9475
B(  3-C ,  7-H ) :   0.9447

-----------------------------------------------------------------------------
         ABSORPTION SPECTRUM VIA TRANSITION ELECTRIC DIPOLE MOMENTS
-----------------------------------------------------------------------------
State   Energy    Wavelength  fosc         T2        TX        TY        TZ
        (cm-1)      (nm)                 (au**2)    (au)      (au)      (au)
-----------------------------------------------------------------------------
   1   34682.5    288.3   0.000285437   0.00271  -0.03958  -0.01103  -0.03195

FINAL SINGLE POINT ENERGY      -191.616845224288

DIPOLE MOMENT
-------------
                                X             Y             Z
Electronic contribution:     -2.81646      -1.00252      -1.33215
Nuclear contribution   :      3.31391       1.48266       1.80610
                        -----------------------------------------
Total Dipole Moment    :      0.49745       0.48014       0.47394
                        -----------------------------------------
Magnitude (a.u.)       :      0.83822
Magnitude (Debye)      :      2.13058

Rotational constants in cm-1:     1.009530     0.164543     0.157667
Rotational constants in MHz : 30264.961109  4932.875194  4726.732683

                             ****ORCA TERMINATED NORMALLY****
TOTAL RUN TIME: 0 days 0 hours 3 minutes 14 seconds 538 msec
