                         Program Version 5.0.3 -  RELEASE  -
|  1> ! B3LYP cc-pVDZ
|  2> !TightSCF
|  3> %scf
|  4>  ConvForced true
|  5>  convergence tight
|  6>  MaxIter 500
|  7> end
|  8>
|  9> %tddft
| 10>  nroots 1
| 11> end
| 12>
| 13> # 	32447
| 14> * xyz 0 1
| 15> 		C   -0.560765  -0.431535   0.044999
| 16> 		O   -0.622521  -1.664210  -0.045493
| 17> 		C    0.641669   0.394021   0.027249
| 18> 		C    1.869210  -0.101618   0.040583
| 19> 		H   -1.570294   0.266270   0.055087
| 20> 		H    0.341228   1.461957  -0.420146
| 21> 		H    2.099227  -1.056748   0.155639
| 22> 		H    2.732575   0.685411  -0.459545
| 23> *
| 24>
| 25>                          ****END OF INPUT****

CARTESIAN COORDINATES (ANGSTROEM)
---------------------------------
  C     -0.560765   -0.431535    0.044999
  O     -0.622521   -1.664210   -0.045493
  C      0.641669    0.394021    0.027249
  C      1.869210   -0.101618    0.040583
  H     -1.570294    0.266270    0.055087
  H      0.341228    1.461957   -0.420146
  H      2.099227   -1.056748    0.155639
  H      2.732575    0.685411   -0.459545

 Total Charge           Charge          ....    0
 Multiplicity           Mult            ....    1
 Number of Electrons    NEL             ....   30
 Basis Dimension        Dim             ....   76

ORBITAL ENERGIES
----------------

  NO   OCC          E(Eh)            E(eV)
   0   2.0000     -19.145172      -520.9666
   1   2.0000     -10.286348      -279.9058
   2   2.0000     -10.225620      -278.2533
   3   2.0000     -10.218110      -278.0489
   4   2.0000      -1.034817       -28.1588
   5   2.0000      -0.803874       -21.8745
   6   2.0000      -0.662668       -18.0321
   7   2.0000      -0.538897       -14.6641
   8   2.0000      -0.488433       -13.2909
   9   2.0000      -0.458131       -12.4664
  10   2.0000      -0.414848       -11.2886
  11   2.0000      -0.389207       -10.5909
  12   2.0000      -0.371849       -10.1185
  13   2.0000      -0.294780        -8.0214
  14   2.0000      -0.257560        -7.0086
  15   0.0000      -0.079320        -2.1584
  16   0.0000       0.028815         0.7841
  17   0.0000       0.047699         1.2979
  18   0.0000       0.079000         2.1497
  19   0.0000       0.114844         3.1251

MULLIKEN ATOMIC CHARGES
-----------------------
   0 C :    0.146811
   1 O :   -0.201413
   2 C :   -0.119626
   3 C :    0.088590
   4 H :   -0.013246
   5 H :    0.033845
   6 H :    0.002845
   7 H :    0.062194
Sum of atomic charges:   -0.0000000

LOEWDIN ATOMIC CHARGES
----------------------
   0 C :   -0.035682
   1 O :   -0.025661
   2 C :   -0.097527
   3 C :    0.039588
   4 H :   -0.001549
   5 H :    0.053435
   6 H :    0.000862
   7 H :    0.066534

  Mayer bond orders larger than 0.100000
B(  0-C ,  1-O ) :   2.1741 B(  0-C ,  2-C ) :   1.0693 B(  0-C ,  4-H ) :   0.8874
B(  2-C ,  3-C ) :   1.9401 B(  2-C ,  5-H ) :   0.9281 B(  3-C ,  6-H ) :   0.9429
B(  3-C ,  7-H ) :   0.9377

-----------------------------------------------------------------------------
         ABSORPTION SPECTRUM VIA TRANSITION ELECTRIC DIPOLE MOMENTS
-----------------------------------------------------------------------------
State   Energy    Wavelength  fosc         T2        TX        TY        TZ
        (cm-1)      (nm)                 (au**2)    (au)      (au)      (au)
-----------------------------------------------------------------------------
   1   26497.8    377.4   0.000384440   0.00478   0.04735   0.01187  -0.04892

FINAL SINGLE POINT ENERGY      -191.643879301066

DIPOLE MOMENT
-------------
                                X             Y             Z
Electronic contribution:     -1.70361      -2.22407       0.53891
Nuclear contribution   :      2.22204       3.05802      -0.62513
                        -----------------------------------------
Total Dipole Moment    :      0.51843       0.83395      -0.08621
                        -----------------------------------------
Magnitude (a.u.)       :      0.98573
Magnitude (Debye)      :      2.50553

Rotational constants in cm-1:     0.761684     0.199381     0.159524
Rotational constants in MHz : 22834.704428  5977.277060  4782.409582

                             ****ORCA TERMINATED NORMALLY****
TOTAL RUN TIME: 0 days 0 hours 3 minutes 17 seconds 636 msec
