                         Program Version 5.0.3 -  RELEASE  -
|  1> ! B3LYP cc-pVDZ
|  2> !TightSCF
|  3> %scf
|  4>  ConvForced true
|  5>  convergence tight
|  6>  MaxIter 500
|  7> end
|  8>
|  9> %tddft
| 10>  nroots 1
| 11> end
| 12>
| 13> # 	4136
| 14> * xyz 0 1
| 15> 		C   -1.292264  -0.391474   0.111038
| 16> 		O   -2.074522  -0.683654   0.775498
| 17> 		C   -0.098703   0.470002   0.444002
| 18> 		C    1.157978   0.008160  -0.149174
| 19> 		H   -1.040489  -0.708825  -0.874330
| 20> 		H   -0.180500   1.477078   0.947529
| 21> 		H    1.254123  -0.986243  -0.934149
| 22> 		H    2.299672   0.804179  -0.253190
| 23> *
| 24>
| 25>                          ****END OF INPUT****

CARTESIAN COORDINATES (ANGSTROEM)
---------------------------------
  C     -1.292264   -0.391474    0.111038
  O     -2.074522   -0.683654    0.775498
  C     -0.098703    0.470002    0.444002
  C      1.157978    0.008160   -0.149174
  H     -1.040489   -0.708825   -0.874330
  H     -0.180500    1.477078    0.947529
  H      1.254123   -0.986243   -0.934149
  H      2.299672    0.804179   -0.253190

 Total Charge           Charge          ....    0
 Multiplicity           Mult            ....    1
 Number of Electrons    NEL             ....   30
 Basis Dimension        Dim             ....   76

ORBITAL ENERGIES
----------------

  NO   OCC          E(Eh)            E(eV)
   0   2.0000     -19.147736      -521.0364
   1   2.0000     -10.268359      -279.4163
   2   2.0000     -10.257272      -279.1145
   3   2.0000     -10.216274      -277.9990
   4   2.0000      -1.142022       -31.0760
   5   2.0000      -0.767207       -20.8768
   6   2.0000      -0.614769       -16.7287
   7   2.0000      -0.565870       -15.3981
   8   2.0000      -0.485590       -13.2136
   9   2.0000      -0.475479       -12.9384
  10   2.0000      -0.455447       -12.3933
  11   2.0000      -0.403584       -10.9821
  12   2.0000      -0.359740        -9.7890
  13   2.0000      -0.269943        -7.3455
  14   2.0000      -0.251713        -6.8494
  15   0.0000      -0.060369        -1.6427
  16   0.0000       0.022476         0.6116
  17   0.0000       0.042165         1.1474
  18   0.0000       0.069549         1.8925
  19   0.0000       0.115161         3.1337

MULLIKEN ATOMIC CHARGES
-----------------------
   0 C :    0.199051
   1 O :   -0.051635
   2 C :   -0.107356
   3 C :   -0.166468
   4 H :   -0.060934
   5 H :    0.034541
   6 H :    0.078680
   7 H :    0.074122
Sum of atomic charges:    0.0000000

LOEWDIN ATOMIC CHARGES
----------------------
   0 C :   -0.143114
   1 O :    0.164927
   2 C :   -0.070666
   3 C :   -0.075885
   4 H :   -0.025245
   5 H :    0.035238
   6 H :    0.053749
   7 H :    0.060994

  Mayer bond orders larger than 0.100000
B(  0-C ,  1-O ) :   2.3879 B(  0-C ,  2-C ) :   0.9609 B(  0-C ,  4-H ) :   0.8991
B(  2-C ,  3-C ) :   1.9019 B(  2-C ,  5-H ) :   0.9456 B(  3-C ,  6-H ) :   0.9270
B(  3-C ,  7-H ) :   0.9326

-----------------------------------------------------------------------------
         ABSORPTION SPECTRUM VIA TRANSITION ELECTRIC DIPOLE MOMENTS
-----------------------------------------------------------------------------
State   Energy    Wavelength  fosc         T2        TX        TY        TZ
        (cm-1)      (nm)                 (au**2)    (au)      (au)      (au)
-----------------------------------------------------------------------------
   1   31314.2    319.3   0.003213774   0.03379   0.16679   0.06517   0.04148

FINAL SINGLE POINT ENERGY      -191.542598144008

DIPOLE MOMENT
-------------
                                X             Y             Z
Electronic contribution:     -3.91321      -0.87966       1.68157
Nuclear contribution   :      4.41832       1.16518      -2.11967
                        -----------------------------------------
Total Dipole Moment    :      0.50511       0.28552      -0.43810
                        -----------------------------------------
Magnitude (a.u.)       :      0.72704
Magnitude (Debye)      :      1.84800

Rotational constants in cm-1:     1.222372     0.158362     0.145310
Rotational constants in MHz : 36645.778246  4747.583182  4356.280210

                             ****ORCA TERMINATED NORMALLY****
TOTAL RUN TIME: 0 days 0 hours 3 minutes 27 seconds 325 msec
