                         Program Version 5.0.3 -  RELEASE  -
|  1> ! B3LYP cc-pVDZ
|  2> !TightSCF
|  3> %scf
|  4>  ConvForced true
|  5>  convergence tight
|  6>  MaxIter 500
|  7> end
|  8>
|  9> %tddft
| 10>  nroots 1
| 11> end
| 12>
| 13> # 	32346
| 14> * xyz 0 1
| 15> 		C   -0.640620  -0.399184  -0.015610
| 16> 		O   -0.540889  -1.633641  -0.001115
| 17> 		C    0.617601   0.388889  -0.020270
| 18> 		C    1.852926  -0.124650   0.029884
| 19> 		H   -1.668669   0.188978   0.243876
| 20> 		H    0.512567   1.424543  -0.057217
| 21> 		H    2.052344  -1.193780  -0.095316
| 22> 		H    2.809557   0.399910  -0.007214
| 23> *
| 24>
| 25>                          ****END OF INPUT****

CARTESIAN COORDINATES (ANGSTROEM)
---------------------------------
  C     -0.640620   -0.399184   -0.015610
  O     -0.540889   -1.633641   -0.001115
  C      0.617601    0.388889   -0.020270
  C      1.852926   -0.124650    0.029884
  H     -1.668669    0.188978    0.243876
  H      0.512567    1.424543   -0.057217
  H      2.052344   -1.193780   -0.095316
  H      2.809557    0.399910   -0.007214

 Total Charge           Charge          ....    0
 Multiplicity           Mult            ....    1
 Number of Electrons    NEL             ....   30
 Basis Dimension        Dim             ....   76

ORBITAL ENERGIES
----------------

  NO   OCC          E(Eh)            E(eV)
   0   2.0000     -19.141247      -520.8598
   1   2.0000     -10.287436      -279.9354
   2   2.0000     -10.212936      -277.9081
   3   2.0000     -10.203193      -277.6430
   4   2.0000      -1.034130       -28.1401
   5   2.0000      -0.791331       -21.5332
   6   2.0000      -0.655544       -17.8382
   7   2.0000      -0.545090       -14.8326
   8   2.0000      -0.500322       -13.6145
   9   2.0000      -0.449415       -12.2292
  10   2.0000      -0.424183       -11.5426
  11   2.0000      -0.392431       -10.6786
  12   2.0000      -0.371218       -10.1013
  13   2.0000      -0.285060        -7.7569
  14   2.0000      -0.257741        -7.0135
  15   0.0000      -0.076206        -2.0737
  16   0.0000       0.045727         1.2443
  17   0.0000       0.069133         1.8812
  18   0.0000       0.090347         2.4585
  19   0.0000       0.116734         3.1765

MULLIKEN ATOMIC CHARGES
-----------------------
   0 C :    0.145456
   1 O :   -0.202738
   2 C :   -0.055170
   3 C :    0.061674
   4 H :    0.011637
   5 H :   -0.030704
   6 H :    0.035772
   7 H :    0.034073
Sum of atomic charges:   -0.0000000

LOEWDIN ATOMIC CHARGES
----------------------
   0 C :   -0.022365
   1 O :   -0.025057
   2 C :   -0.074709
   3 C :    0.029982
   4 H :    0.012171
   5 H :    0.014119
   6 H :    0.032916
   7 H :    0.032944

  Mayer bond orders larger than 0.100000
B(  0-C ,  1-O ) :   2.1525 B(  0-C ,  2-C ) :   1.0493 B(  0-C ,  4-H ) :   0.8975
B(  2-C ,  3-C ) :   1.9645 B(  2-C ,  5-H ) :   0.9443 B(  3-C ,  6-H ) :   0.9395
B(  3-C ,  7-H ) :   0.9488

-----------------------------------------------------------------------------
         ABSORPTION SPECTRUM VIA TRANSITION ELECTRIC DIPOLE MOMENTS
-----------------------------------------------------------------------------
State   Energy    Wavelength  fosc         T2        TX        TY        TZ
        (cm-1)      (nm)                 (au**2)    (au)      (au)      (au)
-----------------------------------------------------------------------------
   1   26612.0    375.8   0.000200392   0.00248   0.03294  -0.01064  -0.03579

FINAL SINGLE POINT ENERGY      -191.672772731290

DIPOLE MOMENT
-------------
                                X             Y             Z
Electronic contribution:     -1.95418      -1.67787      -0.09961
Nuclear contribution   :      2.32221       2.55459       0.07925
                        -----------------------------------------
Total Dipole Moment    :      0.36803       0.87672      -0.02036
                        -----------------------------------------
Magnitude (a.u.)       :      0.95106
Magnitude (Debye)      :      2.41739

Rotational constants in cm-1:     0.727053     0.211078     0.163875
Rotational constants in MHz : 21796.500054  6327.955483  4912.853023

                             ****ORCA TERMINATED NORMALLY****
TOTAL RUN TIME: 0 days 0 hours 3 minutes 4 seconds 869 msec
