                         Program Version 5.0.3 -  RELEASE  -
|  1> ! HF-3c
|  2> !TightSCF
|  3> %scf
|  4>  ConvForced true
|  5>  convergence tight
|  6>  MaxIter 500
|  7> end
|  8>
|  9> %tddft
| 10>  nroots 1
| 11> end
| 12>
| 13> # 	32308
| 14> * xyz 0 1
| 15> 		C   -0.682423  -0.444395   0.017279
| 16> 		O   -0.530417  -1.641296  -0.001935
| 17> 		C    0.678595   0.439446  -0.022012
| 18> 		C    1.817784  -0.127216   0.005957
| 19> 		H   -1.559128   0.109175  -0.103103
| 20> 		H    0.636056   1.562988   0.154789
| 21> 		H    1.829006  -1.237455   0.039366
| 22> 		H    2.870578   0.436241  -0.071311
| 23> *
| 24>
| 25>                          ****END OF INPUT****

CARTESIAN COORDINATES (ANGSTROEM)
---------------------------------
  C     -0.682423   -0.444395    0.017279
  O     -0.530417   -1.641296   -0.001935
  C      0.678595    0.439446   -0.022012
  C      1.817784   -0.127216    0.005957
  H     -1.559128    0.109175   -0.103103
  H      0.636056    1.562988    0.154789
  H      1.829006   -1.237455    0.039366
  H      2.870578    0.436241   -0.071311

 Total Charge           Charge          ....    0
 Multiplicity           Mult            ....    1
 Number of Electrons    NEL             ....   30
 Basis Dimension        Dim             ....   24

ORBITAL ENERGIES
----------------

  NO   OCC          E(Eh)            E(eV)
   0   2.0000     -20.382837      -554.6452
   1   2.0000     -11.305714      -307.6441
   2   2.0000     -11.171074      -303.9804
   3   2.0000     -11.170365      -303.9611
   4   2.0000      -1.413559       -38.4649
   5   2.0000      -1.065846       -29.0031
   6   2.0000      -0.872283       -23.7360
   7   2.0000      -0.736093       -20.0301
   8   2.0000      -0.690747       -18.7962
   9   2.0000      -0.613279       -16.6882
  10   2.0000      -0.584471       -15.9043
  11   2.0000      -0.541452       -14.7336
  12   2.0000      -0.505278       -13.7493
  13   2.0000      -0.411258       -11.1909
  14   2.0000      -0.398252       -10.8370
  15   0.0000       0.155143         4.2217
  16   0.0000       0.302674         8.2362
  17   0.0000       0.456442        12.4204
  18   0.0000       0.562079        15.2950
  19   0.0000       0.619807        16.8658

MULLIKEN ATOMIC CHARGES
-----------------------
   0 C :    0.173834
   1 O :   -0.346913
   2 C :   -0.175423
   3 C :   -0.233939
   4 H :    0.148323
   5 H :    0.134590
   6 H :    0.153042
   7 H :    0.146486
Sum of atomic charges:    0.0000000

LOEWDIN ATOMIC CHARGES
----------------------
   0 C :    0.158578
   1 O :   -0.247519
   2 C :   -0.138868
   3 C :   -0.145357
   4 H :    0.078132
   5 H :    0.088695
   6 H :    0.101659
   7 H :    0.104681

  Mayer bond orders larger than 0.100000
B(  0-C ,  1-O ) :   1.9493 B(  0-C ,  2-C ) :   0.9536 B(  0-C ,  4-H ) :   0.9283
B(  2-C ,  3-C ) :   2.0004 B(  2-C ,  5-H ) :   0.9562 B(  3-C ,  6-H ) :   0.9507
B(  3-C ,  7-H ) :   0.9557

-----------------------------------------------------------------------------
         ABSORPTION SPECTRUM VIA TRANSITION ELECTRIC DIPOLE MOMENTS
-----------------------------------------------------------------------------
State   Energy    Wavelength  fosc         T2        TX        TY        TZ
        (cm-1)      (nm)                 (au**2)    (au)      (au)      (au)
-----------------------------------------------------------------------------
   1   33873.4    295.2   0.000492196   0.00478   0.06816   0.01144  -0.00267

Dispersion correction           -0.025425449
FINAL SINGLE POINT ENERGY      -189.314155866713

DIPOLE MOMENT
-------------
                                X             Y             Z
Electronic contribution:     -2.27359      -1.72862       0.00588
Nuclear contribution   :      2.38553       2.60512       0.01825
                        -----------------------------------------
Total Dipole Moment    :      0.11194       0.87650       0.02413
                        -----------------------------------------
Magnitude (a.u.)       :      0.88394
Magnitude (Debye)      :      2.24681

Rotational constants in cm-1:     0.743762     0.207379     0.162324
Rotational constants in MHz : 22297.431652  6217.051126  4866.352199

                             ****ORCA TERMINATED NORMALLY****
TOTAL RUN TIME: 0 days 0 hours 0 minutes 9 seconds 187 msec
