                         Program Version 5.0.3 -  RELEASE  -
|  1> ! B3LYP cc-pVDZ
|  2> !TightSCF
|  3> %scf
|  4>  ConvForced true
|  5>  convergence tight
|  6>  MaxIter 500
|  7> end
|  8>
|  9> %tddft
| 10>  nroots 1
| 11> end
| 12>
| 13> # 	2451
| 14> * xyz 0 1
| 15> 		C   -1.213983  -0.276359   0.039551
| 16> 		O   -1.684227  -0.851969   0.904330
| 17> 		C    0.010811   0.517276   0.103631
| 18> 		C    1.223813  -0.004045  -0.195244
| 19> 		H   -1.522352  -0.495326  -0.920535
| 20> 		H   -0.072193   1.578205   0.572502
| 21> 		H    1.215295  -1.058983  -0.492938
| 22> 		H    2.134526   0.563744  -0.105810
| 23> *
| 24>
| 25>                          ****END OF INPUT****

CARTESIAN COORDINATES (ANGSTROEM)
---------------------------------
  C     -1.213983   -0.276359    0.039551
  O     -1.684227   -0.851969    0.904330
  C      0.010811    0.517276    0.103631
  C      1.223813   -0.004045   -0.195244
  H     -1.522352   -0.495326   -0.920535
  H     -0.072193    1.578205    0.572502
  H      1.215295   -1.058983   -0.492938
  H      2.134526    0.563744   -0.105810

 Total Charge           Charge          ....    0
 Multiplicity           Mult            ....    1
 Number of Electrons    NEL             ....   30
 Basis Dimension        Dim             ....   76

ORBITAL ENERGIES
----------------

  NO   OCC          E(Eh)            E(eV)
   0   2.0000     -19.140807      -520.8478
   1   2.0000     -10.265247      -279.3316
   2   2.0000     -10.206591      -277.7355
   3   2.0000     -10.205448      -277.7044
   4   2.0000      -1.092121       -29.7181
   5   2.0000      -0.792123       -21.5548
   6   2.0000      -0.652250       -17.7486
   7   2.0000      -0.565231       -15.3807
   8   2.0000      -0.494741       -13.4626
   9   2.0000      -0.469907       -12.7868
  10   2.0000      -0.445955       -12.1351
  11   2.0000      -0.408253       -11.1091
  12   2.0000      -0.377816       -10.2809
  13   2.0000      -0.281314        -7.6550
  14   2.0000      -0.253015        -6.8849
  15   0.0000      -0.030888        -0.8405
  16   0.0000       0.000568         0.0155
  17   0.0000       0.081966         2.2304
  18   0.0000       0.091293         2.4842
  19   0.0000       0.119712         3.2575

MULLIKEN ATOMIC CHARGES
-----------------------
   0 C :    0.201844
   1 O :   -0.125705
   2 C :   -0.149986
   3 C :    0.042099
   4 H :   -0.050406
   5 H :    0.032296
   6 H :    0.019610
   7 H :    0.030247
Sum of atomic charges:    0.0000000

LOEWDIN ATOMIC CHARGES
----------------------
   0 C :   -0.075295
   1 O :    0.083196
   2 C :   -0.060601
   3 C :   -0.026435
   4 H :   -0.023268
   5 H :    0.045633
   6 H :    0.028377
   7 H :    0.028393

  Mayer bond orders larger than 0.100000
B(  0-C ,  1-O ) :   2.3064 B(  0-C ,  2-C ) :   0.9820 B(  0-C ,  4-H ) :   0.9218
B(  2-C ,  3-C ) :   2.0385 B(  2-C ,  5-H ) :   0.9285 B(  3-C ,  6-H ) :   0.9414
B(  3-C ,  7-H ) :   0.9456

-----------------------------------------------------------------------------
         ABSORPTION SPECTRUM VIA TRANSITION ELECTRIC DIPOLE MOMENTS
-----------------------------------------------------------------------------
State   Energy    Wavelength  fosc         T2        TX        TY        TZ
        (cm-1)      (nm)                 (au**2)    (au)      (au)      (au)
-----------------------------------------------------------------------------
   1   34891.9    286.6   0.000300519   0.00284   0.02386   0.01284  -0.04584

FINAL SINGLE POINT ENERGY      -191.616216530202

DIPOLE MOMENT
-------------
                                X             Y             Z
Electronic contribution:     -2.81988      -0.80687       1.24550
Nuclear contribution   :      3.29706       1.22369      -1.74099
                        -----------------------------------------
Total Dipole Moment    :      0.47717       0.41683      -0.49549
                        -----------------------------------------
Magnitude (a.u.)       :      0.80433
Magnitude (Debye)      :      2.04446

Rotational constants in cm-1:     1.053312     0.171416     0.163646
Rotational constants in MHz : 31577.499188  5138.930640  4905.973097

                             ****ORCA TERMINATED NORMALLY****
TOTAL RUN TIME: 0 days 0 hours 3 minutes 22 seconds 602 msec
