                         Program Version 5.0.3 -  RELEASE  -
|  1> ! B3LYP cc-pVDZ
|  2> !TightSCF
|  3> %scf
|  4>  ConvForced true
|  5>  convergence tight
|  6>  MaxIter 500
|  7> end
|  8>
|  9> %tddft
| 10>  nroots 1
| 11> end
| 12>
| 13> # 	5972
| 14> * xyz 0 1
| 15> 		C   -1.296051  -0.275889  -0.028465
| 16> 		O   -1.813858  -0.845277  -0.859910
| 17> 		C   -0.041833   0.485080  -0.269034
| 18> 		C    1.172541   0.030968   0.107964
| 19> 		H   -1.339742  -0.608225   0.999795
| 20> 		H   -0.181119   1.355351  -0.925546
| 21> 		H    1.249964  -0.930026   0.858987
| 22> 		H    2.202555   0.710741   0.112992
| 23> *
| 24>
| 25>                          ****END OF INPUT****

CARTESIAN COORDINATES (ANGSTROEM)
---------------------------------
  C     -1.296051   -0.275889   -0.028465
  O     -1.813858   -0.845277   -0.859910
  C     -0.041833    0.485080   -0.269034
  C      1.172541    0.030968    0.107964
  H     -1.339742   -0.608225    0.999795
  H     -0.181119    1.355351   -0.925546
  H      1.249964   -0.930026    0.858987
  H      2.202555    0.710741    0.112992

 Total Charge           Charge          ....    0
 Multiplicity           Mult            ....    1
 Number of Electrons    NEL             ....   30
 Basis Dimension        Dim             ....   76

ORBITAL ENERGIES
----------------

  NO   OCC          E(Eh)            E(eV)
   0   2.0000     -19.149353      -521.0804
   1   2.0000     -10.273200      -279.5480
   2   2.0000     -10.228254      -278.3250
   3   2.0000     -10.204841      -277.6878
   4   2.0000      -1.102956       -30.0130
   5   2.0000      -0.786081       -21.3904
   6   2.0000      -0.634645       -17.2696
   7   2.0000      -0.565463       -15.3870
   8   2.0000      -0.478878       -13.0309
   9   2.0000      -0.470077       -12.7914
  10   2.0000      -0.446041       -12.1374
  11   2.0000      -0.407308       -11.0834
  12   2.0000      -0.366468        -9.9721
  13   2.0000      -0.283566        -7.7162
  14   2.0000      -0.253937        -6.9100
  15   0.0000      -0.049876        -1.3572
  16   0.0000       0.013433         0.3655
  17   0.0000       0.064416         1.7528
  18   0.0000       0.076293         2.0760
  19   0.0000       0.116017         3.1570

MULLIKEN ATOMIC CHARGES
-----------------------
   0 C :    0.166222
   1 O :   -0.106773
   2 C :   -0.056868
   3 C :   -0.094284
   4 H :   -0.040649
   5 H :    0.017268
   6 H :    0.046720
   7 H :    0.068365
Sum of atomic charges:   -0.0000000

LOEWDIN ATOMIC CHARGES
----------------------
   0 C :   -0.080032
   1 O :    0.099316
   2 C :   -0.065660
   3 C :   -0.066585
   4 H :   -0.018008
   5 H :    0.031669
   6 H :    0.042501
   7 H :    0.056799

  Mayer bond orders larger than 0.100000
B(  0-C ,  1-O ) :   2.2929 B(  0-C ,  2-C ) :   0.9897 B(  0-C ,  4-H ) :   0.9067
B(  2-C ,  3-C ) :   1.9971 B(  2-C ,  5-H ) :   0.9359 B(  3-C ,  6-H ) :   0.9336
B(  3-C ,  7-H ) :   0.9366

-----------------------------------------------------------------------------
         ABSORPTION SPECTRUM VIA TRANSITION ELECTRIC DIPOLE MOMENTS
-----------------------------------------------------------------------------
State   Energy    Wavelength  fosc         T2        TX        TY        TZ
        (cm-1)      (nm)                 (au**2)    (au)      (au)      (au)
-----------------------------------------------------------------------------
   1   32031.2    312.2   0.001098098   0.01129   0.00767  -0.05234   0.09213

FINAL SINGLE POINT ENERGY      -191.609868931217

DIPOLE MOMENT
-------------
                                X             Y             Z
Electronic contribution:     -3.31305      -0.72604      -1.48399
Nuclear contribution   :      3.73815       1.16189       1.97546
                        -----------------------------------------
Total Dipole Moment    :      0.42510       0.43585       0.49147
                        -----------------------------------------
Magnitude (a.u.)       :      0.78245
Magnitude (Debye)      :      1.98882

Rotational constants in cm-1:     1.094661     0.165997     0.160371
Rotational constants in MHz : 32817.112751  4976.474362  4807.797101

                             ****ORCA TERMINATED NORMALLY****
TOTAL RUN TIME: 0 days 0 hours 3 minutes 21 seconds 777 msec
