                         Program Version 5.0.3 -  RELEASE  -
|  1> ! B3LYP cc-pVDZ
|  2> !TightSCF
|  3> %scf
|  4>  ConvForced true
|  5>  convergence tight
|  6>  MaxIter 500
|  7> end
|  8>
|  9> %tddft
| 10>  nroots 1
| 11> end
| 12>
| 13> # 	3171
| 14> * xyz 0 1
| 15> 		C   -1.224733  -0.304886  -0.051626
| 16> 		O   -1.788956  -0.874219  -0.884170
| 17> 		C    0.023004   0.457230  -0.277898
| 18> 		C    1.215243   0.038918   0.121132
| 19> 		H   -1.549257  -0.532417   1.036384
| 20> 		H    0.057198   1.294561  -1.011789
| 21> 		H    1.222099  -0.802391   0.895217
| 22> 		H    2.098814   0.643793   0.097565
| 23> *
| 24>
| 25>                          ****END OF INPUT****

CARTESIAN COORDINATES (ANGSTROEM)
---------------------------------
  C     -1.224733   -0.304886   -0.051626
  O     -1.788956   -0.874219   -0.884170
  C      0.023004    0.457230   -0.277898
  C      1.215243    0.038918    0.121132
  H     -1.549257   -0.532417    1.036384
  H      0.057198    1.294561   -1.011789
  H      1.222099   -0.802391    0.895217
  H      2.098814    0.643793    0.097565

 Total Charge           Charge          ....    0
 Multiplicity           Mult            ....    1
 Number of Electrons    NEL             ....   30
 Basis Dimension        Dim             ....   76

ORBITAL ENERGIES
----------------

  NO   OCC          E(Eh)            E(eV)
   0   2.0000     -19.145746      -520.9822
   1   2.0000     -10.281425      -279.7718
   2   2.0000     -10.207056      -277.7481
   3   2.0000     -10.206152      -277.7235
   4   2.0000      -1.086383       -29.5620
   5   2.0000      -0.798217       -21.7206
   6   2.0000      -0.641739       -17.4626
   7   2.0000      -0.557618       -15.1736
   8   2.0000      -0.489358       -13.3161
   9   2.0000      -0.472764       -12.8646
  10   2.0000      -0.445507       -12.1229
  11   2.0000      -0.405067       -11.0224
  12   2.0000      -0.371232       -10.1017
  13   2.0000      -0.291043        -7.9197
  14   2.0000      -0.256243        -6.9727
  15   0.0000      -0.045870        -1.2482
  16   0.0000       0.014669         0.3992
  17   0.0000       0.081472         2.2170
  18   0.0000       0.086743         2.3604
  19   0.0000       0.105777         2.8783

MULLIKEN ATOMIC CHARGES
-----------------------
   0 C :    0.146342
   1 O :   -0.127299
   2 C :   -0.084999
   3 C :    0.010680
   4 H :   -0.025289
   5 H :    0.022966
   6 H :    0.025734
   7 H :    0.031864
Sum of atomic charges:    0.0000000

LOEWDIN ATOMIC CHARGES
----------------------
   0 C :   -0.065132
   1 O :    0.065818
   2 C :   -0.063776
   3 C :   -0.029676
   4 H :   -0.009276
   5 H :    0.041175
   6 H :    0.033150
   7 H :    0.027718

  Mayer bond orders larger than 0.100000
B(  0-C ,  1-O ) :   2.2748 B(  0-C ,  2-C ) :   0.9755 B(  0-C ,  4-H ) :   0.9030
B(  2-C ,  3-C ) :   2.0263 B(  2-C ,  5-H ) :   0.9315 B(  3-C ,  6-H ) :   0.9453
B(  3-C ,  7-H ) :   0.9420

-----------------------------------------------------------------------------
         ABSORPTION SPECTRUM VIA TRANSITION ELECTRIC DIPOLE MOMENTS
-----------------------------------------------------------------------------
State   Energy    Wavelength  fosc         T2        TX        TY        TZ
        (cm-1)      (nm)                 (au**2)    (au)      (au)      (au)
-----------------------------------------------------------------------------
   1   33173.8    301.4   0.001489587   0.01478   0.09805  -0.01174   0.07093

FINAL SINGLE POINT ENERGY      -191.633017312050

DIPOLE MOMENT
-------------
                                X             Y             Z
Electronic contribution:     -2.91750      -0.82138      -1.51906
Nuclear contribution   :      3.47790       1.29795       1.99129
                        -----------------------------------------
Total Dipole Moment    :      0.56040       0.47656       0.47223
                        -----------------------------------------
Magnitude (a.u.)       :      0.87416
Magnitude (Debye)      :      2.22194

Rotational constants in cm-1:     1.142600     0.163879     0.159540
Rotational constants in MHz : 34254.297910  4912.957852  4782.888183

                             ****ORCA TERMINATED NORMALLY****
TOTAL RUN TIME: 0 days 0 hours 3 minutes 23 seconds 435 msec
