                         Program Version 5.0.3 -  RELEASE  -
|  1> ! B3LYP cc-pVDZ
|  2> !TightSCF
|  3> %scf
|  4>  ConvForced true
|  5>  convergence tight
|  6>  MaxIter 500
|  7> end
|  8>
|  9> %tddft
| 10>  nroots 1
| 11> end
| 12>
| 13> # 	19800
| 14> * xyz 0 1
| 15> 		C   -1.267489  -0.302803   0.069389
| 16> 		O   -1.191630  -1.540188   0.020662
| 17> 		C   -0.015450   0.600507   0.002435
| 18> 		C    1.235626  -0.037144   0.018177
| 19> 		H   -2.010343   0.091551  -0.106533
| 20> 		H   -0.190278   1.753487  -0.064809
| 21> 		H    1.140680  -1.207882  -0.235919
| 22> 		H    2.236636   0.708133   0.339315
| 23> *
| 24>
| 25>                          ****END OF INPUT****

CARTESIAN COORDINATES (ANGSTROEM)
---------------------------------
  C     -1.267489   -0.302803    0.069389
  O     -1.191630   -1.540188    0.020662
  C     -0.015450    0.600507    0.002435
  C      1.235626   -0.037144    0.018177
  H     -2.010343    0.091551   -0.106533
  H     -0.190278    1.753487   -0.064809
  H      1.140680   -1.207882   -0.235919
  H      2.236636    0.708133    0.339315

 Total Charge           Charge          ....    0
 Multiplicity           Mult            ....    1
 Number of Electrons    NEL             ....   30
 Basis Dimension        Dim             ....   76

ORBITAL ENERGIES
----------------

  NO   OCC          E(Eh)            E(eV)
   0   2.0000     -19.139577      -520.8144
   1   2.0000     -10.260841      -279.2117
   2   2.0000     -10.241374      -278.6820
   3   2.0000     -10.217370      -278.0288
   4   2.0000      -1.031615       -28.0717
   5   2.0000      -0.768185       -20.9034
   6   2.0000      -0.674036       -18.3415
   7   2.0000      -0.547636       -14.9019
   8   2.0000      -0.490602       -13.3500
   9   2.0000      -0.437146       -11.8953
  10   2.0000      -0.402987       -10.9658
  11   2.0000      -0.387647       -10.5484
  12   2.0000      -0.371291       -10.1033
  13   2.0000      -0.270380        -7.3574
  14   2.0000      -0.256438        -6.9780
  15   0.0000      -0.079243        -2.1563
  16   0.0000       0.031416         0.8549
  17   0.0000       0.042912         1.1677
  18   0.0000       0.075132         2.0444
  19   0.0000       0.127650         3.4735

MULLIKEN ATOMIC CHARGES
-----------------------
   0 C :    0.372618
   1 O :   -0.230723
   2 C :   -0.172419
   3 C :   -0.049958
   4 H :   -0.114518
   5 H :    0.023845
   6 H :    0.090775
   7 H :    0.080379
Sum of atomic charges:    0.0000000

LOEWDIN ATOMIC CHARGES
----------------------
   0 C :    0.042737
   1 O :   -0.020238
   2 C :   -0.092292
   3 C :   -0.023433
   4 H :   -0.073985
   5 H :    0.035680
   6 H :    0.063414
   7 H :    0.068117

  Mayer bond orders larger than 0.100000
B(  0-C ,  1-O ) :   2.1230 B(  0-C ,  2-C ) :   1.0575 B(  0-C ,  4-H ) :   0.9406
B(  2-C ,  3-C ) :   1.9119 B(  2-C ,  5-H ) :   0.9421 B(  3-C ,  6-H ) :   0.9064
B(  3-C ,  7-H ) :   0.9334

-----------------------------------------------------------------------------
         ABSORPTION SPECTRUM VIA TRANSITION ELECTRIC DIPOLE MOMENTS
-----------------------------------------------------------------------------
State   Energy    Wavelength  fosc         T2        TX        TY        TZ
        (cm-1)      (nm)                 (au**2)    (au)      (au)      (au)
-----------------------------------------------------------------------------
   1   25982.0    384.9   0.000043343   0.00055   0.01481  -0.01048  -0.01484

FINAL SINGLE POINT ENERGY      -191.581048621062

DIPOLE MOMENT
-------------
                                X             Y             Z
Electronic contribution:     -2.13207      -1.66849       0.14684
Nuclear contribution   :      2.32596       2.59381      -0.15369
                        -----------------------------------------
Total Dipole Moment    :      0.19390       0.92532      -0.00685
                        -----------------------------------------
Magnitude (a.u.)       :      0.94544
Magnitude (Debye)      :      2.40311

Rotational constants in cm-1:     0.692239     0.205369     0.159050
Rotational constants in MHz : 20752.788199  6156.799874  4768.190988

                             ****ORCA TERMINATED NORMALLY****
TOTAL RUN TIME: 0 days 0 hours 3 minutes 21 seconds 92 msec
