                         Program Version 5.0.3 -  RELEASE  -
|  1> ! HF-3c
|  2> !TightSCF
|  3> %scf
|  4>  ConvForced true
|  5>  convergence tight
|  6>  MaxIter 500
|  7> end
|  8>
|  9> %tddft
| 10>  nroots 1
| 11> end
| 12>
| 13> # 	5337
| 14> * xyz 0 1
| 15> 		C   -1.151045  -0.381875   0.059696
| 16> 		O   -2.172879  -0.305079   0.711011
| 17> 		C    0.097423   0.372347   0.386426
| 18> 		C    1.264834   0.142068  -0.308177
| 19> 		H   -1.235017  -0.940536  -0.987315
| 20> 		H   -0.060064   1.112701   1.129913
| 21> 		H    1.287918  -0.527479  -1.129485
| 22> 		H    2.000648   0.616251   0.110574
| 23> *
| 24>
| 25>                          ****END OF INPUT****

CARTESIAN COORDINATES (ANGSTROEM)
---------------------------------
  C     -1.151045   -0.381875    0.059696
  O     -2.172879   -0.305079    0.711011
  C      0.097423    0.372347    0.386426
  C      1.264834    0.142068   -0.308177
  H     -1.235017   -0.940536   -0.987315
  H     -0.060064    1.112701    1.129913
  H      1.287918   -0.527479   -1.129485
  H      2.000648    0.616251    0.110574

 Total Charge           Charge          ....    0
 Multiplicity           Mult            ....    1
 Number of Electrons    NEL             ....   30
 Basis Dimension        Dim             ....   24

ORBITAL ENERGIES
----------------

  NO   OCC          E(Eh)            E(eV)
   0   2.0000     -20.360920      -554.0488
   1   2.0000     -11.289220      -307.1953
   2   2.0000     -11.198906      -304.7377
   3   2.0000     -11.197363      -304.6957
   4   2.0000      -1.396933       -38.0125
   5   2.0000      -1.083545       -29.4848
   6   2.0000      -0.887880       -24.1604
   7   2.0000      -0.772065       -21.0089
   8   2.0000      -0.675784       -18.3890
   9   2.0000      -0.650094       -17.6900
  10   2.0000      -0.581245       -15.8165
  11   2.0000      -0.567020       -15.4294
  12   2.0000      -0.531476       -14.4622
  13   2.0000      -0.407718       -11.0946
  14   2.0000      -0.389069       -10.5871
  15   0.0000       0.121701         3.3116
  16   0.0000       0.287088         7.8121
  17   0.0000       0.535776        14.5792
  18   0.0000       0.609415        16.5830
  19   0.0000       0.673967        18.3396

MULLIKEN ATOMIC CHARGES
-----------------------
   0 C :    0.168175
   1 O :   -0.355808
   2 C :   -0.148913
   3 C :   -0.258433
   4 H :    0.132132
   5 H :    0.157366
   6 H :    0.154997
   7 H :    0.150484
Sum of atomic charges:    0.0000000

LOEWDIN ATOMIC CHARGES
----------------------
   0 C :    0.141011
   1 O :   -0.261010
   2 C :   -0.099999
   3 C :   -0.147836
   4 H :    0.076565
   5 H :    0.099359
   6 H :    0.101615
   7 H :    0.090295

  Mayer bond orders larger than 0.100000
B(  0-C ,  1-O ) :   1.9078 B(  0-C ,  2-C ) :   1.0234 B(  0-C ,  4-H ) :   0.9177
B(  2-C ,  3-C ) :   1.9446 B(  2-C ,  5-H ) :   0.9586 B(  3-C ,  6-H ) :   0.9652
B(  3-C ,  7-H ) :   0.9685

-----------------------------------------------------------------------------
         ABSORPTION SPECTRUM VIA TRANSITION ELECTRIC DIPOLE MOMENTS
-----------------------------------------------------------------------------
State   Energy    Wavelength  fosc         T2        TX        TY        TZ
        (cm-1)      (nm)                 (au**2)    (au)      (au)      (au)
-----------------------------------------------------------------------------
   1   31758.0    314.9   0.000087218   0.00090   0.00089  -0.00849  -0.02883

Dispersion correction           -0.025335545
FINAL SINGLE POINT ENERGY      -189.320700229117

DIPOLE MOMENT
-------------
                                X             Y             Z
Electronic contribution:     -2.92531      -0.42231       1.09189
Nuclear contribution   :      3.86872       0.44364      -1.62803
                        -----------------------------------------
Total Dipole Moment    :      0.94341       0.02133      -0.53614
                        -----------------------------------------
Magnitude (a.u.)       :      1.08533
Magnitude (Debye)      :      2.75868

Rotational constants in cm-1:     1.529509     0.152298     0.138919
Rotational constants in MHz : 45853.537979  4565.779244  4164.682832

                             ****ORCA TERMINATED NORMALLY****
TOTAL RUN TIME: 0 days 0 hours 0 minutes 10 seconds 726 msec
