                         Program Version 5.0.3 -  RELEASE  -
|  1> ! B3LYP cc-pVDZ
|  2> !TightSCF
|  3> %scf
|  4>  ConvForced true
|  5>  convergence tight
|  6>  MaxIter 500
|  7> end
|  8>
|  9> %tddft
| 10>  nroots 1
| 11> end
| 12>
| 13> # 	13356
| 14> * xyz 0 1
| 15> 		C   -1.128043  -0.474677  -0.007316
| 16> 		O   -2.157781  -0.500952  -0.758580
| 17> 		C   -0.065692   0.425190  -0.309648
| 18> 		C    1.182306   0.173385   0.259824
| 19> 		H   -1.027060  -0.849194   0.865900
| 20> 		H   -0.118092   1.283615  -1.121491
| 21> 		H    1.204868  -0.785807   0.899223
| 22> 		H    2.069149   0.775546   0.192410
| 23> *
| 24>
| 25>                          ****END OF INPUT****

CARTESIAN COORDINATES (ANGSTROEM)
---------------------------------
  C     -1.128043   -0.474677   -0.007316
  O     -2.157781   -0.500952   -0.758580
  C     -0.065692    0.425190   -0.309648
  C      1.182306    0.173385    0.259824
  H     -1.027060   -0.849194    0.865900
  H     -0.118092    1.283615   -1.121491
  H      1.204868   -0.785807    0.899223
  H      2.069149    0.775546    0.192410

 Total Charge           Charge          ....    0
 Multiplicity           Mult            ....    1
 Number of Electrons    NEL             ....   30
 Basis Dimension        Dim             ....   76

ORBITAL ENERGIES
----------------

  NO   OCC          E(Eh)            E(eV)
   0   2.0000     -19.134139      -520.6664
   1   2.0000     -10.263705      -279.2896
   2   2.0000     -10.231660      -278.4176
   3   2.0000     -10.219389      -278.0837
   4   2.0000      -1.009898       -27.4807
   5   2.0000      -0.802934       -21.8490
   6   2.0000      -0.665442       -18.1076
   7   2.0000      -0.581466       -15.8225
   8   2.0000      -0.474873       -12.9220
   9   2.0000      -0.471380       -12.8269
  10   2.0000      -0.414676       -11.2839
  11   2.0000      -0.384384       -10.4596
  12   2.0000      -0.373699       -10.1689
  13   2.0000      -0.282475        -7.6865
  14   2.0000      -0.254405        -6.9227
  15   0.0000      -0.081302        -2.2123
  16   0.0000       0.030397         0.8272
  17   0.0000       0.067086         1.8255
  18   0.0000       0.072663         1.9773
  19   0.0000       0.126588         3.4446

MULLIKEN ATOMIC CHARGES
-----------------------
   0 C :    0.296750
   1 O :   -0.253667
   2 C :   -0.118346
   3 C :    0.010505
   4 H :   -0.053359
   5 H :    0.037651
   6 H :    0.040159
   7 H :    0.040306
Sum of atomic charges:    0.0000000

LOEWDIN ATOMIC CHARGES
----------------------
   0 C :    0.004879
   1 O :   -0.052980
   2 C :   -0.047810
   3 C :    0.006905
   4 H :   -0.027603
   5 H :    0.052810
   6 H :    0.038702
   7 H :    0.025097

  Mayer bond orders larger than 0.100000
B(  0-C ,  1-O ) :   2.0674 B(  0-C ,  2-C ) :   1.1329 B(  0-C ,  4-H ) :   0.9376
B(  1-O ,  3-C ) :   0.1261 B(  2-C ,  3-C ) :   1.8651 B(  2-C ,  5-H ) :   0.9475
B(  3-C ,  6-H ) :   0.9440 B(  3-C ,  7-H ) :   0.9503

-----------------------------------------------------------------------------
         ABSORPTION SPECTRUM VIA TRANSITION ELECTRIC DIPOLE MOMENTS
-----------------------------------------------------------------------------
State   Energy    Wavelength  fosc         T2        TX        TY        TZ
        (cm-1)      (nm)                 (au**2)    (au)      (au)      (au)
-----------------------------------------------------------------------------
   1   24889.7    401.8   0.000318619   0.00421   0.06085   0.02262  -0.00011

FINAL SINGLE POINT ENERGY      -191.653955215627

DIPOLE MOMENT
-------------
                                X             Y             Z
Electronic contribution:     -3.00640      -0.60908      -1.00595
Nuclear contribution   :      4.15026       0.80038       1.57820
                        -----------------------------------------
Total Dipole Moment    :      1.14385       0.19130       0.57225
                        -----------------------------------------
Magnitude (a.u.)       :      1.29324
Magnitude (Debye)      :      3.28716

Rotational constants in cm-1:     1.457165     0.156858     0.143372
Rotational constants in MHz : 43684.717569  4702.495172  4298.184842

                             ****ORCA TERMINATED NORMALLY****
TOTAL RUN TIME: 0 days 0 hours 3 minutes 21 seconds 619 msec
