                         Program Version 5.0.3 -  RELEASE  -
|  1> ! B3LYP cc-pVDZ
|  2> !TightSCF
|  3> %scf
|  4>  ConvForced true
|  5>  convergence tight
|  6>  MaxIter 500
|  7> end
|  8>
|  9> %tddft
| 10>  nroots 1
| 11> end
| 12>
| 13> # 	23393
| 14> * xyz 0 1
| 15> 		C   -0.552762  -0.383797  -0.027688
| 16> 		O   -0.603810  -1.658753   0.007466
| 17> 		C    0.629258   0.405065   0.033228
| 18> 		C    1.854720  -0.134975  -0.015822
| 19> 		H   -1.606638   0.077480   0.045098
| 20> 		H    0.528167   1.351333  -0.084097
| 21> 		H    2.178741  -1.085654   0.017826
| 22> 		H    2.445374   0.610134   0.022132
| 23> *
| 24>
| 25>                          ****END OF INPUT****

CARTESIAN COORDINATES (ANGSTROEM)
---------------------------------
  C     -0.552762   -0.383797   -0.027688
  O     -0.603810   -1.658753    0.007466
  C      0.629258    0.405065    0.033228
  C      1.854720   -0.134975   -0.015822
  H     -1.606638    0.077480    0.045098
  H      0.528167    1.351333   -0.084097
  H      2.178741   -1.085654    0.017826
  H      2.445374    0.610134    0.022132

 Total Charge           Charge          ....    0
 Multiplicity           Mult            ....    1
 Number of Electrons    NEL             ....   30
 Basis Dimension        Dim             ....   76

ORBITAL ENERGIES
----------------

  NO   OCC          E(Eh)            E(eV)
   0   2.0000     -19.129051      -520.5279
   1   2.0000     -10.270349      -279.4704
   2   2.0000     -10.200937      -277.5816
   3   2.0000     -10.197083      -277.4767
   4   2.0000      -1.004479       -27.3333
   5   2.0000      -0.820550       -22.3283
   6   2.0000      -0.681927       -18.5562
   7   2.0000      -0.562478       -15.3058
   8   2.0000      -0.519588       -14.1387
   9   2.0000      -0.462748       -12.5920
  10   2.0000      -0.411003       -11.1839
  11   2.0000      -0.396842       -10.7986
  12   2.0000      -0.380486       -10.3535
  13   2.0000      -0.287980        -7.8363
  14   2.0000      -0.246237        -6.7005
  15   0.0000      -0.083072        -2.2605
  16   0.0000       0.058229         1.5845
  17   0.0000       0.075204         2.0464
  18   0.0000       0.101891         2.7726
  19   0.0000       0.122571         3.3353

MULLIKEN ATOMIC CHARGES
-----------------------
   0 C :    0.151470
   1 O :   -0.247186
   2 C :   -0.035473
   3 C :    0.237444
   4 H :   -0.010143
   5 H :   -0.069431
   6 H :   -0.000612
   7 H :   -0.026069
Sum of atomic charges:    0.0000000

LOEWDIN ATOMIC CHARGES
----------------------
   0 C :   -0.006197
   1 O :   -0.072621
   2 C :   -0.045058
   3 C :    0.103672
   4 H :    0.005485
   5 H :   -0.001853
   6 H :    0.015545
   7 H :    0.001028

  Mayer bond orders larger than 0.100000
B(  0-C ,  1-O ) :   2.1099 B(  0-C ,  2-C ) :   1.1099 B(  0-C ,  4-H ) :   0.9290
B(  1-O ,  3-C ) :   0.1173 B(  2-C ,  3-C ) :   1.9356 B(  2-C ,  5-H ) :   0.9383
B(  3-C ,  6-H ) :   0.9577 B(  3-C ,  7-H ) :   0.9208

-----------------------------------------------------------------------------
         ABSORPTION SPECTRUM VIA TRANSITION ELECTRIC DIPOLE MOMENTS
-----------------------------------------------------------------------------
State   Energy    Wavelength  fosc         T2        TX        TY        TZ
        (cm-1)      (nm)                 (au**2)    (au)      (au)      (au)
-----------------------------------------------------------------------------
   1   22915.7    436.4   0.000180718   0.00260   0.03783   0.00131  -0.03411

FINAL SINGLE POINT ENERGY      -191.646736924038

DIPOLE MOMENT
-------------
                                X             Y             Z
Electronic contribution:     -1.58518      -1.65760      -0.02820
Nuclear contribution   :      2.16775       2.68041       0.00122
                        -----------------------------------------
Total Dipole Moment    :      0.58258       1.02281      -0.02698
                        -----------------------------------------
Magnitude (a.u.)       :      1.17740
Magnitude (Debye)      :      2.99271

Rotational constants in cm-1:     0.773496     0.208710     0.164478
Rotational constants in MHz : 23188.827747  6256.974464  4930.918197

                             ****ORCA TERMINATED NORMALLY****
TOTAL RUN TIME: 0 days 0 hours 3 minutes 9 seconds 316 msec
