                         Program Version 5.0.3 -  RELEASE  -
|  1> ! HF-3c
|  2> !TightSCF
|  3> %scf
|  4>  ConvForced true
|  5>  convergence tight
|  6>  MaxIter 500
|  7> end
|  8>
|  9> %tddft
| 10>  nroots 1
| 11> end
| 12>
| 13> # 	18015
| 14> * xyz 0 1
| 15> 		C   -1.165912  -0.365231   0.031909
| 16> 		O   -2.023380  -0.670831  -0.796274
| 17> 		C    0.014038   0.495318  -0.343746
| 18> 		C    1.219952   0.123556   0.099971
| 19> 		H   -1.408553  -0.694826   1.066557
| 20> 		H   -0.127392   1.192112  -0.956537
| 21> 		H    1.380209  -0.737525   0.917108
| 22> 		H    2.131044   0.687361  -0.020985
| 23> *
| 24>
| 25>                          ****END OF INPUT****

CARTESIAN COORDINATES (ANGSTROEM)
---------------------------------
  C     -1.165912   -0.365231    0.031909
  O     -2.023380   -0.670831   -0.796274
  C      0.014038    0.495318   -0.343746
  C      1.219952    0.123556    0.099971
  H     -1.408553   -0.694826    1.066557
  H     -0.127392    1.192112   -0.956537
  H      1.380209   -0.737525    0.917108
  H      2.131044    0.687361   -0.020985

 Total Charge           Charge          ....    0
 Multiplicity           Mult            ....    1
 Number of Electrons    NEL             ....   30
 Basis Dimension        Dim             ....   24

ORBITAL ENERGIES
----------------

  NO   OCC          E(Eh)            E(eV)
   0   2.0000     -20.357339      -553.9514
   1   2.0000     -11.289084      -307.1916
   2   2.0000     -11.200869      -304.7911
   3   2.0000     -11.195572      -304.6470
   4   2.0000      -1.387109       -37.7452
   5   2.0000      -1.085097       -29.5270
   6   2.0000      -0.868679       -23.6380
   7   2.0000      -0.795452       -21.6453
   8   2.0000      -0.678347       -18.4588
   9   2.0000      -0.651528       -17.7290
  10   2.0000      -0.584950       -15.9173
  11   2.0000      -0.536502       -14.5989
  12   2.0000      -0.510558       -13.8930
  13   2.0000      -0.412596       -11.2273
  14   2.0000      -0.402106       -10.9419
  15   0.0000       0.146115         3.9760
  16   0.0000       0.259051         7.0491
  17   0.0000       0.493980        13.4419
  18   0.0000       0.591904        16.1065
  19   0.0000       0.655720        17.8431

MULLIKEN ATOMIC CHARGES
-----------------------
   0 C :    0.161419
   1 O :   -0.345649
   2 C :   -0.200646
   3 C :   -0.200159
   4 H :    0.144989
   5 H :    0.154589
   6 H :    0.142657
   7 H :    0.142800
Sum of atomic charges:   -0.0000000

LOEWDIN ATOMIC CHARGES
----------------------
   0 C :    0.146550
   1 O :   -0.256979
   2 C :   -0.140007
   3 C :   -0.110499
   4 H :    0.082225
   5 H :    0.087952
   6 H :    0.100085
   7 H :    0.090673

  Mayer bond orders larger than 0.100000
B(  0-C ,  1-O ) :   1.9240 B(  0-C ,  2-C ) :   1.0028 B(  0-C ,  4-H ) :   0.9291
B(  2-C ,  3-C ) :   1.9681 B(  2-C ,  5-H ) :   0.9592 B(  3-C ,  6-H ) :   0.9623
B(  3-C ,  7-H ) :   0.9647

-----------------------------------------------------------------------------
         ABSORPTION SPECTRUM VIA TRANSITION ELECTRIC DIPOLE MOMENTS
-----------------------------------------------------------------------------
State   Energy    Wavelength  fosc         T2        TX        TY        TZ
        (cm-1)      (nm)                 (au**2)    (au)      (au)      (au)
-----------------------------------------------------------------------------
   1   32178.9    310.8   0.000228945   0.00234  -0.04839  -0.00062  -0.00035

Dispersion correction           -0.025136093
FINAL SINGLE POINT ENERGY      -189.308019353539

DIPOLE MOMENT
-------------
                                X             Y             Z
Electronic contribution:     -2.89484      -0.69719      -1.14600
Nuclear contribution   :      3.80991       0.89578       1.89111
                        -----------------------------------------
Total Dipole Moment    :      0.91507       0.19858       0.74511
                        -----------------------------------------
Magnitude (a.u.)       :      1.19665
Magnitude (Debye)      :      3.04165

Rotational constants in cm-1:     1.277463     0.156891     0.147275
Rotational constants in MHz : 38297.385643  4703.471158  4415.195154

                             ****ORCA TERMINATED NORMALLY****
TOTAL RUN TIME: 0 days 0 hours 0 minutes 16 seconds 13 msec
