                         Program Version 5.0.3 -  RELEASE  -
|  1> ! HF-3c
|  2> !TightSCF
|  3> %scf
|  4>  ConvForced true
|  5>  convergence tight
|  6>  MaxIter 500
|  7> end
|  8>
|  9> %tddft
| 10>  nroots 1
| 11> end
| 12>
| 13> # 	31899
| 14> * xyz 0 1
| 15> 		C   -0.572217  -0.376485  -0.025501
| 16> 		O   -0.510904  -1.598889   0.011444
| 17> 		C    0.576844   0.438486   0.024361
| 18> 		C    1.780646  -0.220727  -0.003248
| 19> 		H   -1.492473  -0.045948  -0.094583
| 20> 		H    0.594962   1.551177   0.097470
| 21> 		H    1.974410  -1.332788   0.024940
| 22> 		H    2.731834   0.360462  -0.160275
| 23> *
| 24>
| 25>                          ****END OF INPUT****

CARTESIAN COORDINATES (ANGSTROEM)
---------------------------------
  C     -0.572217   -0.376485   -0.025501
  O     -0.510904   -1.598889    0.011444
  C      0.576844    0.438486    0.024361
  C      1.780646   -0.220727   -0.003248
  H     -1.492473   -0.045948   -0.094583
  H      0.594962    1.551177    0.097470
  H      1.974410   -1.332788    0.024940
  H      2.731834    0.360462   -0.160275

 Total Charge           Charge          ....    0
 Multiplicity           Mult            ....    1
 Number of Electrons    NEL             ....   30
 Basis Dimension        Dim             ....   24

ORBITAL ENERGIES
----------------

  NO   OCC          E(Eh)            E(eV)
   0   2.0000     -20.342867      -553.5576
   1   2.0000     -11.290304      -307.2248
   2   2.0000     -11.192975      -304.5763
   3   2.0000     -11.187185      -304.4188
   4   2.0000      -1.390430       -37.8355
   5   2.0000      -1.072825       -29.1930
   6   2.0000      -0.900365       -24.5002
   7   2.0000      -0.767856       -20.8944
   8   2.0000      -0.707804       -19.2603
   9   2.0000      -0.609273       -16.5792
  10   2.0000      -0.570985       -15.5373
  11   2.0000      -0.542815       -14.7708
  12   2.0000      -0.523438       -14.2435
  13   2.0000      -0.421500       -11.4696
  14   2.0000      -0.373374       -10.1600
  15   0.0000       0.119765         3.2590
  16   0.0000       0.309583         8.4242
  17   0.0000       0.552519        15.0348
  18   0.0000       0.610269        16.6063
  19   0.0000       0.638536        17.3754

MULLIKEN ATOMIC CHARGES
-----------------------
   0 C :    0.122112
   1 O :   -0.351394
   2 C :   -0.190434
   3 C :   -0.176827
   4 H :    0.143286
   5 H :    0.152153
   6 H :    0.163292
   7 H :    0.137812
Sum of atomic charges:    0.0000000

LOEWDIN ATOMIC CHARGES
----------------------
   0 C :    0.125395
   1 O :   -0.267451
   2 C :   -0.149071
   3 C :   -0.080385
   4 H :    0.068928
   5 H :    0.101531
   6 H :    0.110516
   7 H :    0.090536

  Mayer bond orders larger than 0.100000
B(  0-C ,  1-O ) :   1.8635 B(  0-C ,  2-C ) :   1.0770 B(  0-C ,  4-H ) :   0.9429
B(  2-C ,  3-C ) :   1.8970 B(  2-C ,  5-H ) :   0.9573 B(  3-C ,  6-H ) :   0.9592
B(  3-C ,  7-H ) :   0.9678

-----------------------------------------------------------------------------
         ABSORPTION SPECTRUM VIA TRANSITION ELECTRIC DIPOLE MOMENTS
-----------------------------------------------------------------------------
State   Energy    Wavelength  fosc         T2        TX        TY        TZ
        (cm-1)      (nm)                 (au**2)    (au)      (au)      (au)
-----------------------------------------------------------------------------
   1   30505.5    327.8   0.000024889   0.00027  -0.00263  -0.00133  -0.01612

Dispersion correction           -0.026111817
FINAL SINGLE POINT ENERGY      -189.321015482018

DIPOLE MOMENT
-------------
                                X             Y             Z
Electronic contribution:     -1.93199      -1.41864       0.08291
Nuclear contribution   :      2.41604       2.28734      -0.12388
                        -----------------------------------------
Total Dipole Moment    :      0.48405       0.86870      -0.04097
                        -----------------------------------------
Magnitude (a.u.)       :      0.99530
Magnitude (Debye)      :      2.52986

Rotational constants in cm-1:     0.708134     0.233379     0.175758
Rotational constants in MHz : 21229.334049  6996.516784  5269.077321

                             ****ORCA TERMINATED NORMALLY****
TOTAL RUN TIME: 0 days 0 hours 0 minutes 9 seconds 770 msec
