                         Program Version 5.0.3 -  RELEASE  -
|  1> ! B3LYP cc-pVDZ
|  2> !TightSCF
|  3> %scf
|  4>  ConvForced true
|  5>  convergence tight
|  6>  MaxIter 500
|  7> end
|  8>
|  9> %tddft
| 10>  nroots 1
| 11> end
| 12>
| 13> # 	27350
| 14> * xyz 0 1
| 15> 		C   -0.617062  -0.417976  -0.063222
| 16> 		O   -0.528715  -1.615023   0.030233
| 17> 		C    0.617599   0.436381   0.124579
| 18> 		C    1.814323  -0.181011  -0.058946
| 19> 		H   -1.643689   0.035117  -0.303684
| 20> 		H    0.686584   1.556810  -0.134685
| 21> 		H    1.987286  -1.208539  -0.023566
| 22> 		H    2.715750   0.447196  -0.049415
| 23> *
| 24>
| 25>                          ****END OF INPUT****

CARTESIAN COORDINATES (ANGSTROEM)
---------------------------------
  C     -0.617062   -0.417976   -0.063222
  O     -0.528715   -1.615023    0.030233
  C      0.617599    0.436381    0.124579
  C      1.814323   -0.181011   -0.058946
  H     -1.643689    0.035117   -0.303684
  H      0.686584    1.556810   -0.134685
  H      1.987286   -1.208539   -0.023566
  H      2.715750    0.447196   -0.049415

 Total Charge           Charge          ....    0
 Multiplicity           Mult            ....    1
 Number of Electrons    NEL             ....   30
 Basis Dimension        Dim             ....   76

ORBITAL ENERGIES
----------------

  NO   OCC          E(Eh)            E(eV)
   0   2.0000     -19.137427      -520.7559
   1   2.0000     -10.281804      -279.7821
   2   2.0000     -10.212296      -277.8907
   3   2.0000     -10.210281      -277.8359
   4   2.0000      -1.051753       -28.6197
   5   2.0000      -0.786835       -21.4109
   6   2.0000      -0.644201       -17.5296
   7   2.0000      -0.544795       -14.8246
   8   2.0000      -0.506203       -13.7745
   9   2.0000      -0.443632       -12.0718
  10   2.0000      -0.416261       -11.3270
  11   2.0000      -0.398590       -10.8462
  12   2.0000      -0.378364       -10.2958
  13   2.0000      -0.284984        -7.7548
  14   2.0000      -0.256677        -6.9845
  15   0.0000      -0.067891        -1.8474
  16   0.0000       0.041737         1.1357
  17   0.0000       0.064256         1.7485
  18   0.0000       0.093804         2.5525
  19   0.0000       0.114580         3.1179

MULLIKEN ATOMIC CHARGES
-----------------------
   0 C :    0.170516
   1 O :   -0.186766
   2 C :   -0.132004
   3 C :    0.074924
   4 H :   -0.004393
   5 H :    0.020693
   6 H :    0.026936
   7 H :    0.030095
Sum of atomic charges:    0.0000000

LOEWDIN ATOMIC CHARGES
----------------------
   0 C :   -0.035016
   1 O :   -0.001358
   2 C :   -0.094632
   3 C :    0.040532
   4 H :    0.001262
   5 H :    0.041277
   6 H :    0.015137
   7 H :    0.032798

  Mayer bond orders larger than 0.100000
B(  0-C ,  1-O ) :   2.1824 B(  0-C ,  2-C ) :   1.0044 B(  0-C ,  4-H ) :   0.9188
B(  2-C ,  3-C ) :   1.9570 B(  2-C ,  5-H ) :   0.9288 B(  3-C ,  6-H ) :   0.9534
B(  3-C ,  7-H ) :   0.9490

-----------------------------------------------------------------------------
         ABSORPTION SPECTRUM VIA TRANSITION ELECTRIC DIPOLE MOMENTS
-----------------------------------------------------------------------------
State   Energy    Wavelength  fosc         T2        TX        TY        TZ
        (cm-1)      (nm)                 (au**2)    (au)      (au)      (au)
-----------------------------------------------------------------------------
   1   28828.9    346.9   0.001356163   0.01549   0.11814   0.03333  -0.02049

FINAL SINGLE POINT ENERGY      -191.661795370192

DIPOLE MOMENT
-------------
                                X             Y             Z
Electronic contribution:     -2.00917      -1.76486       0.33002
Nuclear contribution   :      2.35638       2.56669      -0.47910
                        -----------------------------------------
Total Dipole Moment    :      0.34721       0.80184      -0.14908
                        -----------------------------------------
Magnitude (a.u.)       :      0.88641
Magnitude (Debye)      :      2.25308

Rotational constants in cm-1:     0.720704     0.217124     0.168204
Rotational constants in MHz : 21606.170766  6509.210169  5042.617525

                             ****ORCA TERMINATED NORMALLY****
TOTAL RUN TIME: 0 days 0 hours 3 minutes 22 seconds 14 msec
