                         Program Version 5.0.3 -  RELEASE  -
|  1> ! HF-3c
|  2> !TightSCF
|  3> %scf
|  4>  ConvForced true
|  5>  convergence tight
|  6>  MaxIter 500
|  7> end
|  8>
|  9> %tddft
| 10>  nroots 1
| 11> end
| 12>
| 13> # 	23561
| 14> * xyz 0 1
| 15> 		C   -0.548517  -0.453148  -0.044989
| 16> 		O   -0.621482  -1.648669   0.018938
| 17> 		C    0.648498   0.415140   0.026160
| 18> 		C    1.819055  -0.062517  -0.003811
| 19> 		H   -1.501013  -0.025917  -0.077890
| 20> 		H    0.575997   1.454336   0.204240
| 21> 		H    1.942134  -1.094243   0.071914
| 22> 		H    2.941169   0.247018  -0.232196
| 23> *
| 24>
| 25>                          ****END OF INPUT****

CARTESIAN COORDINATES (ANGSTROEM)
---------------------------------
  C     -0.548517   -0.453148   -0.044989
  O     -0.621482   -1.648669    0.018938
  C      0.648498    0.415140    0.026160
  C      1.819055   -0.062517   -0.003811
  H     -1.501013   -0.025917   -0.077890
  H      0.575997    1.454336    0.204240
  H      1.942134   -1.094243    0.071914
  H      2.941169    0.247018   -0.232196

 Total Charge           Charge          ....    0
 Multiplicity           Mult            ....    1
 Number of Electrons    NEL             ....   30
 Basis Dimension        Dim             ....   24

ORBITAL ENERGIES
----------------

  NO   OCC          E(Eh)            E(eV)
   0   2.0000     -20.369203      -554.2742
   1   2.0000     -11.301886      -307.5400
   2   2.0000     -11.199388      -304.7508
   3   2.0000     -11.193803      -304.5989
   4   2.0000      -1.413777       -38.4708
   5   2.0000      -1.104633       -30.0586
   6   2.0000      -0.892838       -24.2954
   7   2.0000      -0.771079       -20.9821
   8   2.0000      -0.719184       -19.5700
   9   2.0000      -0.634816       -17.2742
  10   2.0000      -0.594596       -16.1798
  11   2.0000      -0.554487       -15.0884
  12   2.0000      -0.510971       -13.9042
  13   2.0000      -0.423231       -11.5167
  14   2.0000      -0.404032       -10.9943
  15   0.0000       0.139050         3.7837
  16   0.0000       0.309788         8.4298
  17   0.0000       0.483834        13.1658
  18   0.0000       0.613663        16.6986
  19   0.0000       0.703826        19.1521

MULLIKEN ATOMIC CHARGES
-----------------------
   0 C :    0.160999
   1 O :   -0.347914
   2 C :   -0.202165
   3 C :   -0.211651
   4 H :    0.140993
   5 H :    0.152900
   6 H :    0.143546
   7 H :    0.163291
Sum of atomic charges:    0.0000000

LOEWDIN ATOMIC CHARGES
----------------------
   0 C :    0.146239
   1 O :   -0.251563
   2 C :   -0.151656
   3 C :   -0.114160
   4 H :    0.070778
   5 H :    0.096814
   6 H :    0.086994
   7 H :    0.116554

  Mayer bond orders larger than 0.100000
B(  0-C ,  1-O ) :   1.9132 B(  0-C ,  2-C ) :   1.0107 B(  0-C ,  4-H ) :   0.9351
B(  2-C ,  3-C ) :   1.9639 B(  2-C ,  5-H ) :   0.9537 B(  3-C ,  6-H ) :   0.9590
B(  3-C ,  7-H ) :   0.9569

-----------------------------------------------------------------------------
         ABSORPTION SPECTRUM VIA TRANSITION ELECTRIC DIPOLE MOMENTS
-----------------------------------------------------------------------------
State   Energy    Wavelength  fosc         T2        TX        TY        TZ
        (cm-1)      (nm)                 (au**2)    (au)      (au)      (au)
-----------------------------------------------------------------------------
   1   32875.9    304.2   0.000030564   0.00031  -0.01242  -0.00140   0.01225

Dispersion correction           -0.025788707
FINAL SINGLE POINT ENERGY      -189.301390327901

DIPOLE MOMENT
-------------
                                X             Y             Z
Electronic contribution:     -2.06577      -1.48787      -0.00779
Nuclear contribution   :      2.55550       2.33518      -0.03134
                        -----------------------------------------
Total Dipole Moment    :      0.48973       0.84731      -0.03913
                        -----------------------------------------
Magnitude (a.u.)       :      0.97944
Magnitude (Debye)      :      2.48953

Rotational constants in cm-1:     0.847627     0.202188     0.163710
Rotational constants in MHz : 25411.217323  6061.457426  4907.916348

                             ****ORCA TERMINATED NORMALLY****
TOTAL RUN TIME: 0 days 0 hours 0 minutes 11 seconds 318 msec
