                         Program Version 5.0.3 -  RELEASE  -
|  1> ! HF-3c
|  2> !TightSCF
|  3> %scf
|  4>  ConvForced true
|  5>  convergence tight
|  6>  MaxIter 500
|  7> end
|  8>
|  9> %tddft
| 10>  nroots 1
| 11> end
| 12>
| 13> # 	5975
| 14> * xyz 0 1
| 15> 		C   -1.275834  -0.283937  -0.061371
| 16> 		O   -2.030761  -0.600451  -0.826799
| 17> 		C   -0.055481   0.446894  -0.327392
| 18> 		C    1.210806   0.017335   0.128817
| 19> 		H   -1.134363  -0.782722   0.908606
| 20> 		H   -0.182159   1.264901  -1.030909
| 21> 		H    1.283104  -0.835227   0.979016
| 22> 		H    2.219972   0.780053   0.199497
| 23> *
| 24>
| 25>                          ****END OF INPUT****

CARTESIAN COORDINATES (ANGSTROEM)
---------------------------------
  C     -1.275834   -0.283937   -0.061371
  O     -2.030761   -0.600451   -0.826799
  C     -0.055481    0.446894   -0.327392
  C      1.210806    0.017335    0.128817
  H     -1.134363   -0.782722    0.908606
  H     -0.182159    1.264901   -1.030909
  H      1.283104   -0.835227    0.979016
  H      2.219972    0.780053    0.199497

 Total Charge           Charge          ....    0
 Multiplicity           Mult            ....    1
 Number of Electrons    NEL             ....   30
 Basis Dimension        Dim             ....   24

ORBITAL ENERGIES
----------------

  NO   OCC          E(Eh)            E(eV)
   0   2.0000     -20.401709      -555.1587
   1   2.0000     -11.321834      -308.0828
   2   2.0000     -11.178511      -304.1827
   3   2.0000     -11.171736      -303.9984
   4   2.0000      -1.478576       -40.2341
   5   2.0000      -1.053455       -28.6660
   6   2.0000      -0.860494       -23.4152
   7   2.0000      -0.777828       -21.1658
   8   2.0000      -0.664108       -18.0713
   9   2.0000      -0.642107       -17.4726
  10   2.0000      -0.598351       -16.2820
  11   2.0000      -0.550915       -14.9912
  12   2.0000      -0.508880       -13.8473
  13   2.0000      -0.400170       -10.8892
  14   2.0000      -0.370949       -10.0940
  15   0.0000       0.133728         3.6389
  16   0.0000       0.288149         7.8409
  17   0.0000       0.483186        13.1482
  18   0.0000       0.532024        14.4771
  19   0.0000       0.659682        17.9509

MULLIKEN ATOMIC CHARGES
-----------------------
   0 C :    0.189719
   1 O :   -0.359127
   2 C :   -0.182137
   3 C :   -0.190681
   4 H :    0.123160
   5 H :    0.144028
   6 H :    0.128134
   7 H :    0.146904
Sum of atomic charges:    0.0000000

LOEWDIN ATOMIC CHARGES
----------------------
   0 C :    0.148151
   1 O :   -0.229785
   2 C :   -0.146836
   3 C :   -0.119195
   4 H :    0.056603
   5 H :    0.092303
   6 H :    0.088918
   7 H :    0.109841

  Mayer bond orders larger than 0.100000
B(  0-C ,  1-O ) :   1.9230 B(  0-C ,  2-C ) :   1.0079 B(  0-C ,  4-H ) :   0.9066
B(  2-C ,  3-C ) :   1.9431 B(  2-C ,  5-H ) :   0.9569 B(  3-C ,  6-H ) :   0.9610
B(  3-C ,  7-H ) :   0.9563

-----------------------------------------------------------------------------
         ABSORPTION SPECTRUM VIA TRANSITION ELECTRIC DIPOLE MOMENTS
-----------------------------------------------------------------------------
State   Energy    Wavelength  fosc         T2        TX        TY        TZ
        (cm-1)      (nm)                 (au**2)    (au)      (au)      (au)
-----------------------------------------------------------------------------
   1   36015.4    277.7   0.000572484   0.00523   0.02420   0.05000  -0.04634

Dispersion correction           -0.025219784
FINAL SINGLE POINT ENERGY      -189.249040982739

DIPOLE MOMENT
-------------
                                X             Y             Z
Electronic contribution:     -3.22191      -0.58519      -1.33077
Nuclear contribution   :      4.15383       0.86284       2.00587
                        -----------------------------------------
Total Dipole Moment    :      0.93192       0.27765       0.67510
                        -----------------------------------------
Magnitude (a.u.)       :      1.18377
Magnitude (Debye)      :      3.00891

Rotational constants in cm-1:     1.333940     0.158346     0.148805
Rotational constants in MHz : 39990.516300  4747.102361  4461.066026

                             ****ORCA TERMINATED NORMALLY****
TOTAL RUN TIME: 0 days 0 hours 0 minutes 10 seconds 484 msec
