                         Program Version 5.0.3 -  RELEASE  -
|  1> ! HF-3c
|  2> !TightSCF
|  3> %scf
|  4>  ConvForced true
|  5>  convergence tight
|  6>  MaxIter 500
|  7> end
|  8>
|  9> %tddft
| 10>  nroots 1
| 11> end
| 12>
| 13> # 	2884
| 14> * xyz 0 1
| 15> 		C   -1.229564  -0.435398  -0.043440
| 16> 		O   -1.317156  -1.487181   0.398694
| 17> 		C    0.038588   0.458689   0.127459
| 18> 		C    1.234982   0.024740  -0.101662
| 19> 		H   -2.174593   0.240116  -0.496569
| 20> 		H   -0.167757   1.601346   0.352707
| 21> 		H    1.447809  -1.025311  -0.250489
| 22> 		H    2.159240   0.656799   0.002839
| 23> *
| 24>
| 25>                          ****END OF INPUT****

CARTESIAN COORDINATES (ANGSTROEM)
---------------------------------
  C     -1.229564   -0.435398   -0.043440
  O     -1.317156   -1.487181    0.398694
  C      0.038588    0.458689    0.127459
  C      1.234982    0.024740   -0.101662
  H     -2.174593    0.240116   -0.496569
  H     -0.167757    1.601346    0.352707
  H      1.447809   -1.025311   -0.250489
  H      2.159240    0.656799    0.002839

 Total Charge           Charge          ....    0
 Multiplicity           Mult            ....    1
 Number of Electrons    NEL             ....   30
 Basis Dimension        Dim             ....   24

ORBITAL ENERGIES
----------------

  NO   OCC          E(Eh)            E(eV)
   0   2.0000     -20.398623      -555.0747
   1   2.0000     -11.315219      -307.9028
   2   2.0000     -11.180427      -304.2349
   3   2.0000     -11.175945      -304.1129
   4   2.0000      -1.458347       -39.6836
   5   2.0000      -1.068974       -29.0883
   6   2.0000      -0.857546       -23.3350
   7   2.0000      -0.728467       -19.8226
   8   2.0000      -0.689978       -18.7752
   9   2.0000      -0.621366       -16.9082
  10   2.0000      -0.610830       -16.6215
  11   2.0000      -0.558076       -15.1860
  12   2.0000      -0.517851       -14.0914
  13   2.0000      -0.406357       -11.0575
  14   2.0000      -0.388745       -10.5783
  15   0.0000       0.173588         4.7236
  16   0.0000       0.293424         7.9845
  17   0.0000       0.464382        12.6365
  18   0.0000       0.553871        15.0716
  19   0.0000       0.575098        15.6492

MULLIKEN ATOMIC CHARGES
-----------------------
   0 C :    0.216194
   1 O :   -0.364958
   2 C :   -0.158719
   3 C :   -0.248391
   4 H :    0.127858
   5 H :    0.140981
   6 H :    0.145246
   7 H :    0.141790
Sum of atomic charges:   -0.0000000

LOEWDIN ATOMIC CHARGES
----------------------
   0 C :    0.161351
   1 O :   -0.240737
   2 C :   -0.125416
   3 C :   -0.155542
   4 H :    0.074257
   5 H :    0.097437
   6 H :    0.093725
   7 H :    0.094925

  Mayer bond orders larger than 0.100000
B(  0-C ,  1-O ) :   1.9595 B(  0-C ,  2-C ) :   0.9560 B(  0-C ,  4-H ) :   0.8909
B(  2-C ,  3-C ) :   1.9987 B(  2-C ,  5-H ) :   0.9510 B(  3-C ,  6-H ) :   0.9595
B(  3-C ,  7-H ) :   0.9595

-----------------------------------------------------------------------------
         ABSORPTION SPECTRUM VIA TRANSITION ELECTRIC DIPOLE MOMENTS
-----------------------------------------------------------------------------
State   Energy    Wavelength  fosc         T2        TX        TY        TZ
        (cm-1)      (nm)                 (au**2)    (au)      (au)      (au)
-----------------------------------------------------------------------------
   1   37898.9    263.9   0.001208143   0.01049  -0.09972  -0.00732  -0.02228

Dispersion correction           -0.024842657
FINAL SINGLE POINT ENERGY      -189.290796142680

DIPOLE MOMENT
-------------
                                X             Y             Z
Electronic contribution:     -2.26269      -1.92474       0.42697
Nuclear contribution   :      2.46196       2.82027      -0.74930
                        -----------------------------------------
Total Dipole Moment    :      0.19927       0.89552      -0.32233
                        -----------------------------------------
Magnitude (a.u.)       :      0.97240
Magnitude (Debye)      :      2.47165

Rotational constants in cm-1:     0.837932     0.188372     0.158825
Rotational constants in MHz : 25120.579895  5647.247538  4761.457313

                             ****ORCA TERMINATED NORMALLY****
TOTAL RUN TIME: 0 days 0 hours 0 minutes 15 seconds 265 msec
