                         Program Version 5.0.3 -  RELEASE  -
|  1> ! HF-3c
|  2> !TightSCF
|  3> %scf
|  4>  ConvForced true
|  5>  convergence tight
|  6>  MaxIter 500
|  7> end
|  8>
|  9> %tddft
| 10>  nroots 1
| 11> end
| 12>
| 13> # 	31716
| 14> * xyz 0 1
| 15> 		C   -0.554935  -0.421845  -0.069992
| 16> 		O   -0.642500  -1.685531   0.058844
| 17> 		C    0.696846   0.447534   0.030735
| 18> 		C    1.843958  -0.085868  -0.021869
| 19> 		H   -1.612355  -0.147134  -0.302196
| 20> 		H    0.342481   1.429910   0.341422
| 21> 		H    2.112930  -1.130153  -0.382027
| 22> 		H    2.677022   0.551239   0.172208
| 23> *
| 24>
| 25>                          ****END OF INPUT****

CARTESIAN COORDINATES (ANGSTROEM)
---------------------------------
  C     -0.554935   -0.421845   -0.069992
  O     -0.642500   -1.685531    0.058844
  C      0.696846    0.447534    0.030735
  C      1.843958   -0.085868   -0.021869
  H     -1.612355   -0.147134   -0.302196
  H      0.342481    1.429910    0.341422
  H      2.112930   -1.130153   -0.382027
  H      2.677022    0.551239    0.172208

 Total Charge           Charge          ....    0
 Multiplicity           Mult            ....    1
 Number of Electrons    NEL             ....   30
 Basis Dimension        Dim             ....   24

ORBITAL ENERGIES
----------------

  NO   OCC          E(Eh)            E(eV)
   0   2.0000     -20.331094      -553.2372
   1   2.0000     -11.262113      -306.4577
   2   2.0000     -11.206888      -304.9549
   3   2.0000     -11.201135      -304.7984
   4   2.0000      -1.349141       -36.7120
   5   2.0000      -1.098667       -29.8963
   6   2.0000      -0.879532       -23.9333
   7   2.0000      -0.744996       -20.2724
   8   2.0000      -0.693368       -18.8675
   9   2.0000      -0.632634       -17.2149
  10   2.0000      -0.575867       -15.6701
  11   2.0000      -0.516572       -14.0566
  12   2.0000      -0.502264       -13.6673
  13   2.0000      -0.410417       -11.1680
  14   2.0000      -0.398663       -10.8482
  15   0.0000       0.142655         3.8818
  16   0.0000       0.296692         8.0734
  17   0.0000       0.467867        12.7313
  18   0.0000       0.594769        16.1845
  19   0.0000       0.637779        17.3548

MULLIKEN ATOMIC CHARGES
-----------------------
   0 C :    0.131303
   1 O :   -0.348106
   2 C :   -0.175328
   3 C :   -0.228531
   4 H :    0.147086
   5 H :    0.155997
   6 H :    0.170645
   7 H :    0.146934
Sum of atomic charges:   -0.0000000

LOEWDIN ATOMIC CHARGES
----------------------
   0 C :    0.124342
   1 O :   -0.272478
   2 C :   -0.121431
   3 C :   -0.131471
   4 H :    0.086290
   5 H :    0.101797
   6 H :    0.118672
   7 H :    0.094278

  Mayer bond orders larger than 0.100000
B(  0-C ,  1-O ) :   1.9081 B(  0-C ,  2-C ) :   1.0023 B(  0-C ,  4-H ) :   0.9438
B(  2-C ,  3-C ) :   1.9805 B(  2-C ,  5-H ) :   0.9511 B(  3-C ,  6-H ) :   0.9515
B(  3-C ,  7-H ) :   0.9581

-----------------------------------------------------------------------------
         ABSORPTION SPECTRUM VIA TRANSITION ELECTRIC DIPOLE MOMENTS
-----------------------------------------------------------------------------
State   Energy    Wavelength  fosc         T2        TX        TY        TZ
        (cm-1)      (nm)                 (au**2)    (au)      (au)      (au)
-----------------------------------------------------------------------------
   1   28008.1    357.0   0.000045829   0.00054   0.01041   0.00576   0.01993

Dispersion correction           -0.025122943
FINAL SINGLE POINT ENERGY      -189.332139793624

DIPOLE MOMENT
-------------
                                X             Y             Z
Electronic contribution:     -1.78857      -1.51671       0.07121
Nuclear contribution   :      2.14241       2.44848      -0.16155
                        -----------------------------------------
Total Dipole Moment    :      0.35385       0.93177      -0.09034
                        -----------------------------------------
Magnitude (a.u.)       :      1.00078
Magnitude (Debye)      :      2.54378

Rotational constants in cm-1:     0.787887     0.194602     0.157566
Rotational constants in MHz : 23620.251365  5834.014228  4723.714286

                             ****ORCA TERMINATED NORMALLY****
TOTAL RUN TIME: 0 days 0 hours 0 minutes 15 seconds 366 msec
