                         Program Version 5.0.3 -  RELEASE  -
|  1> ! HF-3c
|  2> !TightSCF
|  3> %scf
|  4>  ConvForced true
|  5>  convergence tight
|  6>  MaxIter 500
|  7> end
|  8>
|  9> %tddft
| 10>  nroots 1
| 11> end
| 12>
| 13> # 	19730
| 14> * xyz 0 1
| 15> 		C   -1.185432  -0.310381  -0.146203
| 16> 		O   -1.656647  -0.912180  -1.003920
| 17> 		C    0.087215   0.522880  -0.303161
| 18> 		C    1.218004   0.079692   0.210008
| 19> 		H   -1.610154  -0.402887   1.003721
| 20> 		H    0.034201   1.224422  -0.898951
| 21> 		H    1.056578  -0.802242   0.958974
| 22> 		H    2.127207   0.614604   0.108110
| 23> *
| 24>
| 25>                          ****END OF INPUT****

CARTESIAN COORDINATES (ANGSTROEM)
---------------------------------
  C     -1.185432   -0.310381   -0.146203
  O     -1.656647   -0.912180   -1.003920
  C      0.087215    0.522880   -0.303161
  C      1.218004    0.079692    0.210008
  H     -1.610154   -0.402887    1.003721
  H      0.034201    1.224422   -0.898951
  H      1.056578   -0.802242    0.958974
  H      2.127207    0.614604    0.108110

 Total Charge           Charge          ....    0
 Multiplicity           Mult            ....    1
 Number of Electrons    NEL             ....   30
 Basis Dimension        Dim             ....   24

ORBITAL ENERGIES
----------------

  NO   OCC          E(Eh)            E(eV)
   0   2.0000     -20.397015      -555.0310
   1   2.0000     -11.315503      -307.9105
   2   2.0000     -11.191494      -304.5360
   3   2.0000     -11.189588      -304.4842
   4   2.0000      -1.456850       -39.6429
   5   2.0000      -1.091602       -29.7040
   6   2.0000      -0.866700       -23.5841
   7   2.0000      -0.781618       -21.2689
   8   2.0000      -0.691744       -18.8233
   9   2.0000      -0.654404       -17.8072
  10   2.0000      -0.609462       -16.5843
  11   2.0000      -0.557316       -15.1653
  12   2.0000      -0.543322       -14.7845
  13   2.0000      -0.413903       -11.2629
  14   2.0000      -0.396740       -10.7958
  15   0.0000       0.183545         4.9945
  16   0.0000       0.246560         6.7092
  17   0.0000       0.484934        13.1957
  18   0.0000       0.570679        15.5290
  19   0.0000       0.627838        17.0843

MULLIKEN ATOMIC CHARGES
-----------------------
   0 C :    0.217011
   1 O :   -0.360995
   2 C :   -0.198368
   3 C :   -0.224133
   4 H :    0.127035
   5 H :    0.144944
   6 H :    0.144785
   7 H :    0.149720
Sum of atomic charges:    0.0000000

LOEWDIN ATOMIC CHARGES
----------------------
   0 C :    0.165943
   1 O :   -0.240369
   2 C :   -0.141816
   3 C :   -0.132656
   4 H :    0.071878
   5 H :    0.079794
   6 H :    0.101230
   7 H :    0.095995

  Mayer bond orders larger than 0.100000
B(  0-C ,  1-O ) :   1.9651 B(  0-C ,  2-C ) :   0.9587 B(  0-C ,  4-H ) :   0.8956
B(  2-C ,  3-C ) :   1.9951 B(  2-C ,  5-H ) :   0.9614 B(  3-C ,  6-H ) :   0.9606
B(  3-C ,  7-H ) :   0.9625

-----------------------------------------------------------------------------
         ABSORPTION SPECTRUM VIA TRANSITION ELECTRIC DIPOLE MOMENTS
-----------------------------------------------------------------------------
State   Energy    Wavelength  fosc         T2        TX        TY        TZ
        (cm-1)      (nm)                 (au**2)    (au)      (au)      (au)
-----------------------------------------------------------------------------
   1   38871.8    257.3   0.000139010   0.00118  -0.00974  -0.01953   0.02648

Dispersion correction           -0.025634793
FINAL SINGLE POINT ENERGY      -189.258474179460

DIPOLE MOMENT
-------------
                                X             Y             Z
Electronic contribution:     -2.54110      -0.90509      -1.51062
Nuclear contribution   :      3.05945       1.28315       2.27772
                        -----------------------------------------
Total Dipole Moment    :      0.51835       0.37807       0.76710
                        -----------------------------------------
Magnitude (a.u.)       :      1.00003
Magnitude (Debye)      :      2.54187

Rotational constants in cm-1:     1.092786     0.165180     0.161468
Rotational constants in MHz : 32760.886414  4951.980362  4840.677105

                             ****ORCA TERMINATED NORMALLY****
TOTAL RUN TIME: 0 days 0 hours 0 minutes 12 seconds 235 msec
