                         Program Version 5.0.3 -  RELEASE  -
|  1> ! B3LYP cc-pVDZ
|  2> !TightSCF
|  3> %scf
|  4>  ConvForced true
|  5>  convergence tight
|  6>  MaxIter 500
|  7> end
|  8>
|  9> %tddft
| 10>  nroots 1
| 11> end
| 12>
| 13> # 	30083
| 14> * xyz 0 1
| 15> 		C   -0.640266  -0.426167  -0.050172
| 16> 		O   -0.544057  -1.652145   0.040843
| 17> 		C    0.628125   0.427637   0.035498
| 18> 		C    1.866590  -0.124359  -0.006615
| 19> 		H   -1.619766   0.195618  -0.259198
| 20> 		H    0.492768   1.538491   0.175704
| 21> 		H    1.775286  -1.203090  -0.332415
| 22> 		H    2.827466   0.406147   0.040469
| 23> *
| 24>
| 25>                          ****END OF INPUT****

CARTESIAN COORDINATES (ANGSTROEM)
---------------------------------
  C     -0.640266   -0.426167   -0.050172
  O     -0.544057   -1.652145    0.040843
  C      0.628125    0.427637    0.035498
  C      1.866590   -0.124359   -0.006615
  H     -1.619766    0.195618   -0.259198
  H      0.492768    1.538491    0.175704
  H      1.775286   -1.203090   -0.332415
  H      2.827466    0.406147    0.040469

 Total Charge           Charge          ....    0
 Multiplicity           Mult            ....    1
 Number of Electrons    NEL             ....   30
 Basis Dimension        Dim             ....   76

ORBITAL ENERGIES
----------------

  NO   OCC          E(Eh)            E(eV)
   0   2.0000     -19.147280      -521.0240
   1   2.0000     -10.291150      -280.0364
   2   2.0000     -10.215363      -277.9741
   3   2.0000     -10.211022      -277.8560
   4   2.0000      -1.040351       -28.3094
   5   2.0000      -0.782105       -21.2822
   6   2.0000      -0.646183       -17.5835
   7   2.0000      -0.533927       -14.5289
   8   2.0000      -0.498546       -13.5661
   9   2.0000      -0.441667       -12.0184
  10   2.0000      -0.428794       -11.6681
  11   2.0000      -0.392299       -10.6750
  12   2.0000      -0.368634       -10.0310
  13   2.0000      -0.282831        -7.6962
  14   2.0000      -0.261923        -7.1273
  15   0.0000      -0.072374        -1.9694
  16   0.0000       0.045365         1.2344
  17   0.0000       0.064720         1.7611
  18   0.0000       0.085982         2.3397
  19   0.0000       0.111727         3.0402

MULLIKEN ATOMIC CHARGES
-----------------------
   0 C :    0.170966
   1 O :   -0.201387
   2 C :   -0.136092
   3 C :    0.060053
   4 H :    0.013871
   5 H :    0.000453
   6 H :    0.049941
   7 H :    0.042195
Sum of atomic charges:   -0.0000000

LOEWDIN ATOMIC CHARGES
----------------------
   0 C :   -0.016594
   1 O :   -0.019843
   2 C :   -0.085956
   3 C :    0.009973
   4 H :    0.009035
   5 H :    0.026494
   6 H :    0.043231
   7 H :    0.033662

  Mayer bond orders larger than 0.100000
B(  0-C ,  1-O ) :   2.1535 B(  0-C ,  2-C ) :   1.0236 B(  0-C ,  4-H ) :   0.9023
B(  2-C ,  3-C ) :   1.9601 B(  2-C ,  5-H ) :   0.9445 B(  3-C ,  6-H ) :   0.9211
B(  3-C ,  7-H ) :   0.9463

-----------------------------------------------------------------------------
         ABSORPTION SPECTRUM VIA TRANSITION ELECTRIC DIPOLE MOMENTS
-----------------------------------------------------------------------------
State   Energy    Wavelength  fosc         T2        TX        TY        TZ
        (cm-1)      (nm)                 (au**2)    (au)      (au)      (au)
-----------------------------------------------------------------------------
   1   28468.1    351.3   0.000338938   0.00392   0.05472  -0.00848   0.02922

FINAL SINGLE POINT ENERGY      -191.668722707172

DIPOLE MOMENT
-------------
                                X             Y             Z
Electronic contribution:     -1.81889      -1.78231       0.24923
Nuclear contribution   :      2.10552       2.66677      -0.35292
                        -----------------------------------------
Total Dipole Moment    :      0.28663       0.88446      -0.10369
                        -----------------------------------------
Magnitude (a.u.)       :      0.93551
Magnitude (Debye)      :      2.37788

Rotational constants in cm-1:     0.711039     0.207230     0.161335
Rotational constants in MHz : 21316.421202  6212.589217  4836.708333

                             ****ORCA TERMINATED NORMALLY****
TOTAL RUN TIME: 0 days 0 hours 3 minutes 21 seconds 187 msec
