                         Program Version 5.0.3 -  RELEASE  -
|  1> ! HF-3c
|  2> !TightSCF
|  3> %scf
|  4>  ConvForced true
|  5>  convergence tight
|  6>  MaxIter 500
|  7> end
|  8>
|  9> %tddft
| 10>  nroots 1
| 11> end
| 12>
| 13> # 	32592
| 14> * xyz 0 1
| 15> 		C   -0.540966  -0.442566   0.039589
| 16> 		O   -0.591717  -1.632258  -0.027947
| 17> 		C    0.664652   0.425961  -0.003969
| 18> 		C    1.789831  -0.113827   0.008726
| 19> 		H   -1.612893   0.030870   0.065477
| 20> 		H    0.637348   1.439265  -0.217938
| 21> 		H    1.819957  -1.245111   0.119100
| 22> 		H    2.740627   0.455442  -0.067703
| 23> *
| 24>
| 25>                          ****END OF INPUT****

CARTESIAN COORDINATES (ANGSTROEM)
---------------------------------
  C     -0.540966   -0.442566    0.039589
  O     -0.591717   -1.632258   -0.027947
  C      0.664652    0.425961   -0.003969
  C      1.789831   -0.113827    0.008726
  H     -1.612893    0.030870    0.065477
  H      0.637348    1.439265   -0.217938
  H      1.819957   -1.245111    0.119100
  H      2.740627    0.455442   -0.067703

 Total Charge           Charge          ....    0
 Multiplicity           Mult            ....    1
 Number of Electrons    NEL             ....   30
 Basis Dimension        Dim             ....   24

ORBITAL ENERGIES
----------------

  NO   OCC          E(Eh)            E(eV)
   0   2.0000     -20.365850      -554.1829
   1   2.0000     -11.297709      -307.4263
   2   2.0000     -11.196073      -304.6606
   3   2.0000     -11.195214      -304.6373
   4   2.0000      -1.415180       -38.5090
   5   2.0000      -1.114552       -30.3285
   6   2.0000      -0.873191       -23.7607
   7   2.0000      -0.744769       -20.2662
   8   2.0000      -0.720489       -19.6055
   9   2.0000      -0.619243       -16.8505
  10   2.0000      -0.597060       -16.2468
  11   2.0000      -0.552023       -15.0213
  12   2.0000      -0.524358       -14.2685
  13   2.0000      -0.422829       -11.5058
  14   2.0000      -0.405712       -11.0400
  15   0.0000       0.151423         4.1204
  16   0.0000       0.324979         8.8431
  17   0.0000       0.514157        13.9909
  18   0.0000       0.593690        16.1551
  19   0.0000       0.639466        17.4008

MULLIKEN ATOMIC CHARGES
-----------------------
   0 C :    0.186401
   1 O :   -0.363599
   2 C :   -0.211773
   3 C :   -0.208037
   4 H :    0.131732
   5 H :    0.152678
   6 H :    0.162579
   7 H :    0.150020
Sum of atomic charges:    0.0000000

LOEWDIN ATOMIC CHARGES
----------------------
   0 C :    0.156354
   1 O :   -0.263831
   2 C :   -0.157424
   3 C :   -0.113466
   4 H :    0.072914
   5 H :    0.094996
   6 H :    0.110776
   7 H :    0.099680

  Mayer bond orders larger than 0.100000
B(  0-C ,  1-O ) :   1.9202 B(  0-C ,  2-C ) :   1.0011 B(  0-C ,  4-H ) :   0.9214
B(  2-C ,  3-C ) :   1.9699 B(  2-C ,  5-H ) :   0.9537 B(  3-C ,  6-H ) :   0.9499
B(  3-C ,  7-H ) :   0.9594

-----------------------------------------------------------------------------
         ABSORPTION SPECTRUM VIA TRANSITION ELECTRIC DIPOLE MOMENTS
-----------------------------------------------------------------------------
State   Energy    Wavelength  fosc         T2        TX        TY        TZ
        (cm-1)      (nm)                 (au**2)    (au)      (au)      (au)
-----------------------------------------------------------------------------
   1   34169.6    292.7   0.000069475   0.00067   0.00170  -0.00147   0.02577

Dispersion correction           -0.026232040
FINAL SINGLE POINT ENERGY      -189.317830969979

DIPOLE MOMENT
-------------
                                X             Y             Z
Electronic contribution:     -1.82803      -1.56344       0.09281
Nuclear contribution   :      2.20351       2.42833      -0.09413
                        -----------------------------------------
Total Dipole Moment    :      0.37548       0.86490      -0.00132
                        -----------------------------------------
Magnitude (a.u.)       :      0.94288
Magnitude (Debye)      :      2.39662

Rotational constants in cm-1:     0.833907     0.211316     0.168943
Rotational constants in MHz : 24999.891645  6335.088850  5064.789725

                             ****ORCA TERMINATED NORMALLY****
TOTAL RUN TIME: 0 days 0 hours 0 minutes 15 seconds 636 msec
