                         Program Version 5.0.3 -  RELEASE  -
|  1> ! HF-3c
|  2> !TightSCF
|  3> %scf
|  4>  ConvForced true
|  5>  convergence tight
|  6>  MaxIter 500
|  7> end
|  8>
|  9> %tddft
| 10>  nroots 1
| 11> end
| 12>
| 13> # 	19275
| 14> * xyz 0 1
| 15> 		C   -1.196308  -0.296837   0.061149
| 16> 		O   -1.922755  -0.698693   0.933074
| 17> 		C    0.024022   0.421668   0.380216
| 18> 		C    1.208396   0.066350  -0.239444
| 19> 		H   -1.330632  -0.619807  -1.005849
| 20> 		H   -0.145024   1.208232   1.053825
| 21> 		H    1.141674  -0.680207  -1.009309
| 22> 		H    2.211115   0.626886  -0.159141
| 23> *
| 24>
| 25>                          ****END OF INPUT****

CARTESIAN COORDINATES (ANGSTROEM)
---------------------------------
  C     -1.196308   -0.296837    0.061149
  O     -1.922755   -0.698693    0.933074
  C      0.024022    0.421668    0.380216
  C      1.208396    0.066350   -0.239444
  H     -1.330632   -0.619807   -1.005849
  H     -0.145024    1.208232    1.053825
  H      1.141674   -0.680207   -1.009309
  H      2.211115    0.626886   -0.159141

 Total Charge           Charge          ....    0
 Multiplicity           Mult            ....    1
 Number of Electrons    NEL             ....   30
 Basis Dimension        Dim             ....   24

ORBITAL ENERGIES
----------------

  NO   OCC          E(Eh)            E(eV)
   0   2.0000     -20.369153      -554.2728
   1   2.0000     -11.297010      -307.4073
   2   2.0000     -11.189851      -304.4913
   3   2.0000     -11.188126      -304.4444
   4   2.0000      -1.409760       -38.3615
   5   2.0000      -1.073306       -29.2061
   6   2.0000      -0.877687       -23.8831
   7   2.0000      -0.781875       -21.2759
   8   2.0000      -0.665672       -18.1139
   9   2.0000      -0.641598       -17.4588
  10   2.0000      -0.593267       -16.1436
  11   2.0000      -0.550732       -14.9862
  12   2.0000      -0.520282       -14.1576
  13   2.0000      -0.412504       -11.2248
  14   2.0000      -0.384704       -10.4683
  15   0.0000       0.138094         3.7577
  16   0.0000       0.265106         7.2139
  17   0.0000       0.562493        15.3062
  18   0.0000       0.614700        16.7268
  19   0.0000       0.639550        17.4030

MULLIKEN ATOMIC CHARGES
-----------------------
   0 C :    0.165116
   1 O :   -0.347771
   2 C :   -0.173460
   3 C :   -0.218903
   4 H :    0.135973
   5 H :    0.153822
   6 H :    0.134763
   7 H :    0.150459
Sum of atomic charges:   -0.0000000

LOEWDIN ATOMIC CHARGES
----------------------
   0 C :    0.145078
   1 O :   -0.251208
   2 C :   -0.125633
   3 C :   -0.128168
   4 H :    0.073745
   5 H :    0.096857
   6 H :    0.085341
   7 H :    0.103988

  Mayer bond orders larger than 0.100000
B(  0-C ,  1-O ) :   1.9161 B(  0-C ,  2-C ) :   1.0229 B(  0-C ,  4-H ) :   0.9193
B(  2-C ,  3-C ) :   1.9541 B(  2-C ,  5-H ) :   0.9564 B(  3-C ,  6-H ) :   0.9674
B(  3-C ,  7-H ) :   0.9629

-----------------------------------------------------------------------------
         ABSORPTION SPECTRUM VIA TRANSITION ELECTRIC DIPOLE MOMENTS
-----------------------------------------------------------------------------
State   Energy    Wavelength  fosc         T2        TX        TY        TZ
        (cm-1)      (nm)                 (au**2)    (au)      (au)      (au)
-----------------------------------------------------------------------------
   1   33275.5    300.5   0.000175840   0.00174   0.00995  -0.01647  -0.03700

Dispersion correction           -0.025501782
FINAL SINGLE POINT ENERGY      -189.323839496610

DIPOLE MOMENT
-------------
                                X             Y             Z
Electronic contribution:     -2.84330      -0.70627       1.38686
Nuclear contribution   :      3.64356       1.05232      -2.12766
                        -----------------------------------------
Total Dipole Moment    :      0.80026       0.34605      -0.74080
                        -----------------------------------------
Magnitude (a.u.)       :      1.14409
Magnitude (Debye)      :      2.90805

Rotational constants in cm-1:     1.279287     0.160335     0.151103
Rotational constants in MHz : 38352.052405  4806.721674  4529.965788

                             ****ORCA TERMINATED NORMALLY****
TOTAL RUN TIME: 0 days 0 hours 0 minutes 12 seconds 925 msec
