                         Program Version 5.0.3 -  RELEASE  -
|  1> ! B3LYP cc-pVDZ
|  2> !TightSCF
|  3> %scf
|  4>  ConvForced true
|  5>  convergence tight
|  6>  MaxIter 500
|  7> end
|  8>
|  9> %tddft
| 10>  nroots 1
| 11> end
| 12>
| 13> # 	2512
| 14> * xyz 0 1
| 15> 		C   -1.186094  -0.360623  -0.039418
| 16> 		O   -1.712921  -0.999982   0.900101
| 17> 		C    0.034135   0.503929   0.214906
| 18> 		C    1.212364   0.119578  -0.152470
| 19> 		H   -1.623873  -0.317488  -1.075364
| 20> 		H   -0.201406   1.349430   0.882044
| 21> 		H    1.292313  -0.970720  -0.699115
| 22> 		H    2.190372   0.657589   0.007398
| 23> *
| 24>
| 25>                          ****END OF INPUT****

CARTESIAN COORDINATES (ANGSTROEM)
---------------------------------
  C     -1.186094   -0.360623   -0.039418
  O     -1.712921   -0.999982    0.900101
  C      0.034135    0.503929    0.214906
  C      1.212364    0.119578   -0.152470
  H     -1.623873   -0.317488   -1.075364
  H     -0.201406    1.349430    0.882044
  H      1.292313   -0.970720   -0.699115
  H      2.190372    0.657589    0.007398

 Total Charge           Charge          ....    0
 Multiplicity           Mult            ....    1
 Number of Electrons    NEL             ....   30
 Basis Dimension        Dim             ....   76

ORBITAL ENERGIES
----------------

  NO   OCC          E(Eh)            E(eV)
   0   2.0000     -19.148766      -521.0644
   1   2.0000     -10.289011      -279.9782
   2   2.0000     -10.215827      -277.9868
   3   2.0000     -10.206182      -277.7243
   4   2.0000      -1.030660       -28.0457
   5   2.0000      -0.799243       -21.7485
   6   2.0000      -0.642204       -17.4753
   7   2.0000      -0.556043       -15.1307
   8   2.0000      -0.482142       -13.1198
   9   2.0000      -0.462573       -12.5873
  10   2.0000      -0.434933       -11.8351
  11   2.0000      -0.373278       -10.1574
  12   2.0000      -0.364750        -9.9254
  13   2.0000      -0.295573        -8.0430
  14   2.0000      -0.256889        -6.9903
  15   0.0000      -0.051104        -1.3906
  16   0.0000       0.004526         0.1232
  17   0.0000       0.070423         1.9163
  18   0.0000       0.082331         2.2403
  19   0.0000       0.092631         2.5206

MULLIKEN ATOMIC CHARGES
-----------------------
   0 C :    0.158550
   1 O :   -0.212232
   2 C :   -0.050868
   3 C :   -0.021538
   4 H :    0.015021
   5 H :    0.025114
   6 H :    0.041872
   7 H :    0.044080
Sum of atomic charges:   -0.0000000

LOEWDIN ATOMIC CHARGES
----------------------
   0 C :    0.016102
   1 O :   -0.028478
   2 C :   -0.071496
   3 C :   -0.046651
   4 H :    0.003519
   5 H :    0.041451
   6 H :    0.047538
   7 H :    0.038015

  Mayer bond orders larger than 0.100000
B(  0-C ,  1-O ) :   2.1760 B(  0-C ,  2-C ) :   0.9824 B(  0-C ,  4-H ) :   0.9143
B(  2-C ,  3-C ) :   2.0233 B(  2-C ,  5-H ) :   0.9383 B(  3-C ,  6-H ) :   0.9320
B(  3-C ,  7-H ) :   0.9424

-----------------------------------------------------------------------------
         ABSORPTION SPECTRUM VIA TRANSITION ELECTRIC DIPOLE MOMENTS
-----------------------------------------------------------------------------
State   Energy    Wavelength  fosc         T2        TX        TY        TZ
        (cm-1)      (nm)                 (au**2)    (au)      (au)      (au)
-----------------------------------------------------------------------------
   1   30243.7    330.6   0.001184552   0.01289   0.11155   0.02091  -0.00356

FINAL SINGLE POINT ENERGY      -191.645175134822

DIPOLE MOMENT
-------------
                                X             Y             Z
Electronic contribution:     -2.67729      -0.92467       1.17559
Nuclear contribution   :      3.21020       1.47382      -1.74336
                        -----------------------------------------
Total Dipole Moment    :      0.53290       0.54915      -0.56778
                        -----------------------------------------
Magnitude (a.u.)       :      0.95285
Magnitude (Debye)      :      2.42195

Rotational constants in cm-1:     1.005007     0.160877     0.158600
Rotational constants in MHz : 30129.343556  4822.971787  4754.704683

                             ****ORCA TERMINATED NORMALLY****
TOTAL RUN TIME: 0 days 0 hours 3 minutes 18 seconds 962 msec
