                         Program Version 5.0.3 -  RELEASE  -
|  1> ! B3LYP cc-pVDZ
|  2> !TightSCF
|  3> %scf
|  4>  ConvForced true
|  5>  convergence tight
|  6>  MaxIter 500
|  7> end
|  8>
|  9> %tddft
| 10>  nroots 1
| 11> end
| 12>
| 13> # 	11194
| 14> * xyz 0 1
| 15> 		C   -1.189786  -0.312316   0.086604
| 16> 		O   -1.989872  -0.611946   0.901269
| 17> 		C   -0.001840   0.445677   0.357072
| 18> 		C    1.184067   0.078611  -0.295741
| 19> 		H   -1.153683  -0.711608  -0.943408
| 20> 		H    0.014569   1.154222   1.061180
| 21> 		H    1.118285  -0.647971  -1.084282
| 22> 		H    2.018660   0.627602  -0.102967
| 23> *
| 24>
| 25>                          ****END OF INPUT****

CARTESIAN COORDINATES (ANGSTROEM)
---------------------------------
  C     -1.189786   -0.312316    0.086604
  O     -1.989872   -0.611946    0.901269
  C     -0.001840    0.445677    0.357072
  C      1.184067    0.078611   -0.295741
  H     -1.153683   -0.711608   -0.943408
  H      0.014569    1.154222    1.061180
  H      1.118285   -0.647971   -1.084282
  H      2.018660    0.627602   -0.102967

 Total Charge           Charge          ....    0
 Multiplicity           Mult            ....    1
 Number of Electrons    NEL             ....   30
 Basis Dimension        Dim             ....   76

ORBITAL ENERGIES
----------------

  NO   OCC          E(Eh)            E(eV)
   0   2.0000     -19.137899      -520.7687
   1   2.0000     -10.268773      -279.4275
   2   2.0000     -10.214938      -277.9626
   3   2.0000     -10.200749      -277.5765
   4   2.0000      -1.063555       -28.9408
   5   2.0000      -0.801341       -21.8056
   6   2.0000      -0.657271       -17.8853
   7   2.0000      -0.583076       -15.8663
   8   2.0000      -0.484466       -13.1830
   9   2.0000      -0.470066       -12.7912
  10   2.0000      -0.428573       -11.6621
  11   2.0000      -0.417649       -11.3648
  12   2.0000      -0.393590       -10.7101
  13   2.0000      -0.283106        -7.7037
  14   2.0000      -0.255261        -6.9460
  15   0.0000      -0.065547        -1.7836
  16   0.0000       0.036417         0.9910
  17   0.0000       0.080655         2.1947
  18   0.0000       0.095644         2.6026
  19   0.0000       0.132752         3.6124

MULLIKEN ATOMIC CHARGES
-----------------------
   0 C :    0.181609
   1 O :   -0.167960
   2 C :   -0.039222
   3 C :    0.070564
   4 H :   -0.040899
   5 H :   -0.040429
   6 H :    0.022709
   7 H :    0.013628
Sum of atomic charges:   -0.0000000

LOEWDIN ATOMIC CHARGES
----------------------
   0 C :   -0.069017
   1 O :    0.033390
   2 C :   -0.022111
   3 C :    0.030050
   4 H :   -0.012084
   5 H :    0.003372
   6 H :    0.025046
   7 H :    0.011355

  Mayer bond orders larger than 0.100000
B(  0-C ,  1-O ) :   2.2077 B(  0-C ,  2-C ) :   1.0790 B(  0-C ,  4-H ) :   0.9090
B(  2-C ,  3-C ) :   1.9411 B(  2-C ,  5-H ) :   0.9564 B(  3-C ,  6-H ) :   0.9475
B(  3-C ,  7-H ) :   0.9482

-----------------------------------------------------------------------------
         ABSORPTION SPECTRUM VIA TRANSITION ELECTRIC DIPOLE MOMENTS
-----------------------------------------------------------------------------
State   Energy    Wavelength  fosc         T2        TX        TY        TZ
        (cm-1)      (nm)                 (au**2)    (au)      (au)      (au)
-----------------------------------------------------------------------------
   1   29432.9    339.8   0.000589796   0.00660  -0.07170   0.00170   0.03813

FINAL SINGLE POINT ENERGY      -191.652759053170

DIPOLE MOMENT
-------------
                                X             Y             Z
Electronic contribution:     -2.98213      -0.49474       1.48350
Nuclear contribution   :      3.85504       0.84532      -2.00597
                        -----------------------------------------
Total Dipole Moment    :      0.87291       0.35058      -0.52247
                        -----------------------------------------
Magnitude (a.u.)       :      1.07603
Magnitude (Debye)      :      2.73506

Rotational constants in cm-1:     1.395614     0.161690     0.150357
Rotational constants in MHz : 41839.455803  4847.352318  4507.583311

                             ****ORCA TERMINATED NORMALLY****
TOTAL RUN TIME: 0 days 0 hours 3 minutes 27 seconds 671 msec
