                         Program Version 5.0.3 -  RELEASE  -
|  1> ! B3LYP cc-pVDZ
|  2> !TightSCF
|  3> %scf
|  4>  ConvForced true
|  5>  convergence tight
|  6>  MaxIter 500
|  7> end
|  8>
|  9> %tddft
| 10>  nroots 1
| 11> end
| 12>
| 13> # 	1497
| 14> * xyz 0 1
| 15> 		C   -1.199665  -0.377291   0.000732
| 16> 		O   -2.129707  -0.474181   0.748691
| 17> 		C    0.002279   0.277539   0.401627
| 18> 		C    1.157712   0.102349  -0.226729
| 19> 		H   -1.163235  -0.877346  -0.984939
| 20> 		H   -0.070934   1.213117   1.239604
| 21> 		H    1.238396  -0.602410  -0.999081
| 22> 		H    2.127873   0.758276  -0.067418
| 23> *
| 24>
| 25>                          ****END OF INPUT****

CARTESIAN COORDINATES (ANGSTROEM)
---------------------------------
  C     -1.199665   -0.377291    0.000732
  O     -2.129707   -0.474181    0.748691
  C      0.002279    0.277539    0.401627
  C      1.157712    0.102349   -0.226729
  H     -1.163235   -0.877346   -0.984939
  H     -0.070934    1.213117    1.239604
  H      1.238396   -0.602410   -0.999081
  H      2.127873    0.758276   -0.067418

 Total Charge           Charge          ....    0
 Multiplicity           Mult            ....    1
 Number of Electrons    NEL             ....   30
 Basis Dimension        Dim             ....   76

ORBITAL ENERGIES
----------------

  NO   OCC          E(Eh)            E(eV)
   0   2.0000     -19.136595      -520.7332
   1   2.0000     -10.271951      -279.5140
   2   2.0000     -10.219888      -278.0973
   3   2.0000     -10.214790      -277.9586
   4   2.0000      -1.054731       -28.7007
   5   2.0000      -0.806218       -21.9383
   6   2.0000      -0.649137       -17.6639
   7   2.0000      -0.562141       -15.2966
   8   2.0000      -0.486603       -13.2411
   9   2.0000      -0.463585       -12.6148
  10   2.0000      -0.422901       -11.5077
  11   2.0000      -0.401079       -10.9139
  12   2.0000      -0.367539       -10.0013
  13   2.0000      -0.293618        -7.9898
  14   2.0000      -0.256863        -6.9896
  15   0.0000      -0.065344        -1.7781
  16   0.0000       0.034998         0.9523
  17   0.0000       0.066371         1.8061
  18   0.0000       0.072635         1.9765
  19   0.0000       0.123447         3.3592

MULLIKEN ATOMIC CHARGES
-----------------------
   0 C :    0.192115
   1 O :   -0.184276
   2 C :   -0.124613
   3 C :    0.034201
   4 H :   -0.029463
   5 H :    0.043298
   6 H :    0.011563
   7 H :    0.057175
Sum of atomic charges:   -0.0000000

LOEWDIN ATOMIC CHARGES
----------------------
   0 C :   -0.060048
   1 O :    0.017366
   2 C :   -0.073915
   3 C :   -0.004759
   4 H :   -0.005154
   5 H :    0.060024
   6 H :    0.014557
   7 H :    0.051929

  Mayer bond orders larger than 0.100000
B(  0-C ,  1-O ) :   2.1686 B(  0-C ,  2-C ) :   1.0848 B(  0-C ,  4-H ) :   0.9231
B(  2-C ,  3-C ) :   1.9300 B(  2-C ,  5-H ) :   0.9296 B(  3-C ,  6-H ) :   0.9385
B(  3-C ,  7-H ) :   0.9407

-----------------------------------------------------------------------------
         ABSORPTION SPECTRUM VIA TRANSITION ELECTRIC DIPOLE MOMENTS
-----------------------------------------------------------------------------
State   Energy    Wavelength  fosc         T2        TX        TY        TZ
        (cm-1)      (nm)                 (au**2)    (au)      (au)      (au)
-----------------------------------------------------------------------------
   1   29040.1    344.4   0.000215494   0.00244  -0.03877   0.02572   0.01667

FINAL SINGLE POINT ENERGY      -191.653874760549

DIPOLE MOMENT
-------------
                                X             Y             Z
Electronic contribution:     -3.18022      -0.72446       1.09015
Nuclear contribution   :      4.14610       0.92864      -1.64228
                        -----------------------------------------
Total Dipole Moment    :      0.96589       0.20418      -0.55212
                        -----------------------------------------
Magnitude (a.u.)       :      1.13113
Magnitude (Debye)      :      2.87512

Rotational constants in cm-1:     1.511889     0.160844     0.147051
Rotational constants in MHz : 45325.278099  4821.973947  4408.464037

                             ****ORCA TERMINATED NORMALLY****
TOTAL RUN TIME: 0 days 0 hours 3 minutes 11 seconds 193 msec
