                         Program Version 5.0.3 -  RELEASE  -
|  1> ! HF-3c
|  2> !TightSCF
|  3> %scf
|  4>  ConvForced true
|  5>  convergence tight
|  6>  MaxIter 500
|  7> end
|  8>
|  9> %tddft
| 10>  nroots 1
| 11> end
| 12>
| 13> # 	6816
| 14> * xyz 0 1
| 15> 		C   -1.246274  -0.265723  -0.089217
| 16> 		O   -1.965194  -0.549629  -0.954777
| 17> 		C    0.083010   0.521248  -0.167303
| 18> 		C    1.155468   0.069507   0.294578
| 19> 		H   -1.356995  -0.759171   0.896146
| 20> 		H   -0.021013   1.347463  -0.904951
| 21> 		H    1.285451  -0.856926   0.784188
| 22> 		H    2.082218   0.614217   0.152100
| 23> *
| 24>
| 25>                          ****END OF INPUT****

CARTESIAN COORDINATES (ANGSTROEM)
---------------------------------
  C     -1.246274   -0.265723   -0.089217
  O     -1.965194   -0.549629   -0.954777
  C      0.083010    0.521248   -0.167303
  C      1.155468    0.069507    0.294578
  H     -1.356995   -0.759171    0.896146
  H     -0.021013    1.347463   -0.904951
  H      1.285451   -0.856926    0.784188
  H      2.082218    0.614217    0.152100

 Total Charge           Charge          ....    0
 Multiplicity           Mult            ....    1
 Number of Electrons    NEL             ....   30
 Basis Dimension        Dim             ....   24

ORBITAL ENERGIES
----------------

  NO   OCC          E(Eh)            E(eV)
   0   2.0000     -20.394379      -554.9593
   1   2.0000     -11.311379      -307.7983
   2   2.0000     -11.198712      -304.7324
   3   2.0000     -11.194775      -304.6253
   4   2.0000      -1.446946       -39.3734
   5   2.0000      -1.105199       -30.0740
   6   2.0000      -0.876016       -23.8376
   7   2.0000      -0.780105       -21.2277
   8   2.0000      -0.684331       -18.6216
   9   2.0000      -0.661388       -17.9973
  10   2.0000      -0.611633       -16.6434
  11   2.0000      -0.556397       -15.1403
  12   2.0000      -0.546769       -14.8783
  13   2.0000      -0.430016       -11.7013
  14   2.0000      -0.398784       -10.8515
  15   0.0000       0.167857         4.5676
  16   0.0000       0.288188         7.8420
  17   0.0000       0.503881        13.7113
  18   0.0000       0.605164        16.4674
  19   0.0000       0.697975        18.9929

MULLIKEN ATOMIC CHARGES
-----------------------
   0 C :    0.196663
   1 O :   -0.356456
   2 C :   -0.161235
   3 C :   -0.262118
   4 H :    0.127770
   5 H :    0.157885
   6 H :    0.147047
   7 H :    0.150446
Sum of atomic charges:   -0.0000000

LOEWDIN ATOMIC CHARGES
----------------------
   0 C :    0.159264
   1 O :   -0.240542
   2 C :   -0.116594
   3 C :   -0.162137
   4 H :    0.062836
   5 H :    0.104784
   6 H :    0.093655
   7 H :    0.098735

  Mayer bond orders larger than 0.100000
B(  0-C ,  1-O ) :   1.9524 B(  0-C ,  2-C ) :   0.9599 B(  0-C ,  4-H ) :   0.9158
B(  2-C ,  3-C ) :   2.0073 B(  2-C ,  5-H ) :   0.9480 B(  3-C ,  6-H ) :   0.9590
B(  3-C ,  7-H ) :   0.9551

-----------------------------------------------------------------------------
         ABSORPTION SPECTRUM VIA TRANSITION ELECTRIC DIPOLE MOMENTS
-----------------------------------------------------------------------------
State   Energy    Wavelength  fosc         T2        TX        TY        TZ
        (cm-1)      (nm)                 (au**2)    (au)      (au)      (au)
-----------------------------------------------------------------------------
   1   36467.8    274.2   0.000216388   0.00195   0.03258   0.02109  -0.02115

Dispersion correction           -0.025480996
FINAL SINGLE POINT ENERGY      -189.309547715499

DIPOLE MOMENT
-------------
                                X             Y             Z
Electronic contribution:     -3.07360      -0.40941      -1.20583
Nuclear contribution   :      3.82195       0.62126       1.78899
                        -----------------------------------------
Total Dipole Moment    :      0.74835       0.21185       0.58316
                        -----------------------------------------
Magnitude (a.u.)       :      0.97210
Magnitude (Debye)      :      2.47089

Rotational constants in cm-1:     1.357583     0.157707     0.149681
Rotational constants in MHz : 40699.307654  4727.924213  4487.327052

                             ****ORCA TERMINATED NORMALLY****
TOTAL RUN TIME: 0 days 0 hours 0 minutes 13 seconds 423 msec
