                         Program Version 5.0.3 -  RELEASE  -
|  1> ! HF-3c
|  2> !TightSCF
|  3> %scf
|  4>  ConvForced true
|  5>  convergence tight
|  6>  MaxIter 500
|  7> end
|  8>
|  9> %tddft
| 10>  nroots 1
| 11> end
| 12>
| 13> # 	7269
| 14> * xyz 0 1
| 15> 		C   -1.155610  -0.378888   0.057409
| 16> 		O   -1.450528  -1.289066   0.770519
| 17> 		C    0.063920   0.412278   0.163180
| 18> 		C    1.269590   0.012571  -0.190037
| 19> 		H   -1.892999  -0.070246  -0.783026
| 20> 		H    0.031037   1.558221   0.525178
| 21> 		H    1.241301  -0.952962  -0.380463
| 22> 		H    1.877068   0.660775  -0.169168
| 23> *
| 24>
| 25>                          ****END OF INPUT****

CARTESIAN COORDINATES (ANGSTROEM)
---------------------------------
  C     -1.155610   -0.378888    0.057409
  O     -1.450528   -1.289066    0.770519
  C      0.063920    0.412278    0.163180
  C      1.269590    0.012571   -0.190037
  H     -1.892999   -0.070246   -0.783026
  H      0.031037    1.558221    0.525178
  H      1.241301   -0.952962   -0.380463
  H      1.877068    0.660775   -0.169168

 Total Charge           Charge          ....    0
 Multiplicity           Mult            ....    1
 Number of Electrons    NEL             ....   30
 Basis Dimension        Dim             ....   24

ORBITAL ENERGIES
----------------

  NO   OCC          E(Eh)            E(eV)
   0   2.0000     -20.386868      -554.7549
   1   2.0000     -11.311731      -307.8079
   2   2.0000     -11.201515      -304.8087
   3   2.0000     -11.188379      -304.4513
   4   2.0000      -1.425998       -38.8034
   5   2.0000      -1.110941       -30.2302
   6   2.0000      -0.911870       -24.8133
   7   2.0000      -0.751452       -20.4480
   8   2.0000      -0.732344       -19.9281
   9   2.0000      -0.656906       -17.8753
  10   2.0000      -0.614485       -16.7210
  11   2.0000      -0.571515       -15.5517
  12   2.0000      -0.503425       -13.6989
  13   2.0000      -0.420019       -11.4293
  14   2.0000      -0.415411       -11.3039
  15   0.0000       0.170582         4.6418
  16   0.0000       0.223047         6.0694
  17   0.0000       0.546702        14.8765
  18   0.0000       0.582762        15.8578
  19   0.0000       0.687062        18.6959

MULLIKEN ATOMIC CHARGES
-----------------------
   0 C :    0.170397
   1 O :   -0.341840
   2 C :   -0.113877
   3 C :   -0.320259
   4 H :    0.141879
   5 H :    0.154098
   6 H :    0.160616
   7 H :    0.148987
Sum of atomic charges:    0.0000000

LOEWDIN ATOMIC CHARGES
----------------------
   0 C :    0.144338
   1 O :   -0.240978
   2 C :   -0.075819
   3 C :   -0.203102
   4 H :    0.081643
   5 H :    0.109179
   6 H :    0.100841
   7 H :    0.083899

  Mayer bond orders larger than 0.100000
B(  0-C ,  1-O ) :   1.9415 B(  0-C ,  2-C ) :   1.0067 B(  0-C ,  4-H ) :   0.9084
B(  2-C ,  3-C ) :   1.9809 B(  2-C ,  5-H ) :   0.9435 B(  3-C ,  6-H ) :   0.9624
B(  3-C ,  7-H ) :   0.9679

-----------------------------------------------------------------------------
         ABSORPTION SPECTRUM VIA TRANSITION ELECTRIC DIPOLE MOMENTS
-----------------------------------------------------------------------------
State   Energy    Wavelength  fosc         T2        TX        TY        TZ
        (cm-1)      (nm)                 (au**2)    (au)      (au)      (au)
-----------------------------------------------------------------------------
   1   35163.1    284.4   0.000190481   0.00178   0.03748   0.01886   0.00479

Dispersion correction           -0.025865156
FINAL SINGLE POINT ENERGY      -189.245677499169

DIPOLE MOMENT
-------------
                                X             Y             Z
Electronic contribution:     -2.33309      -1.56670       1.03501
Nuclear contribution   :      2.48809       2.37061      -1.54453
                        -----------------------------------------
Total Dipole Moment    :      0.15500       0.80391      -0.50953
                        -----------------------------------------
Magnitude (a.u.)       :      0.96432
Magnitude (Debye)      :      2.45112

Rotational constants in cm-1:     0.978039     0.178968     0.162794
Rotational constants in MHz : 29320.870700  5365.320114  4880.432130

                             ****ORCA TERMINATED NORMALLY****
TOTAL RUN TIME: 0 days 0 hours 0 minutes 11 seconds 809 msec
