                         Program Version 5.0.3 -  RELEASE  -
|  1> ! HF-3c
|  2> !TightSCF
|  3> %scf
|  4>  ConvForced true
|  5>  convergence tight
|  6>  MaxIter 500
|  7> end
|  8>
|  9> %tddft
| 10>  nroots 1
| 11> end
| 12>
| 13> # 	21223
| 14> * xyz 0 1
| 15> 		C   -0.581950  -0.360715   0.024029
| 16> 		O   -0.493540  -1.616715  -0.004843
| 17> 		C    0.564163   0.424239  -0.025245
| 18> 		C    1.792919  -0.211248  -0.003655
| 19> 		H   -1.612092   0.108139   0.062139
| 20> 		H    0.588787   1.550303  -0.089284
| 21> 		H    1.805554  -1.332935  -0.110903
| 22> 		H    2.852056   0.361875   0.284921
| 23> *
| 24>
| 25>                          ****END OF INPUT****

CARTESIAN COORDINATES (ANGSTROEM)
---------------------------------
  C     -0.581950   -0.360715    0.024029
  O     -0.493540   -1.616715   -0.004843
  C      0.564163    0.424239   -0.025245
  C      1.792919   -0.211248   -0.003655
  H     -1.612092    0.108139    0.062139
  H      0.588787    1.550303   -0.089284
  H      1.805554   -1.332935   -0.110903
  H      2.852056    0.361875    0.284921

 Total Charge           Charge          ....    0
 Multiplicity           Mult            ....    1
 Number of Electrons    NEL             ....   30
 Basis Dimension        Dim             ....   24

ORBITAL ENERGIES
----------------

  NO   OCC          E(Eh)            E(eV)
   0   2.0000     -20.322596      -553.0060
   1   2.0000     -11.277498      -306.8763
   2   2.0000     -11.189987      -304.4950
   3   2.0000     -11.176812      -304.1365
   4   2.0000      -1.357070       -36.9278
   5   2.0000      -1.064334       -28.9620
   6   2.0000      -0.881092       -23.9757
   7   2.0000      -0.721762       -19.6401
   8   2.0000      -0.691411       -18.8143
   9   2.0000      -0.592304       -16.1174
  10   2.0000      -0.550172       -14.9710
  11   2.0000      -0.527485       -14.3536
  12   2.0000      -0.503972       -13.7138
  13   2.0000      -0.409240       -11.1360
  14   2.0000      -0.358455        -9.7541
  15   0.0000       0.114756         3.1227
  16   0.0000       0.312861         8.5134
  17   0.0000       0.487781        13.2732
  18   0.0000       0.583047        15.8655
  19   0.0000       0.624652        16.9976

MULLIKEN ATOMIC CHARGES
-----------------------
   0 C :    0.135527
   1 O :   -0.365009
   2 C :   -0.204230
   3 C :   -0.163348
   4 H :    0.140947
   5 H :    0.143956
   6 H :    0.162428
   7 H :    0.149731
Sum of atomic charges:    0.0000000

LOEWDIN ATOMIC CHARGES
----------------------
   0 C :    0.133143
   1 O :   -0.290671
   2 C :   -0.165022
   3 C :   -0.073274
   4 H :    0.081152
   5 H :    0.095797
   6 H :    0.109333
   7 H :    0.109542

  Mayer bond orders larger than 0.100000
B(  0-C ,  1-O ) :   1.8439 B(  0-C ,  2-C ) :   1.1051 B(  0-C ,  4-H ) :   0.9288
B(  1-O ,  3-C ) :   0.1077 B(  2-C ,  3-C ) :   1.8701 B(  2-C ,  5-H ) :   0.9579
B(  3-C ,  6-H ) :   0.9548 B(  3-C ,  7-H ) :   0.9611

-----------------------------------------------------------------------------
         ABSORPTION SPECTRUM VIA TRANSITION ELECTRIC DIPOLE MOMENTS
-----------------------------------------------------------------------------
State   Energy    Wavelength  fosc         T2        TX        TY        TZ
        (cm-1)      (nm)                 (au**2)    (au)      (au)      (au)
-----------------------------------------------------------------------------
   1   29394.5    340.2   0.000068893   0.00077  -0.01345   0.00445  -0.02390

Dispersion correction           -0.025974834
FINAL SINGLE POINT ENERGY      -189.319960972567

DIPOLE MOMENT
-------------
                                X             Y             Z
Electronic contribution:     -1.76215      -1.47451      -0.08794
Nuclear contribution   :      2.25399       2.43183       0.13691
                        -----------------------------------------
Total Dipole Moment    :      0.49183       0.95732       0.04897
                        -----------------------------------------
Magnitude (a.u.)       :      1.07738
Magnitude (Debye)      :      2.73849

Rotational constants in cm-1:     0.680373     0.232223     0.173563
Rotational constants in MHz : 20397.072791  6961.881081  5203.280136

                             ****ORCA TERMINATED NORMALLY****
TOTAL RUN TIME: 0 days 0 hours 0 minutes 16 seconds 126 msec
