                         Program Version 5.0.3 -  RELEASE  -
|  1> ! B3LYP cc-pVDZ
|  2> !TightSCF
|  3> %scf
|  4>  ConvForced true
|  5>  convergence tight
|  6>  MaxIter 500
|  7> end
|  8>
|  9> %tddft
| 10>  nroots 1
| 11> end
| 12>
| 13> # 	12301
| 14> * xyz 0 1
| 15> 		C   -1.246579  -0.335775  -0.016310
| 16> 		O   -1.282933  -1.537289   0.225698
| 17> 		C   -0.045151   0.536547   0.175072
| 18> 		C    1.194097   0.007609  -0.001304
| 19> 		H   -1.941825   0.248017  -0.401429
| 20> 		H   -0.157121   1.679544   0.180952
| 21> 		H    1.353675  -1.201241  -0.055333
| 22> 		H    2.130538   0.608106  -0.072332
| 23> *
| 24>
| 25>                          ****END OF INPUT****

CARTESIAN COORDINATES (ANGSTROEM)
---------------------------------
  C     -1.246579   -0.335775   -0.016310
  O     -1.282933   -1.537289    0.225698
  C     -0.045151    0.536547    0.175072
  C      1.194097    0.007609   -0.001304
  H     -1.941825    0.248017   -0.401429
  H     -0.157121    1.679544    0.180952
  H      1.353675   -1.201241   -0.055333
  H      2.130538    0.608106   -0.072332

 Total Charge           Charge          ....    0
 Multiplicity           Mult            ....    1
 Number of Electrons    NEL             ....   30
 Basis Dimension        Dim             ....   76

ORBITAL ENERGIES
----------------

  NO   OCC          E(Eh)            E(eV)
   0   2.0000     -19.140638      -520.8432
   1   2.0000     -10.270678      -279.4794
   2   2.0000     -10.226405      -278.2746
   3   2.0000     -10.210140      -277.8320
   4   2.0000      -1.037372       -28.2283
   5   2.0000      -0.786572       -21.4037
   6   2.0000      -0.667965       -18.1763
   7   2.0000      -0.545763       -14.8510
   8   2.0000      -0.496542       -13.5116
   9   2.0000      -0.440563       -11.9883
  10   2.0000      -0.428433       -11.6583
  11   2.0000      -0.386482       -10.5167
  12   2.0000      -0.368449       -10.0260
  13   2.0000      -0.283832        -7.7235
  14   2.0000      -0.257622        -7.0102
  15   0.0000      -0.066722        -1.8156
  16   0.0000       0.037533         1.0213
  17   0.0000       0.066354         1.8056
  18   0.0000       0.074928         2.0389
  19   0.0000       0.124523         3.3885

MULLIKEN ATOMIC CHARGES
-----------------------
   0 C :    0.271105
   1 O :   -0.209818
   2 C :   -0.143103
   3 C :   -0.009099
   4 H :   -0.039999
   5 H :    0.016474
   6 H :    0.070878
   7 H :    0.043563
Sum of atomic charges:    0.0000000

LOEWDIN ATOMIC CHARGES
----------------------
   0 C :   -0.003649
   1 O :   -0.012854
   2 C :   -0.088504
   3 C :    0.001413
   4 H :   -0.024291
   5 H :    0.039801
   6 H :    0.055985
   7 H :    0.032099

  Mayer bond orders larger than 0.100000
B(  0-C ,  1-O ) :   2.1798 B(  0-C ,  2-C ) :   1.0464 B(  0-C ,  4-H ) :   0.9293
B(  2-C ,  3-C ) :   1.9456 B(  2-C ,  5-H ) :   0.9335 B(  3-C ,  6-H ) :   0.9339
B(  3-C ,  7-H ) :   0.9460

-----------------------------------------------------------------------------
         ABSORPTION SPECTRUM VIA TRANSITION ELECTRIC DIPOLE MOMENTS
-----------------------------------------------------------------------------
State   Energy    Wavelength  fosc         T2        TX        TY        TZ
        (cm-1)      (nm)                 (au**2)    (au)      (au)      (au)
-----------------------------------------------------------------------------
   1   28722.8    348.2   0.000122941   0.00141  -0.02750  -0.02541   0.00267

FINAL SINGLE POINT ENERGY      -191.649288651732

DIPOLE MOMENT
-------------
                                X             Y             Z
Electronic contribution:     -2.27636      -1.69215       0.43214
Nuclear contribution   :      2.64494       2.62340      -0.66944
                        -----------------------------------------
Total Dipole Moment    :      0.36858       0.93125      -0.23730
                        -----------------------------------------
Magnitude (a.u.)       :      1.02927
Magnitude (Debye)      :      2.61619

Rotational constants in cm-1:     0.745534     0.201138     0.160771
Rotational constants in MHz : 22350.546638  6029.973462  4819.781060

                             ****ORCA TERMINATED NORMALLY****
TOTAL RUN TIME: 0 days 0 hours 3 minutes 21 seconds 744 msec
