                         Program Version 5.0.3 -  RELEASE  -
|  1> ! B3LYP cc-pVDZ
|  2> !TightSCF
|  3> %scf
|  4>  ConvForced true
|  5>  convergence tight
|  6>  MaxIter 500
|  7> end
|  8>
|  9> %tddft
| 10>  nroots 1
| 11> end
| 12>
| 13> # 	26496
| 14> * xyz 0 1
| 15> 		C   -0.531888  -0.429813  -0.000603
| 16> 		O   -0.637574  -1.643373  -0.014156
| 17> 		C    0.651190   0.350247   0.027266
| 18> 		C    1.854674  -0.085509  -0.014371
| 19> 		H   -1.587728   0.194890   0.073669
| 20> 		H    0.482153   1.448326  -0.130980
| 21> 		H    2.066329  -1.014781   0.251999
| 22> 		H    2.613896   0.687248  -0.134171
| 23> *
| 24>
| 25>                          ****END OF INPUT****

CARTESIAN COORDINATES (ANGSTROEM)
---------------------------------
  C     -0.531888   -0.429813   -0.000603
  O     -0.637574   -1.643373   -0.014156
  C      0.651190    0.350247    0.027266
  C      1.854674   -0.085509   -0.014371
  H     -1.587728    0.194890    0.073669
  H      0.482153    1.448326   -0.130980
  H      2.066329   -1.014781    0.251999
  H      2.613896    0.687248   -0.134171

 Total Charge           Charge          ....    0
 Multiplicity           Mult            ....    1
 Number of Electrons    NEL             ....   30
 Basis Dimension        Dim             ....   76

ORBITAL ENERGIES
----------------

  NO   OCC          E(Eh)            E(eV)
   0   2.0000     -19.139314      -520.8072
   1   2.0000     -10.278593      -279.6947
   2   2.0000     -10.204090      -277.6674
   3   2.0000     -10.201619      -277.6002
   4   2.0000      -1.042512       -28.3682
   5   2.0000      -0.821509       -22.3544
   6   2.0000      -0.670936       -18.2571
   7   2.0000      -0.543043       -14.7769
   8   2.0000      -0.510456       -13.8902
   9   2.0000      -0.455072       -12.3831
  10   2.0000      -0.424310       -11.5461
  11   2.0000      -0.401004       -10.9119
  12   2.0000      -0.382871       -10.4184
  13   2.0000      -0.300495        -8.1769
  14   2.0000      -0.253064        -6.8862
  15   0.0000      -0.074736        -2.0337
  16   0.0000       0.051084         1.3901
  17   0.0000       0.074191         2.0188
  18   0.0000       0.093998         2.5578
  19   0.0000       0.121049         3.2939

MULLIKEN ATOMIC CHARGES
-----------------------
   0 C :    0.134779
   1 O :   -0.188591
   2 C :   -0.120573
   3 C :    0.184559
   4 H :   -0.026974
   5 H :   -0.001449
   6 H :   -0.011775
   7 H :    0.030024
Sum of atomic charges:    0.0000000

LOEWDIN ATOMIC CHARGES
----------------------
   0 C :   -0.047228
   1 O :   -0.009978
   2 C :   -0.087252
   3 C :    0.056077
   4 H :   -0.005159
   5 H :    0.041480
   6 H :    0.007711
   7 H :    0.044349

  Mayer bond orders larger than 0.100000
B(  0-C ,  1-O ) :   2.1955 B(  0-C ,  2-C ) :   1.0850 B(  0-C ,  4-H ) :   0.8937
B(  2-C ,  3-C ) :   1.9832 B(  2-C ,  5-H ) :   0.9312 B(  3-C ,  6-H ) :   0.9302
B(  3-C ,  7-H ) :   0.9267

-----------------------------------------------------------------------------
         ABSORPTION SPECTRUM VIA TRANSITION ELECTRIC DIPOLE MOMENTS
-----------------------------------------------------------------------------
State   Energy    Wavelength  fosc         T2        TX        TY        TZ
        (cm-1)      (nm)                 (au**2)    (au)      (au)      (au)
-----------------------------------------------------------------------------
   1   26352.3    379.5   0.000386509   0.00483  -0.04211   0.01007   0.05435

FINAL SINGLE POINT ENERGY      -191.662027362460

DIPOLE MOMENT
-------------
                                X             Y             Z
Electronic contribution:     -1.57815      -2.13736      -0.04091
Nuclear contribution   :      2.19429       3.02100       0.05777
                        -----------------------------------------
Total Dipole Moment    :      0.61614       0.88364       0.01685
                        -----------------------------------------
Magnitude (a.u.)       :      1.07737
Magnitude (Debye)      :      2.73846

Rotational constants in cm-1:     0.853867     0.202491     0.164056
Rotational constants in MHz : 25598.276635  6070.528374  4918.287037

                             ****ORCA TERMINATED NORMALLY****
TOTAL RUN TIME: 0 days 0 hours 3 minutes 20 seconds 901 msec
