                         Program Version 5.0.3 -  RELEASE  -
|  1> ! HF-3c
|  2> !TightSCF
|  3> %scf
|  4>  ConvForced true
|  5>  convergence tight
|  6>  MaxIter 500
|  7> end
|  8>
|  9> %tddft
| 10>  nroots 1
| 11> end
| 12>
| 13> # 	4556
| 14> * xyz 0 1
| 15> 		C   -1.235625  -0.375679  -0.025045
| 16> 		O   -1.986857  -0.769805   0.824436
| 17> 		C   -0.010741   0.493355   0.183456
| 18> 		C    1.203765   0.184120  -0.311240
| 19> 		H   -1.241161  -0.675524  -0.945413
| 20> 		H   -0.023205   1.117982   1.152222
| 21> 		H    1.311704  -0.684588  -0.900869
| 22> 		H    1.943062   0.617514   0.067718
| 23> *
| 24>
| 25>                          ****END OF INPUT****

CARTESIAN COORDINATES (ANGSTROEM)
---------------------------------
  C     -1.235625   -0.375679   -0.025045
  O     -1.986857   -0.769805    0.824436
  C     -0.010741    0.493355    0.183456
  C      1.203765    0.184120   -0.311240
  H     -1.241161   -0.675524   -0.945413
  H     -0.023205    1.117982    1.152222
  H      1.311704   -0.684588   -0.900869
  H      1.943062    0.617514    0.067718

 Total Charge           Charge          ....    0
 Multiplicity           Mult            ....    1
 Number of Electrons    NEL             ....   30
 Basis Dimension        Dim             ....   24

ORBITAL ENERGIES
----------------

  NO   OCC          E(Eh)            E(eV)
   0   2.0000     -20.393701      -554.9408
   1   2.0000     -11.316243      -307.9306
   2   2.0000     -11.195933      -304.6568
   3   2.0000     -11.194562      -304.6195
   4   2.0000      -1.423204       -38.7274
   5   2.0000      -1.092473       -29.7277
   6   2.0000      -0.917668       -24.9710
   7   2.0000      -0.799736       -21.7619
   8   2.0000      -0.683365       -18.5953
   9   2.0000      -0.671078       -18.2610
  10   2.0000      -0.607642       -16.5348
  11   2.0000      -0.558973       -15.2104
  12   2.0000      -0.539029       -14.6677
  13   2.0000      -0.425091       -11.5673
  14   2.0000      -0.401969       -10.9381
  15   0.0000       0.129095         3.5129
  16   0.0000       0.257979         7.0200
  17   0.0000       0.558641        15.2014
  18   0.0000       0.600462        16.3394
  19   0.0000       0.740832        20.1591

MULLIKEN ATOMIC CHARGES
-----------------------
   0 C :    0.155122
   1 O :   -0.334963
   2 C :   -0.131022
   3 C :   -0.277716
   4 H :    0.139038
   5 H :    0.154382
   6 H :    0.149496
   7 H :    0.145663
Sum of atomic charges:    0.0000000

LOEWDIN ATOMIC CHARGES
----------------------
   0 C :    0.147526
   1 O :   -0.235540
   2 C :   -0.093221
   3 C :   -0.166932
   4 H :    0.062309
   5 H :    0.105086
   6 H :    0.096892
   7 H :    0.083879

  Mayer bond orders larger than 0.100000
B(  0-C ,  1-O ) :   1.9311 B(  0-C ,  2-C ) :   0.9986 B(  0-C ,  4-H ) :   0.9336
B(  2-C ,  3-C ) :   1.9621 B(  2-C ,  5-H ) :   0.9521 B(  3-C ,  6-H ) :   0.9641
B(  3-C ,  7-H ) :   0.9680

-----------------------------------------------------------------------------
         ABSORPTION SPECTRUM VIA TRANSITION ELECTRIC DIPOLE MOMENTS
-----------------------------------------------------------------------------
State   Energy    Wavelength  fosc         T2        TX        TY        TZ
        (cm-1)      (nm)                 (au**2)    (au)      (au)      (au)
-----------------------------------------------------------------------------
   1   33598.3    297.6   0.000130982   0.00128  -0.03070  -0.01314   0.01298

Dispersion correction           -0.025690871
FINAL SINGLE POINT ENERGY      -189.282224561105

DIPOLE MOMENT
-------------
                                X             Y             Z
Electronic contribution:     -3.15861      -0.66002       0.82814
Nuclear contribution   :      3.87365       0.89941      -1.29602
                        -----------------------------------------
Total Dipole Moment    :      0.71505       0.23939      -0.46788
                        -----------------------------------------
Magnitude (a.u.)       :      0.88742
Magnitude (Debye)      :      2.25564

Rotational constants in cm-1:     1.355358     0.153464     0.145839
Rotational constants in MHz : 40632.614891  4600.723558  4372.142212

                             ****ORCA TERMINATED NORMALLY****
TOTAL RUN TIME: 0 days 0 hours 0 minutes 16 seconds 125 msec
