                         Program Version 5.0.3 -  RELEASE  -
|  1> ! B3LYP cc-pVDZ
|  2> !TightSCF
|  3> %scf
|  4>  ConvForced true
|  5>  convergence tight
|  6>  MaxIter 500
|  7> end
|  8>
|  9> %tddft
| 10>  nroots 1
| 11> end
| 12>
| 13> # 	10616
| 14> * xyz 0 1
| 15> 		C   -1.180021  -0.290037  -0.032464
| 16> 		O   -2.148579  -0.402951  -0.742978
| 17> 		C    0.051962   0.375861  -0.474211
| 18> 		C    1.264641   0.100690   0.078425
| 19> 		H   -1.154021  -0.880409   1.093279
| 20> 		H   -0.136346   0.971846  -1.045857
| 21> 		H    1.231705  -0.512801   1.130330
| 22> 		H    2.049374   0.671775  -0.043999
| 23> *
| 24>
| 25>                          ****END OF INPUT****

CARTESIAN COORDINATES (ANGSTROEM)
---------------------------------
  C     -1.180021   -0.290037   -0.032464
  O     -2.148579   -0.402951   -0.742978
  C      0.051962    0.375861   -0.474211
  C      1.264641    0.100690    0.078425
  H     -1.154021   -0.880409    1.093279
  H     -0.136346    0.971846   -1.045857
  H      1.231705   -0.512801    1.130330
  H      2.049374    0.671775   -0.043999

 Total Charge           Charge          ....    0
 Multiplicity           Mult            ....    1
 Number of Electrons    NEL             ....   30
 Basis Dimension        Dim             ....   76

ORBITAL ENERGIES
----------------

  NO   OCC          E(Eh)            E(eV)
   0   2.0000     -19.146982      -521.0159
   1   2.0000     -10.286761      -279.9170
   2   2.0000     -10.222915      -278.1797
   3   2.0000     -10.196798      -277.4690
   4   2.0000      -1.055691       -28.7268
   5   2.0000      -0.811992       -22.0954
   6   2.0000      -0.663994       -18.0682
   7   2.0000      -0.580638       -15.8000
   8   2.0000      -0.494242       -13.4490
   9   2.0000      -0.462058       -12.5732
  10   2.0000      -0.429651       -11.6914
  11   2.0000      -0.403174       -10.9709
  12   2.0000      -0.391074       -10.6417
  13   2.0000      -0.293789        -7.9944
  14   2.0000      -0.257822        -7.0157
  15   0.0000      -0.074673        -2.0320
  16   0.0000       0.035205         0.9580
  17   0.0000       0.063344         1.7237
  18   0.0000       0.084525         2.3000
  19   0.0000       0.112594         3.0638

MULLIKEN ATOMIC CHARGES
-----------------------
   0 C :    0.090668
   1 O :   -0.176376
   2 C :    0.160935
   3 C :    0.055905
   4 H :   -0.022510
   5 H :   -0.163410
   6 H :    0.051206
   7 H :    0.003582
Sum of atomic charges:    0.0000000

LOEWDIN ATOMIC CHARGES
----------------------
   0 C :   -0.032178
   1 O :    0.010149
   2 C :    0.011611
   3 C :    0.032457
   4 H :   -0.008594
   5 H :   -0.064093
   6 H :    0.055298
   7 H :   -0.004650

  Mayer bond orders larger than 0.100000
B(  0-C ,  1-O ) :   2.1676 B(  0-C ,  2-C ) :   1.0656 B(  0-C ,  4-H ) :   0.8789
B(  2-C ,  3-C ) :   1.9278 B(  2-C ,  5-H ) :   0.9415 B(  3-C ,  6-H ) :   0.9386
B(  3-C ,  7-H ) :   0.9457

-----------------------------------------------------------------------------
         ABSORPTION SPECTRUM VIA TRANSITION ELECTRIC DIPOLE MOMENTS
-----------------------------------------------------------------------------
State   Energy    Wavelength  fosc         T2        TX        TY        TZ
        (cm-1)      (nm)                 (au**2)    (au)      (au)      (au)
-----------------------------------------------------------------------------
   1   28039.5    356.6   0.000669575   0.00786   0.05978  -0.04989   0.04241

FINAL SINGLE POINT ENERGY      -191.581067527750

DIPOLE MOMENT
-------------
                                X             Y             Z
Electronic contribution:     -2.94678      -0.16062      -1.72563
Nuclear contribution   :      3.90078       0.49469       2.12033
                        -----------------------------------------
Total Dipole Moment    :      0.95400       0.33407       0.39470
                        -----------------------------------------
Magnitude (a.u.)       :      1.08513
Magnitude (Debye)      :      2.75819

Rotational constants in cm-1:     1.507590     0.155954     0.143386
Rotational constants in MHz : 45196.409779  4675.397878  4298.609266

                             ****ORCA TERMINATED NORMALLY****
TOTAL RUN TIME: 0 days 0 hours 3 minutes 25 seconds 937 msec
