                         Program Version 5.0.3 -  RELEASE  -
|  1> ! HF-3c
|  2> !TightSCF
|  3> %scf
|  4>  ConvForced true
|  5>  convergence tight
|  6>  MaxIter 500
|  7> end
|  8>
|  9> %tddft
| 10>  nroots 1
| 11> end
| 12>
| 13> # 	7911
| 14> * xyz 0 1
| 15> 		C   -1.192053  -0.285369  -0.010774
| 16> 		O   -1.689321  -0.984056  -0.843638
| 17> 		C    0.027013   0.493724  -0.170228
| 18> 		C    1.273039  -0.013096   0.103449
| 19> 		H   -1.631337  -0.392849   0.958063
| 20> 		H   -0.079538   1.561225  -0.693219
| 21> 		H    1.274873  -0.981588   0.583741
| 22> 		H    2.049063   0.629937   0.063350
| 23> *
| 24>
| 25>                          ****END OF INPUT****

CARTESIAN COORDINATES (ANGSTROEM)
---------------------------------
  C     -1.192053   -0.285369   -0.010774
  O     -1.689321   -0.984056   -0.843638
  C      0.027013    0.493724   -0.170228
  C      1.273039   -0.013096    0.103449
  H     -1.631337   -0.392849    0.958063
  H     -0.079538    1.561225   -0.693219
  H      1.274873   -0.981588    0.583741
  H      2.049063    0.629937    0.063350

 Total Charge           Charge          ....    0
 Multiplicity           Mult            ....    1
 Number of Electrons    NEL             ....   30
 Basis Dimension        Dim             ....   24

ORBITAL ENERGIES
----------------

  NO   OCC          E(Eh)            E(eV)
   0   2.0000     -20.379718      -554.5603
   1   2.0000     -11.304801      -307.6193
   2   2.0000     -11.192776      -304.5709
   3   2.0000     -11.180249      -304.2300
   4   2.0000      -1.421652       -38.6851
   5   2.0000      -1.074040       -29.2261
   6   2.0000      -0.895499       -24.3678
   7   2.0000      -0.770197       -20.9581
   8   2.0000      -0.684048       -18.6139
   9   2.0000      -0.644283       -17.5318
  10   2.0000      -0.604421       -16.4471
  11   2.0000      -0.560544       -15.2532
  12   2.0000      -0.499634       -13.5957
  13   2.0000      -0.418030       -11.3752
  14   2.0000      -0.393325       -10.7029
  15   0.0000       0.177641         4.8339
  16   0.0000       0.204968         5.5775
  17   0.0000       0.555530        15.1167
  18   0.0000       0.601914        16.3789
  19   0.0000       0.694814        18.9068

MULLIKEN ATOMIC CHARGES
-----------------------
   0 C :    0.149946
   1 O :   -0.337837
   2 C :   -0.137160
   3 C :   -0.261498
   4 H :    0.141719
   5 H :    0.154605
   6 H :    0.145285
   7 H :    0.144940
Sum of atomic charges:   -0.0000000

LOEWDIN ATOMIC CHARGES
----------------------
   0 C :    0.135733
   1 O :   -0.239108
   2 C :   -0.099991
   3 C :   -0.164901
   4 H :    0.073737
   5 H :    0.109811
   6 H :    0.095479
   7 H :    0.089240

  Mayer bond orders larger than 0.100000
B(  0-C ,  1-O ) :   1.9372 B(  0-C ,  2-C ) :   1.0043 B(  0-C ,  4-H ) :   0.9232
B(  2-C ,  3-C ) :   1.9837 B(  2-C ,  5-H ) :   0.9440 B(  3-C ,  6-H ) :   0.9659
B(  3-C ,  7-H ) :   0.9674

-----------------------------------------------------------------------------
         ABSORPTION SPECTRUM VIA TRANSITION ELECTRIC DIPOLE MOMENTS
-----------------------------------------------------------------------------
State   Energy    Wavelength  fosc         T2        TX        TY        TZ
        (cm-1)      (nm)                 (au**2)    (au)      (au)      (au)
-----------------------------------------------------------------------------
   1   34274.7    291.8   0.000014273   0.00014  -0.00088   0.00206   0.01149

Dispersion correction           -0.025227574
FINAL SINGLE POINT ENERGY      -189.302266981026

DIPOLE MOMENT
-------------
                                X             Y             Z
Electronic contribution:     -2.64297      -1.00617      -1.13393
Nuclear contribution   :      3.10816       1.59674       1.75092
                        -----------------------------------------
Total Dipole Moment    :      0.46519       0.59057       0.61699
                        -----------------------------------------
Magnitude (a.u.)       :      0.97255
Magnitude (Debye)      :      2.47203

Rotational constants in cm-1:     1.000195     0.168074     0.159789
Rotational constants in MHz : 29985.101119  5038.734273  4790.362577

                             ****ORCA TERMINATED NORMALLY****
TOTAL RUN TIME: 0 days 0 hours 0 minutes 11 seconds 351 msec
