                         Program Version 5.0.3 -  RELEASE  -
|  1> ! HF-3c
|  2> !TightSCF
|  3> %scf
|  4>  ConvForced true
|  5>  convergence tight
|  6>  MaxIter 500
|  7> end
|  8>
|  9> %tddft
| 10>  nroots 1
| 11> end
| 12>
| 13> # 	28181
| 14> * xyz 0 1
| 15> 		C   -0.549152  -0.436662   0.057291
| 16> 		O   -0.553449  -1.628999  -0.042697
| 17> 		C    0.614478   0.453069  -0.062914
| 18> 		C    1.782448  -0.164131   0.016795
| 19> 		H   -1.595316   0.061289   0.363579
| 20> 		H    0.721433   1.680843  -0.173865
| 21> 		H    1.870984  -1.232363   0.265616
| 22> 		H    2.779786   0.351753   0.075776
| 23> *
| 24>
| 25>                          ****END OF INPUT****

CARTESIAN COORDINATES (ANGSTROEM)
---------------------------------
  C     -0.549152   -0.436662    0.057291
  O     -0.553449   -1.628999   -0.042697
  C      0.614478    0.453069   -0.062914
  C      1.782448   -0.164131    0.016795
  H     -1.595316    0.061289    0.363579
  H      0.721433    1.680843   -0.173865
  H      1.870984   -1.232363    0.265616
  H      2.779786    0.351753    0.075776

 Total Charge           Charge          ....    0
 Multiplicity           Mult            ....    1
 Number of Electrons    NEL             ....   30
 Basis Dimension        Dim             ....   24

ORBITAL ENERGIES
----------------

  NO   OCC          E(Eh)            E(eV)
   0   2.0000     -20.360438      -554.0357
   1   2.0000     -11.296639      -307.3972
   2   2.0000     -11.184743      -304.3523
   3   2.0000     -11.181977      -304.2771
   4   2.0000      -1.408185       -38.3187
   5   2.0000      -1.077007       -29.3069
   6   2.0000      -0.867253       -23.5991
   7   2.0000      -0.725043       -19.7294
   8   2.0000      -0.692181       -18.8352
   9   2.0000      -0.605373       -16.4730
  10   2.0000      -0.579498       -15.7690
  11   2.0000      -0.538673       -14.6580
  12   2.0000      -0.505514       -13.7557
  13   2.0000      -0.401208       -10.9174
  14   2.0000      -0.393229       -10.7003
  15   0.0000       0.143889         3.9154
  16   0.0000       0.312121         8.4932
  17   0.0000       0.462738        12.5917
  18   0.0000       0.530396        14.4328
  19   0.0000       0.642131        17.4733

MULLIKEN ATOMIC CHARGES
-----------------------
   0 C :    0.182556
   1 O :   -0.366642
   2 C :   -0.181818
   3 C :   -0.210018
   4 H :    0.126428
   5 H :    0.160109
   6 H :    0.151368
   7 H :    0.138018
Sum of atomic charges:   -0.0000000

LOEWDIN ATOMIC CHARGES
----------------------
   0 C :    0.153726
   1 O :   -0.269196
   2 C :   -0.148174
   3 C :   -0.114213
   4 H :    0.070331
   5 H :    0.118348
   6 H :    0.098430
   7 H :    0.090750

  Mayer bond orders larger than 0.100000
B(  0-C ,  1-O ) :   1.9078 B(  0-C ,  2-C ) :   1.0242 B(  0-C ,  4-H ) :   0.9136
B(  2-C ,  3-C ) :   1.9427 B(  2-C ,  5-H ) :   0.9480 B(  3-C ,  6-H ) :   0.9589
B(  3-C ,  7-H ) :   0.9650

-----------------------------------------------------------------------------
         ABSORPTION SPECTRUM VIA TRANSITION ELECTRIC DIPOLE MOMENTS
-----------------------------------------------------------------------------
State   Energy    Wavelength  fosc         T2        TX        TY        TZ
        (cm-1)      (nm)                 (au**2)    (au)      (au)      (au)
-----------------------------------------------------------------------------
   1   34167.2    292.7   0.000047466   0.00046  -0.00981  -0.00033  -0.01900

Dispersion correction           -0.025631119
FINAL SINGLE POINT ENERGY      -189.306443187655

DIPOLE MOMENT
-------------
                                X             Y             Z
Electronic contribution:     -1.99598      -1.59354      -0.34340
Nuclear contribution   :      2.38299       2.59643       0.49855
                        -----------------------------------------
Total Dipole Moment    :      0.38700       1.00289       0.15515
                        -----------------------------------------
Magnitude (a.u.)       :      1.08611
Magnitude (Debye)      :      2.76067

Rotational constants in cm-1:     0.740822     0.217754     0.169505
Rotational constants in MHz : 22209.296546  6528.091389  5081.630099

                             ****ORCA TERMINATED NORMALLY****
TOTAL RUN TIME: 0 days 0 hours 0 minutes 15 seconds 748 msec
