                         Program Version 5.0.3 -  RELEASE  -
|  1> ! HF-3c
|  2> !TightSCF
|  3> %scf
|  4>  ConvForced true
|  5>  convergence tight
|  6>  MaxIter 500
|  7> end
|  8>
|  9> %tddft
| 10>  nroots 1
| 11> end
| 12>
| 13> # 	19030
| 14> * xyz 0 1
| 15> 		C   -1.236804  -0.346690  -0.012328
| 16> 		O   -1.703445  -1.052090   0.803834
| 17> 		C    0.023623   0.517305   0.189917
| 18> 		C    1.257464   0.030003  -0.140294
| 19> 		H   -1.685985  -0.384464  -1.040957
| 20> 		H   -0.050106   1.517740   0.824234
| 21> 		H    1.226276  -0.942162  -0.642697
| 22> 		H    2.161548   0.724747  -0.041848
| 23> *
| 24>
| 25>                          ****END OF INPUT****

CARTESIAN COORDINATES (ANGSTROEM)
---------------------------------
  C     -1.236804   -0.346690   -0.012328
  O     -1.703445   -1.052090    0.803834
  C      0.023623    0.517305    0.189917
  C      1.257464    0.030003   -0.140294
  H     -1.685985   -0.384464   -1.040957
  H     -0.050106    1.517740    0.824234
  H      1.226276   -0.942162   -0.642697
  H      2.161548    0.724747   -0.041848

 Total Charge           Charge          ....    0
 Multiplicity           Mult            ....    1
 Number of Electrons    NEL             ....   30
 Basis Dimension        Dim             ....   24

ORBITAL ENERGIES
----------------

  NO   OCC          E(Eh)            E(eV)
   0   2.0000     -20.386509      -554.7451
   1   2.0000     -11.307198      -307.6845
   2   2.0000     -11.178418      -304.1802
   3   2.0000     -11.170293      -303.9591
   4   2.0000      -1.434159       -39.0255
   5   2.0000      -1.052624       -28.6434
   6   2.0000      -0.858568       -23.3628
   7   2.0000      -0.753097       -20.4928
   8   2.0000      -0.673563       -18.3286
   9   2.0000      -0.627850       -17.0847
  10   2.0000      -0.591026       -16.0826
  11   2.0000      -0.546318       -14.8661
  12   2.0000      -0.509335       -13.8597
  13   2.0000      -0.404589       -11.0094
  14   2.0000      -0.386516       -10.5176
  15   0.0000       0.188655         5.1336
  16   0.0000       0.221720         6.0333
  17   0.0000       0.514630        14.0038
  18   0.0000       0.564529        15.3616
  19   0.0000       0.594815        16.1857

MULLIKEN ATOMIC CHARGES
-----------------------
   0 C :    0.175894
   1 O :   -0.350285
   2 C :   -0.148752
   3 C :   -0.247100
   4 H :    0.136328
   5 H :    0.148345
   6 H :    0.137792
   7 H :    0.147778
Sum of atomic charges:   -0.0000000

LOEWDIN ATOMIC CHARGES
----------------------
   0 C :    0.147260
   1 O :   -0.241036
   2 C :   -0.115185
   3 C :   -0.161012
   4 H :    0.073002
   5 H :    0.104312
   6 H :    0.090220
   7 H :    0.102439

  Mayer bond orders larger than 0.100000
B(  0-C ,  1-O ) :   1.9555 B(  0-C ,  2-C ) :   0.9673 B(  0-C ,  4-H ) :   0.9150
B(  2-C ,  3-C ) :   1.9958 B(  2-C ,  5-H ) :   0.9492 B(  3-C ,  6-H ) :   0.9655
B(  3-C ,  7-H ) :   0.9611

-----------------------------------------------------------------------------
         ABSORPTION SPECTRUM VIA TRANSITION ELECTRIC DIPOLE MOMENTS
-----------------------------------------------------------------------------
State   Energy    Wavelength  fosc         T2        TX        TY        TZ
        (cm-1)      (nm)                 (au**2)    (au)      (au)      (au)
-----------------------------------------------------------------------------
   1   36367.9    275.0   0.000003082   0.00003  -0.00007  -0.00169   0.00501

Dispersion correction           -0.024587799
FINAL SINGLE POINT ENERGY      -189.301597343601

DIPOLE MOMENT
-------------
                                X             Y             Z
Electronic contribution:     -2.70500      -1.15020       1.06924
Nuclear contribution   :      3.20822       1.75085      -1.66694
                        -----------------------------------------
Total Dipole Moment    :      0.50322       0.60065      -0.59770
                        -----------------------------------------
Magnitude (a.u.)       :      0.98552
Magnitude (Debye)      :      2.50500

Rotational constants in cm-1:     0.976853     0.161572     0.155000
Rotational constants in MHz : 29285.327805  4843.818853  4646.786566

                             ****ORCA TERMINATED NORMALLY****
TOTAL RUN TIME: 0 days 0 hours 0 minutes 16 seconds 49 msec
