                         Program Version 5.0.3 -  RELEASE  -
|  1> ! HF-3c
|  2> !TightSCF
|  3> %scf
|  4>  ConvForced true
|  5>  convergence tight
|  6>  MaxIter 500
|  7> end
|  8>
|  9> %tddft
| 10>  nroots 1
| 11> end
| 12>
| 13> # 	29546
| 14> * xyz 0 1
| 15> 		C   -0.526223  -0.413972  -0.088900
| 16> 		O   -0.587992  -1.659630   0.054957
| 17> 		C    0.617797   0.473208   0.075263
| 18> 		C    1.816173  -0.140912  -0.045740
| 19> 		H   -1.603844  -0.002356  -0.325042
| 20> 		H    0.408853   1.498394   0.319608
| 21> 		H    1.987105  -1.349465  -0.088416
| 22> 		H    2.790137   0.417857  -0.052755
| 23> *
| 24>
| 25>                          ****END OF INPUT****

CARTESIAN COORDINATES (ANGSTROEM)
---------------------------------
  C     -0.526223   -0.413972   -0.088900
  O     -0.587992   -1.659630    0.054957
  C      0.617797    0.473208    0.075263
  C      1.816173   -0.140912   -0.045740
  H     -1.603844   -0.002356   -0.325042
  H      0.408853    1.498394    0.319608
  H      1.987105   -1.349465   -0.088416
  H      2.790137    0.417857   -0.052755

 Total Charge           Charge          ....    0
 Multiplicity           Mult            ....    1
 Number of Electrons    NEL             ....   30
 Basis Dimension        Dim             ....   24

ORBITAL ENERGIES
----------------

  NO   OCC          E(Eh)            E(eV)
   0   2.0000     -20.327491      -553.1392
   1   2.0000     -11.270103      -306.6751
   2   2.0000     -11.196086      -304.6610
   3   2.0000     -11.191161      -304.5270
   4   2.0000      -1.354854       -36.8675
   5   2.0000      -1.073791       -29.2193
   6   2.0000      -0.871263       -23.7083
   7   2.0000      -0.727915       -19.8076
   8   2.0000      -0.687900       -18.7187
   9   2.0000      -0.604767       -16.4565
  10   2.0000      -0.562081       -15.2950
  11   2.0000      -0.520917       -14.1749
  12   2.0000      -0.505348       -13.7512
  13   2.0000      -0.396123       -10.7791
  14   2.0000      -0.379807       -10.3351
  15   0.0000       0.132647         3.6095
  16   0.0000       0.291651         7.9362
  17   0.0000       0.487509        13.2658
  18   0.0000       0.554047        15.0764
  19   0.0000       0.627479        17.0746

MULLIKEN ATOMIC CHARGES
-----------------------
   0 C :    0.154413
   1 O :   -0.365062
   2 C :   -0.205321
   3 C :   -0.177319
   4 H :    0.131570
   5 H :    0.153620
   6 H :    0.169079
   7 H :    0.139020
Sum of atomic charges:    0.0000000

LOEWDIN ATOMIC CHARGES
----------------------
   0 C :    0.142027
   1 O :   -0.287262
   2 C :   -0.156290
   3 C :   -0.088389
   4 H :    0.076093
   5 H :    0.099556
   6 H :    0.123435
   7 H :    0.090829

  Mayer bond orders larger than 0.100000
B(  0-C ,  1-O ) :   1.8847 B(  0-C ,  2-C ) :   1.0484 B(  0-C ,  4-H ) :   0.9289
B(  2-C ,  3-C ) :   1.9218 B(  2-C ,  5-H ) :   0.9561 B(  3-C ,  6-H ) :   0.9522
B(  3-C ,  7-H ) :   0.9643

-----------------------------------------------------------------------------
         ABSORPTION SPECTRUM VIA TRANSITION ELECTRIC DIPOLE MOMENTS
-----------------------------------------------------------------------------
State   Energy    Wavelength  fosc         T2        TX        TY        TZ
        (cm-1)      (nm)                 (au**2)    (au)      (au)      (au)
-----------------------------------------------------------------------------
   1   30228.8    330.8   0.000109868   0.00120   0.03011  -0.00344  -0.01668

Dispersion correction           -0.025285499
FINAL SINGLE POINT ENERGY      -189.325204704466

DIPOLE MOMENT
-------------
                                X             Y             Z
Electronic contribution:     -1.69420      -1.42288       0.04794
Nuclear contribution   :      2.20179       2.31700      -0.13796
                        -----------------------------------------
Total Dipole Moment    :      0.50759       0.89412      -0.09002
                        -----------------------------------------
Magnitude (a.u.)       :      1.03209
Magnitude (Debye)      :      2.62335

Rotational constants in cm-1:     0.713991     0.210500     0.164013
Rotational constants in MHz : 21404.925688  6310.626286  4916.996855

                             ****ORCA TERMINATED NORMALLY****
TOTAL RUN TIME: 0 days 0 hours 0 minutes 15 seconds 370 msec
