                         Program Version 5.0.3 -  RELEASE  -
|  1> ! B3LYP cc-pVDZ
|  2> !TightSCF
|  3> %scf
|  4>  ConvForced true
|  5>  convergence tight
|  6>  MaxIter 500
|  7> end
|  8>
|  9> %tddft
| 10>  nroots 1
| 11> end
| 12>
| 13> # 	24293
| 14> * xyz 0 1
| 15> 		C   -0.590692  -0.479225   0.049848
| 16> 		O   -0.614146  -1.665043  -0.018600
| 17> 		C    0.623644   0.470253  -0.034280
| 18> 		C    1.878687  -0.106706  -0.001587
| 19> 		H   -1.522470   0.086910   0.004629
| 20> 		H    0.531809   1.597645  -0.065783
| 21> 		H    2.156220  -1.119434   0.031715
| 22> 		H    2.792270   0.498925   0.162947
| 23> *
| 24>
| 25>                          ****END OF INPUT****

CARTESIAN COORDINATES (ANGSTROEM)
---------------------------------
  C     -0.590692   -0.479225    0.049848
  O     -0.614146   -1.665043   -0.018600
  C      0.623644    0.470253   -0.034280
  C      1.878687   -0.106706   -0.001587
  H     -1.522470    0.086910    0.004629
  H      0.531809    1.597645   -0.065783
  H      2.156220   -1.119434    0.031715
  H      2.792270    0.498925    0.162947

 Total Charge           Charge          ....    0
 Multiplicity           Mult            ....    1
 Number of Electrons    NEL             ....   30
 Basis Dimension        Dim             ....   76

ORBITAL ENERGIES
----------------

  NO   OCC          E(Eh)            E(eV)
   0   2.0000     -19.142143      -520.8842
   1   2.0000     -10.277016      -279.6518
   2   2.0000     -10.217540      -278.0334
   3   2.0000     -10.215382      -277.9747
   4   2.0000      -1.059800       -28.8386
   5   2.0000      -0.779235       -21.2040
   6   2.0000      -0.650570       -17.7029
   7   2.0000      -0.552803       -15.0425
   8   2.0000      -0.497030       -13.5249
   9   2.0000      -0.449929       -12.2432
  10   2.0000      -0.420368       -11.4388
  11   2.0000      -0.402780       -10.9602
  12   2.0000      -0.384762       -10.4699
  13   2.0000      -0.282608        -7.6901
  14   2.0000      -0.254319        -6.9204
  15   0.0000      -0.068950        -1.8762
  16   0.0000       0.049249         1.3401
  17   0.0000       0.066981         1.8226
  18   0.0000       0.093883         2.5547
  19   0.0000       0.118000         3.2109

MULLIKEN ATOMIC CHARGES
-----------------------
   0 C :    0.207547
   1 O :   -0.167199
   2 C :   -0.156548
   3 C :    0.064082
   4 H :   -0.028909
   5 H :    0.022000
   6 H :    0.027077
   7 H :    0.031951
Sum of atomic charges:    0.0000000

LOEWDIN ATOMIC CHARGES
----------------------
   0 C :   -0.041582
   1 O :    0.020980
   2 C :   -0.084425
   3 C :    0.028982
   4 H :   -0.015750
   5 H :    0.039763
   6 H :    0.019495
   7 H :    0.032537

  Mayer bond orders larger than 0.100000
B(  0-C ,  1-O ) :   2.2306 B(  0-C ,  2-C ) :   1.0050 B(  0-C ,  4-H ) :   0.9170
B(  2-C ,  3-C ) :   1.9425 B(  2-C ,  5-H ) :   0.9415 B(  3-C ,  6-H ) :   0.9579
B(  3-C ,  7-H ) :   0.9557

-----------------------------------------------------------------------------
         ABSORPTION SPECTRUM VIA TRANSITION ELECTRIC DIPOLE MOMENTS
-----------------------------------------------------------------------------
State   Energy    Wavelength  fosc         T2        TX        TY        TZ
        (cm-1)      (nm)                 (au**2)    (au)      (au)      (au)
-----------------------------------------------------------------------------
   1   28394.5    352.2   0.000062899   0.00073  -0.02189  -0.01132  -0.01104

FINAL SINGLE POINT ENERGY      -191.665378951885

DIPOLE MOMENT
-------------
                                X             Y             Z
Electronic contribution:     -2.12945      -1.94245      -0.05740
Nuclear contribution   :      2.55330       2.78507       0.12465
                        -----------------------------------------
Total Dipole Moment    :      0.42384       0.84262       0.06725
                        -----------------------------------------
Magnitude (a.u.)       :      0.94561
Magnitude (Debye)      :      2.40354

Rotational constants in cm-1:     0.746709     0.196354     0.155705
Rotational constants in MHz : 22385.763593  5886.534005  4667.932889

                             ****ORCA TERMINATED NORMALLY****
TOTAL RUN TIME: 0 days 0 hours 3 minutes 21 seconds 909 msec
