                         Program Version 5.0.3 -  RELEASE  -
|  1> ! B3LYP cc-pVDZ
|  2> !TightSCF
|  3> %scf
|  4>  ConvForced true
|  5>  convergence tight
|  6>  MaxIter 500
|  7> end
|  8>
|  9> %tddft
| 10>  nroots 1
| 11> end
| 12>
| 13> # 	31001
| 14> * xyz 0 1
| 15> 		C   -0.562487  -0.374780  -0.011263
| 16> 		O   -0.601741  -1.720571  -0.000993
| 17> 		C    0.655817   0.447634   0.032789
| 18> 		C    1.819962  -0.094739   0.000627
| 19> 		H   -1.490510   0.052351  -0.055425
| 20> 		H    0.490461   1.501786  -0.067809
| 21> 		H    1.955064  -1.153086   0.045622
| 22> 		H    2.784510   0.417417  -0.183127
| 23> *
| 24>
| 25>                          ****END OF INPUT****

CARTESIAN COORDINATES (ANGSTROEM)
---------------------------------
  C     -0.562487   -0.374780   -0.011263
  O     -0.601741   -1.720571   -0.000993
  C      0.655817    0.447634    0.032789
  C      1.819962   -0.094739    0.000627
  H     -1.490510    0.052351   -0.055425
  H      0.490461    1.501786   -0.067809
  H      1.955064   -1.153086    0.045622
  H      2.784510    0.417417   -0.183127

 Total Charge           Charge          ....    0
 Multiplicity           Mult            ....    1
 Number of Electrons    NEL             ....   30
 Basis Dimension        Dim             ....   76

ORBITAL ENERGIES
----------------

  NO   OCC          E(Eh)            E(eV)
   0   2.0000     -19.133962      -520.6616
   1   2.0000     -10.273954      -279.5685
   2   2.0000     -10.211813      -277.8775
   3   2.0000     -10.207330      -277.7556
   4   2.0000      -0.974768       -26.5248
   5   2.0000      -0.812815       -22.1178
   6   2.0000      -0.672037       -18.2871
   7   2.0000      -0.561569       -15.2811
   8   2.0000      -0.511848       -13.9281
   9   2.0000      -0.456378       -12.4187
  10   2.0000      -0.408568       -11.1177
  11   2.0000      -0.372984       -10.1494
  12   2.0000      -0.368828       -10.0363
  13   2.0000      -0.288946        -7.8626
  14   2.0000      -0.251310        -6.8385
  15   0.0000      -0.084167        -2.2903
  16   0.0000       0.050399         1.3714
  17   0.0000       0.066687         1.8147
  18   0.0000       0.096237         2.6187
  19   0.0000       0.128668         3.5012

MULLIKEN ATOMIC CHARGES
-----------------------
   0 C :    0.231034
   1 O :   -0.291574
   2 C :   -0.088266
   3 C :    0.110311
   4 H :   -0.012285
   5 H :   -0.014744
   6 H :    0.030668
   7 H :    0.034855
Sum of atomic charges:    0.0000000

LOEWDIN ATOMIC CHARGES
----------------------
   0 C :    0.064117
   1 O :   -0.124585
   2 C :   -0.079365
   3 C :    0.045859
   4 H :   -0.007050
   5 H :    0.030634
   6 H :    0.031791
   7 H :    0.038599

  Mayer bond orders larger than 0.100000
B(  0-C ,  1-O ) :   2.0464 B(  0-C ,  2-C ) :   1.0990 B(  0-C ,  4-H ) :   0.9484
B(  1-O ,  3-C ) :   0.1024 B(  2-C ,  3-C ) :   1.9600 B(  2-C ,  5-H ) :   0.9455
B(  3-C ,  6-H ) :   0.9257 B(  3-C ,  7-H ) :   0.9440

-----------------------------------------------------------------------------
         ABSORPTION SPECTRUM VIA TRANSITION ELECTRIC DIPOLE MOMENTS
-----------------------------------------------------------------------------
State   Energy    Wavelength  fosc         T2        TX        TY        TZ
        (cm-1)      (nm)                 (au**2)    (au)      (au)      (au)
-----------------------------------------------------------------------------
   1   22856.3    437.5   0.000048144   0.00069  -0.01654  -0.00463   0.01996

FINAL SINGLE POINT ENERGY      -191.674329972431

DIPOLE MOMENT
-------------
                                X             Y             Z
Electronic contribution:     -1.87257      -1.45066       0.18091
Nuclear contribution   :      2.34879       2.55448      -0.24378
                        -----------------------------------------
Total Dipole Moment    :      0.47622       1.10382      -0.06288
                        -----------------------------------------
Magnitude (a.u.)       :      1.20381
Magnitude (Debye)      :      3.05984

Rotational constants in cm-1:     0.741388     0.202546     0.159259
Rotational constants in MHz : 22226.248085  6072.183642  4774.467873

                             ****ORCA TERMINATED NORMALLY****
TOTAL RUN TIME: 0 days 0 hours 3 minutes 25 seconds 139 msec
