                         Program Version 5.0.3 -  RELEASE  -
|  1> ! B3LYP cc-pVDZ
|  2> !TightSCF
|  3> %scf
|  4>  ConvForced true
|  5>  convergence tight
|  6>  MaxIter 500
|  7> end
|  8>
|  9> %tddft
| 10>  nroots 1
| 11> end
| 12>
| 13> # 	5949
| 14> * xyz 0 1
| 15> 		C   -1.131599  -0.305650   0.061795
| 16> 		O   -1.400969  -1.290943   0.726263
| 17> 		C    0.023871   0.499622   0.239668
| 18> 		C    1.268011   0.082345  -0.187911
| 19> 		H   -1.947952  -0.095048  -0.785401
| 20> 		H   -0.201369   1.579784   0.510625
| 21> 		H    1.239429  -1.153390  -0.524576
| 22> 		H    2.178841   0.701179  -0.132630
| 23> *
| 24>
| 25>                          ****END OF INPUT****

CARTESIAN COORDINATES (ANGSTROEM)
---------------------------------
  C     -1.131599   -0.305650    0.061795
  O     -1.400969   -1.290943    0.726263
  C      0.023871    0.499622    0.239668
  C      1.268011    0.082345   -0.187911
  H     -1.947952   -0.095048   -0.785401
  H     -0.201369    1.579784    0.510625
  H      1.239429   -1.153390   -0.524576
  H      2.178841    0.701179   -0.132630

 Total Charge           Charge          ....    0
 Multiplicity           Mult            ....    1
 Number of Electrons    NEL             ....   30
 Basis Dimension        Dim             ....   76

ORBITAL ENERGIES
----------------

  NO   OCC          E(Eh)            E(eV)
   0   2.0000     -19.138528      -520.7858
   1   2.0000     -10.281107      -279.7631
   2   2.0000     -10.235516      -278.5225
   3   2.0000     -10.218628      -278.0630
   4   2.0000      -1.044617       -28.4255
   5   2.0000      -0.795373       -21.6432
   6   2.0000      -0.651612       -17.7313
   7   2.0000      -0.533115       -14.5068
   8   2.0000      -0.498720       -13.5709
   9   2.0000      -0.454790       -12.3755
  10   2.0000      -0.433287       -11.7903
  11   2.0000      -0.381290       -10.3754
  12   2.0000      -0.365623        -9.9491
  13   2.0000      -0.284920        -7.7531
  14   2.0000      -0.251930        -6.8554
  15   0.0000      -0.046419        -1.2631
  16   0.0000      -0.012238        -0.3330
  17   0.0000       0.054462         1.4820
  18   0.0000       0.074112         2.0167
  19   0.0000       0.095912         2.6099

MULLIKEN ATOMIC CHARGES
-----------------------
   0 C :    0.127276
   1 O :   -0.192454
   2 C :   -0.041214
   3 C :   -0.041211
   4 H :   -0.003590
   5 H :    0.031582
   6 H :    0.068544
   7 H :    0.051065
Sum of atomic charges:   -0.0000000

LOEWDIN ATOMIC CHARGES
----------------------
   0 C :   -0.043322
   1 O :   -0.007229
   2 C :   -0.071075
   3 C :   -0.027639
   4 H :    0.004971
   5 H :    0.046304
   6 H :    0.063933
   7 H :    0.034056

  Mayer bond orders larger than 0.100000
B(  0-C ,  1-O ) :   2.1936 B(  0-C ,  2-C ) :   1.0211 B(  0-C ,  4-H ) :   0.9096
B(  2-C ,  3-C ) :   1.9704 B(  2-C ,  5-H ) :   0.9271 B(  3-C ,  6-H ) :   0.9303
B(  3-C ,  7-H ) :   0.9435

-----------------------------------------------------------------------------
         ABSORPTION SPECTRUM VIA TRANSITION ELECTRIC DIPOLE MOMENTS
-----------------------------------------------------------------------------
State   Energy    Wavelength  fosc         T2        TX        TY        TZ
        (cm-1)      (nm)                 (au**2)    (au)      (au)      (au)
-----------------------------------------------------------------------------
   1   31460.7    317.9   0.000312744   0.00327   0.05629  -0.00915   0.00454

FINAL SINGLE POINT ENERGY      -191.626529177248

DIPOLE MOMENT
-------------
                                X             Y             Z
Electronic contribution:     -1.97885      -1.24326       1.23839
Nuclear contribution   :      2.46068       2.04456      -1.67297
                        -----------------------------------------
Total Dipole Moment    :      0.48182       0.80131      -0.43459
                        -----------------------------------------
Magnitude (a.u.)       :      1.03107
Magnitude (Debye)      :      2.62078

Rotational constants in cm-1:     0.865115     0.181006     0.161814
Rotational constants in MHz : 25935.489531  5426.414694  4851.047584

                             ****ORCA TERMINATED NORMALLY****
TOTAL RUN TIME: 0 days 0 hours 3 minutes 0 seconds 335 msec
