                         Program Version 5.0.3 -  RELEASE  -
|  1> ! B3LYP cc-pVDZ
|  2> !TightSCF
|  3> %scf
|  4>  ConvForced true
|  5>  convergence tight
|  6>  MaxIter 500
|  7> end
|  8>
|  9> %tddft
| 10>  nroots 1
| 11> end
| 12>
| 13> # 	27929
| 14> * xyz 0 1
| 15> 		C   -0.491714  -0.388457  -0.017288
| 16> 		O   -0.582303  -1.657390   0.002239
| 17> 		C    0.633922   0.424791  -0.017014
| 18> 		C    1.777535  -0.154676   0.005104
| 19> 		H   -1.503564   0.245686   0.222190
| 20> 		H    0.358209   1.514823  -0.007000
| 21> 		H    1.828468  -1.277445  -0.001813
| 22> 		H    2.666210   0.507534   0.100973
| 23> *
| 24>
| 25>                          ****END OF INPUT****

CARTESIAN COORDINATES (ANGSTROEM)
---------------------------------
  C     -0.491714   -0.388457   -0.017288
  O     -0.582303   -1.657390    0.002239
  C      0.633922    0.424791   -0.017014
  C      1.777535   -0.154676    0.005104
  H     -1.503564    0.245686    0.222190
  H      0.358209    1.514823   -0.007000
  H      1.828468   -1.277445   -0.001813
  H      2.666210    0.507534    0.100973

 Total Charge           Charge          ....    0
 Multiplicity           Mult            ....    1
 Number of Electrons    NEL             ....   30
 Basis Dimension        Dim             ....   76

ORBITAL ENERGIES
----------------

  NO   OCC          E(Eh)            E(eV)
   0   2.0000     -19.136448      -520.7292
   1   2.0000     -10.276006      -279.6243
   2   2.0000     -10.220493      -278.1138
   3   2.0000     -10.203734      -277.6577
   4   2.0000      -1.011898       -27.5351
   5   2.0000      -0.826181       -22.4815
   6   2.0000      -0.670220       -18.2376
   7   2.0000      -0.528550       -14.3826
   8   2.0000      -0.508252       -13.8302
   9   2.0000      -0.451869       -12.2960
  10   2.0000      -0.405133       -11.0242
  11   2.0000      -0.390581       -10.6283
  12   2.0000      -0.380963       -10.3665
  13   2.0000      -0.296629        -8.0717
  14   2.0000      -0.252189        -6.8624
  15   0.0000      -0.080014        -2.1773
  16   0.0000       0.046890         1.2759
  17   0.0000       0.070548         1.9197
  18   0.0000       0.082089         2.2337
  19   0.0000       0.120864         3.2889

MULLIKEN ATOMIC CHARGES
-----------------------
   0 C :    0.142933
   1 O :   -0.240732
   2 C :   -0.082796
   3 C :    0.102476
   4 H :   -0.019081
   5 H :    0.004467
   6 H :    0.057668
   7 H :    0.035065
Sum of atomic charges:    0.0000000

LOEWDIN ATOMIC CHARGES
----------------------
   0 C :   -0.017139
   1 O :   -0.067104
   2 C :   -0.101159
   3 C :    0.046819
   4 H :    0.000704
   5 H :    0.046039
   6 H :    0.051247
   7 H :    0.040593

  Mayer bond orders larger than 0.100000
B(  0-C ,  1-O ) :   2.1102 B(  0-C ,  2-C ) :   1.1321 B(  0-C ,  4-H ) :   0.9011
B(  1-O ,  3-C ) :   0.1083 B(  2-C ,  3-C ) :   1.9325 B(  2-C ,  5-H ) :   0.9438
B(  3-C ,  6-H ) :   0.9137 B(  3-C ,  7-H ) :   0.9306

-----------------------------------------------------------------------------
         ABSORPTION SPECTRUM VIA TRANSITION ELECTRIC DIPOLE MOMENTS
-----------------------------------------------------------------------------
State   Energy    Wavelength  fosc         T2        TX        TY        TZ
        (cm-1)      (nm)                 (au**2)    (au)      (au)      (au)
-----------------------------------------------------------------------------
   1   24817.8    402.9   0.000311430   0.00413  -0.01374  -0.01181  -0.06167

FINAL SINGLE POINT ENERGY      -191.669326578874

DIPOLE MOMENT
-------------
                                X             Y             Z
Electronic contribution:     -1.35761      -1.73370      -0.27538
Nuclear contribution   :      1.98332       2.71517       0.29482
                        -----------------------------------------
Total Dipole Moment    :      0.62572       0.98147       0.01944
                        -----------------------------------------
Magnitude (a.u.)       :      1.16412
Magnitude (Debye)      :      2.95897

Rotational constants in cm-1:     0.752936     0.221467     0.171366
Rotational constants in MHz : 22572.453612  6639.406506  5137.414356

                             ****ORCA TERMINATED NORMALLY****
TOTAL RUN TIME: 0 days 0 hours 3 minutes 27 seconds 946 msec
