                         Program Version 5.0.3 -  RELEASE  -
|  1> ! B3LYP cc-pVDZ
|  2> !TightSCF
|  3> %scf
|  4>  ConvForced true
|  5>  convergence tight
|  6>  MaxIter 500
|  7> end
|  8>
|  9> %tddft
| 10>  nroots 1
| 11> end
| 12>
| 13> # 	7223
| 14> * xyz 0 1
| 15> 		C   -1.207487  -0.335761   0.001985
| 16> 		O   -1.272036  -1.467000  -0.386444
| 17> 		C    0.023198   0.639717  -0.064520
| 18> 		C    1.236064  -0.054390   0.058812
| 19> 		H   -2.097225   0.098070   0.529147
| 20> 		H   -0.019633   1.736218  -0.444356
| 21> 		H    1.134268  -1.169449   0.165116
| 22> 		H    2.225441   0.572567   0.196973
| 23> *
| 24>
| 25>                          ****END OF INPUT****

CARTESIAN COORDINATES (ANGSTROEM)
---------------------------------
  C     -1.207487   -0.335761    0.001985
  O     -1.272036   -1.467000   -0.386444
  C      0.023198    0.639717   -0.064520
  C      1.236064   -0.054390    0.058812
  H     -2.097225    0.098070    0.529147
  H     -0.019633    1.736218   -0.444356
  H      1.134268   -1.169449    0.165116
  H      2.225441    0.572567    0.196973

 Total Charge           Charge          ....    0
 Multiplicity           Mult            ....    1
 Number of Electrons    NEL             ....   30
 Basis Dimension        Dim             ....   76

ORBITAL ENERGIES
----------------

  NO   OCC          E(Eh)            E(eV)
   0   2.0000     -19.146469      -521.0019
   1   2.0000     -10.284800      -279.8636
   2   2.0000     -10.226287      -278.2714
   3   2.0000     -10.221926      -278.1527
   4   2.0000      -1.058446       -28.8018
   5   2.0000      -0.772242       -21.0138
   6   2.0000      -0.631603       -17.1868
   7   2.0000      -0.538699       -14.6587
   8   2.0000      -0.494866       -13.4660
   9   2.0000      -0.445281       -12.1167
  10   2.0000      -0.417877       -11.3710
  11   2.0000      -0.388239       -10.5645
  12   2.0000      -0.387892       -10.5551
  13   2.0000      -0.278963        -7.5910
  14   2.0000      -0.254939        -6.9372
  15   0.0000      -0.057236        -1.5575
  16   0.0000       0.009437         0.2568
  17   0.0000       0.069749         1.8980
  18   0.0000       0.086716         2.3597
  19   0.0000       0.097840         2.6624

MULLIKEN ATOMIC CHARGES
-----------------------
   0 C :    0.183434
   1 O :   -0.175305
   2 C :   -0.157209
   3 C :   -0.003496
   4 H :   -0.009301
   5 H :    0.045144
   6 H :    0.058611
   7 H :    0.058124
Sum of atomic charges:    0.0000000

LOEWDIN ATOMIC CHARGES
----------------------
   0 C :   -0.028990
   1 O :    0.010258
   2 C :   -0.090448
   3 C :   -0.012694
   4 H :   -0.008472
   5 H :    0.045447
   6 H :    0.038225
   7 H :    0.046673

  Mayer bond orders larger than 0.100000
B(  0-C ,  1-O ) :   2.2091 B(  0-C ,  2-C ) :   0.9686 B(  0-C ,  4-H ) :   0.9131
B(  2-C ,  3-C ) :   1.9505 B(  2-C ,  5-H ) :   0.9436 B(  3-C ,  6-H ) :   0.9335
B(  3-C ,  7-H ) :   0.9461

-----------------------------------------------------------------------------
         ABSORPTION SPECTRUM VIA TRANSITION ELECTRIC DIPOLE MOMENTS
-----------------------------------------------------------------------------
State   Energy    Wavelength  fosc         T2        TX        TY        TZ
        (cm-1)      (nm)                 (au**2)    (au)      (au)      (au)
-----------------------------------------------------------------------------
   1   31023.1    322.3   0.000260747   0.00277   0.05198   0.00291  -0.00751

FINAL SINGLE POINT ENERGY      -191.641289467731

DIPOLE MOMENT
-------------
                                X             Y             Z
Electronic contribution:     -2.04525      -1.62838      -0.57915
Nuclear contribution   :      2.38883       2.43117       0.80175
                        -----------------------------------------
Total Dipole Moment    :      0.34358       0.80279       0.22260
                        -----------------------------------------
Magnitude (a.u.)       :      0.90115
Magnitude (Debye)      :      2.29053

Rotational constants in cm-1:     0.717140     0.196766     0.158630
Rotational constants in MHz : 21499.321468  5898.890924  4755.616894

                             ****ORCA TERMINATED NORMALLY****
TOTAL RUN TIME: 0 days 0 hours 3 minutes 9 seconds 867 msec
