                         Program Version 5.0.3 -  RELEASE  -
|  1> ! HF-3c
|  2> !TightSCF
|  3> %scf
|  4>  ConvForced true
|  5>  convergence tight
|  6>  MaxIter 500
|  7> end
|  8>
|  9> %tddft
| 10>  nroots 1
| 11> end
| 12>
| 13> # 	15805
| 14> * xyz 0 1
| 15> 		C   -1.232230  -0.307108   0.000484
| 16> 		O   -1.440653  -1.281750  -0.663161
| 17> 		C   -0.002128   0.519684  -0.225845
| 18> 		C    1.169556  -0.037723   0.132604
| 19> 		H   -1.755237  -0.109162   0.942706
| 20> 		H   -0.096244   1.517200  -0.553882
| 21> 		H    1.336077  -1.011454   0.396386
| 22> 		H    2.003795   0.736561   0.007138
| 23> *
| 24>
| 25>                          ****END OF INPUT****

CARTESIAN COORDINATES (ANGSTROEM)
---------------------------------
  C     -1.232230   -0.307108    0.000484
  O     -1.440653   -1.281750   -0.663161
  C     -0.002128    0.519684   -0.225845
  C      1.169556   -0.037723    0.132604
  H     -1.755237   -0.109162    0.942706
  H     -0.096244    1.517200   -0.553882
  H      1.336077   -1.011454    0.396386
  H      2.003795    0.736561    0.007138

 Total Charge           Charge          ....    0
 Multiplicity           Mult            ....    1
 Number of Electrons    NEL             ....   30
 Basis Dimension        Dim             ....   24

ORBITAL ENERGIES
----------------

  NO   OCC          E(Eh)            E(eV)
   0   2.0000     -20.376627      -554.4762
   1   2.0000     -11.300019      -307.4891
   2   2.0000     -11.187774      -304.4348
   3   2.0000     -11.180050      -304.2246
   4   2.0000      -1.416042       -38.5325
   5   2.0000      -1.077415       -29.3179
   6   2.0000      -0.881312       -23.9817
   7   2.0000      -0.771229       -20.9862
   8   2.0000      -0.700144       -19.0519
   9   2.0000      -0.619972       -16.8703
  10   2.0000      -0.616086       -16.7645
  11   2.0000      -0.554355       -15.0848
  12   2.0000      -0.509084       -13.8529
  13   2.0000      -0.409819       -11.1518
  14   2.0000      -0.398059       -10.8317
  15   0.0000       0.183765         5.0005
  16   0.0000       0.220209         5.9922
  17   0.0000       0.580426        15.7942
  18   0.0000       0.603889        16.4327
  19   0.0000       0.670984        18.2584

MULLIKEN ATOMIC CHARGES
-----------------------
   0 C :    0.169192
   1 O :   -0.345034
   2 C :   -0.162305
   3 C :   -0.243421
   4 H :    0.140818
   5 H :    0.147099
   6 H :    0.147715
   7 H :    0.145937
Sum of atomic charges:    0.0000000

LOEWDIN ATOMIC CHARGES
----------------------
   0 C :    0.148708
   1 O :   -0.245335
   2 C :   -0.114881
   3 C :   -0.148994
   4 H :    0.075921
   5 H :    0.092340
   6 H :    0.091480
   7 H :    0.100761

  Mayer bond orders larger than 0.100000
B(  0-C ,  1-O ) :   1.9469 B(  0-C ,  2-C ) :   0.9846 B(  0-C ,  4-H ) :   0.9185
B(  2-C ,  3-C ) :   1.9890 B(  2-C ,  5-H ) :   0.9574 B(  3-C ,  6-H ) :   0.9676
B(  3-C ,  7-H ) :   0.9614

-----------------------------------------------------------------------------
         ABSORPTION SPECTRUM VIA TRANSITION ELECTRIC DIPOLE MOMENTS
-----------------------------------------------------------------------------
State   Energy    Wavelength  fosc         T2        TX        TY        TZ
        (cm-1)      (nm)                 (au**2)    (au)      (au)      (au)
-----------------------------------------------------------------------------
   1   34862.8    286.8   0.000422461   0.00399   0.06073   0.00868  -0.01504

Dispersion correction           -0.025644150
FINAL SINGLE POINT ENERGY      -189.313275324433

DIPOLE MOMENT
-------------
                                X             Y             Z
Electronic contribution:     -2.51320      -1.43061      -0.91824
Nuclear contribution   :      2.87544       2.20430       1.46774
                        -----------------------------------------
Total Dipole Moment    :      0.36224       0.77369       0.54949
                        -----------------------------------------
Magnitude (a.u.)       :      1.01575
Magnitude (Debye)      :      2.58184

Rotational constants in cm-1:     0.836907     0.190170     0.168863
Rotational constants in MHz : 25089.826755  5701.160343  5062.390686

                             ****ORCA TERMINATED NORMALLY****
TOTAL RUN TIME: 0 days 0 hours 0 minutes 13 seconds 42 msec
