                         Program Version 5.0.3 -  RELEASE  -
|  1> ! HF-3c
|  2> !TightSCF
|  3> %scf
|  4>  ConvForced true
|  5>  convergence tight
|  6>  MaxIter 500
|  7> end
|  8>
|  9> %tddft
| 10>  nroots 1
| 11> end
| 12>
| 13> # 	4248
| 14> * xyz 0 1
| 15> 		C   -1.186561  -0.334660   0.041217
| 16> 		O   -1.496425  -1.271939   0.774856
| 17> 		C    0.030720   0.490694   0.130609
| 18> 		C    1.258779   0.037386  -0.131319
| 19> 		H   -1.881609  -0.176026  -0.768974
| 20> 		H   -0.149925   1.469175   0.612909
| 21> 		H    1.381350  -0.900864  -0.543427
| 22> 		H    2.060345   0.649391  -0.123070
| 23> *
| 24>
| 25>                          ****END OF INPUT****

CARTESIAN COORDINATES (ANGSTROEM)
---------------------------------
  C     -1.186561   -0.334660    0.041217
  O     -1.496425   -1.271939    0.774856
  C      0.030720    0.490694    0.130609
  C      1.258779    0.037386   -0.131319
  H     -1.881609   -0.176026   -0.768974
  H     -0.149925    1.469175    0.612909
  H      1.381350   -0.900864   -0.543427
  H      2.060345    0.649391   -0.123070

 Total Charge           Charge          ....    0
 Multiplicity           Mult            ....    1
 Number of Electrons    NEL             ....   30
 Basis Dimension        Dim             ....   24

ORBITAL ENERGIES
----------------

  NO   OCC          E(Eh)            E(eV)
   0   2.0000     -20.370600      -554.3122
   1   2.0000     -11.296299      -307.3879
   2   2.0000     -11.203562      -304.8644
   3   2.0000     -11.192252      -304.5567
   4   2.0000      -1.394175       -37.9374
   5   2.0000      -1.089022       -29.6338
   6   2.0000      -0.905569       -24.6418
   7   2.0000      -0.773645       -21.0520
   8   2.0000      -0.698000       -18.9935
   9   2.0000      -0.644521       -17.5383
  10   2.0000      -0.609935       -16.5972
  11   2.0000      -0.562876       -15.3166
  12   2.0000      -0.495144       -13.4736
  13   2.0000      -0.419417       -11.4129
  14   2.0000      -0.409943       -11.1551
  15   0.0000       0.170842         4.6489
  16   0.0000       0.209961         5.7133
  17   0.0000       0.573984        15.6189
  18   0.0000       0.629833        17.1386
  19   0.0000       0.748203        20.3596

MULLIKEN ATOMIC CHARGES
-----------------------
   0 C :    0.150475
   1 O :   -0.334028
   2 C :   -0.150923
   3 C :   -0.257833
   4 H :    0.142734
   5 H :    0.155254
   6 H :    0.147578
   7 H :    0.146742
Sum of atomic charges:    0.0000000

LOEWDIN ATOMIC CHARGES
----------------------
   0 C :    0.141071
   1 O :   -0.245857
   2 C :   -0.103243
   3 C :   -0.154784
   4 H :    0.076865
   5 H :    0.103408
   6 H :    0.092390
   7 H :    0.090150

  Mayer bond orders larger than 0.100000
B(  0-C ,  1-O ) :   1.9393 B(  0-C ,  2-C ) :   1.0024 B(  0-C ,  4-H ) :   0.9270
B(  2-C ,  3-C ) :   1.9878 B(  2-C ,  5-H ) :   0.9469 B(  3-C ,  6-H ) :   0.9655
B(  3-C ,  7-H ) :   0.9659

-----------------------------------------------------------------------------
         ABSORPTION SPECTRUM VIA TRANSITION ELECTRIC DIPOLE MOMENTS
-----------------------------------------------------------------------------
State   Energy    Wavelength  fosc         T2        TX        TY        TZ
        (cm-1)      (nm)                 (au**2)    (au)      (au)      (au)
-----------------------------------------------------------------------------
   1   32750.7    305.3   0.000002473   0.00002  -0.00373  -0.00160   0.00289

Dispersion correction           -0.025247182
FINAL SINGLE POINT ENERGY      -189.325012532861

DIPOLE MOMENT
-------------
                                X             Y             Z
Electronic contribution:     -2.37864      -1.35175       1.01855
Nuclear contribution   :      2.73110       2.09929      -1.57030
                        -----------------------------------------
Total Dipole Moment    :      0.35245       0.74754      -0.55175
                        -----------------------------------------
Magnitude (a.u.)       :      0.99371
Magnitude (Debye)      :      2.52581

Rotational constants in cm-1:     0.930548     0.174409     0.158171
Rotational constants in MHz : 27897.114540  5228.644221  4741.838980

                             ****ORCA TERMINATED NORMALLY****
TOTAL RUN TIME: 0 days 0 hours 0 minutes 13 seconds 640 msec
