                         Program Version 5.0.3 -  RELEASE  -
|  1> ! B3LYP cc-pVDZ
|  2> !TightSCF
|  3> %scf
|  4>  ConvForced true
|  5>  convergence tight
|  6>  MaxIter 500
|  7> end
|  8>
|  9> %tddft
| 10>  nroots 1
| 11> end
| 12>
| 13> # 	5861
| 14> * xyz 0 1
| 15> 		C   -1.189082  -0.301960   0.031250
| 16> 		O   -1.243269  -1.484509  -0.114177
| 17> 		C   -0.052179   0.519062  -0.013998
| 18> 		C    1.250920  -0.010895  -0.005200
| 19> 		H   -2.133694   0.145223   0.209663
| 20> 		H   -0.013972   1.531270  -0.247908
| 21> 		H    1.379209  -0.986586   0.157679
| 22> 		H    2.066071   0.531483   0.029014
| 23> *
| 24>
| 25>                          ****END OF INPUT****

CARTESIAN COORDINATES (ANGSTROEM)
---------------------------------
  C     -1.189082   -0.301960    0.031250
  O     -1.243269   -1.484509   -0.114177
  C     -0.052179    0.519062   -0.013998
  C      1.250920   -0.010895   -0.005200
  H     -2.133694    0.145223    0.209663
  H     -0.013972    1.531270   -0.247908
  H      1.379209   -0.986586    0.157679
  H      2.066071    0.531483    0.029014

 Total Charge           Charge          ....    0
 Multiplicity           Mult            ....    1
 Number of Electrons    NEL             ....   30
 Basis Dimension        Dim             ....   76

ORBITAL ENERGIES
----------------

  NO   OCC          E(Eh)            E(eV)
   0   2.0000     -19.128167      -520.5039
   1   2.0000     -10.260077      -279.1909
   2   2.0000     -10.205274      -277.6996
   3   2.0000     -10.203340      -277.6470
   4   2.0000      -1.051506       -28.6129
   5   2.0000      -0.798880       -21.7386
   6   2.0000      -0.679489       -18.4898
   7   2.0000      -0.562370       -15.3029
   8   2.0000      -0.526531       -14.3276
   9   2.0000      -0.444165       -12.0863
  10   2.0000      -0.437011       -11.8917
  11   2.0000      -0.406399       -11.0587
  12   2.0000      -0.385449       -10.4886
  13   2.0000      -0.280938        -7.6447
  14   2.0000      -0.249651        -6.7933
  15   0.0000      -0.078638        -2.1399
  16   0.0000       0.057943         1.5767
  17   0.0000       0.083979         2.2852
  18   0.0000       0.108499         2.9524
  19   0.0000       0.131071         3.5666

MULLIKEN ATOMIC CHARGES
-----------------------
   0 C :    0.215808
   1 O :   -0.184645
   2 C :   -0.112993
   3 C :    0.161550
   4 H :   -0.047636
   5 H :   -0.021533
   6 H :   -0.002319
   7 H :   -0.008232
Sum of atomic charges:   -0.0000000

LOEWDIN ATOMIC CHARGES
----------------------
   0 C :   -0.065126
   1 O :    0.010704
   2 C :   -0.054790
   3 C :    0.094256
   4 H :   -0.012781
   5 H :    0.021884
   6 H :    0.005540
   7 H :    0.000312

  Mayer bond orders larger than 0.100000
B(  0-C ,  1-O ) :   2.2033 B(  0-C ,  2-C ) :   1.0753 B(  0-C ,  4-H ) :   0.9359
B(  1-O ,  3-C ) :   0.1090 B(  2-C ,  3-C ) :   1.9382 B(  2-C ,  5-H ) :   0.9525
B(  3-C ,  6-H ) :   0.9554 B(  3-C ,  7-H ) :   0.9508

-----------------------------------------------------------------------------
         ABSORPTION SPECTRUM VIA TRANSITION ELECTRIC DIPOLE MOMENTS
-----------------------------------------------------------------------------
State   Energy    Wavelength  fosc         T2        TX        TY        TZ
        (cm-1)      (nm)                 (au**2)    (au)      (au)      (au)
-----------------------------------------------------------------------------
   1   25366.4    394.2   0.000052245   0.00068  -0.02136  -0.00806   0.01253

FINAL SINGLE POINT ENERGY      -191.655117452211

DIPOLE MOMENT
-------------
                                X             Y             Z
Electronic contribution:     -1.90217      -1.57399      -0.15831
Nuclear contribution   :      2.43999       2.47079       0.24055
                        -----------------------------------------
Total Dipole Moment    :      0.53781       0.89681       0.08225
                        -----------------------------------------
Magnitude (a.u.)       :      1.04894
Magnitude (Debye)      :      2.66619

Rotational constants in cm-1:     0.802709     0.208356     0.166244
Rotational constants in MHz : 24064.625194  6246.348629  4983.863112

                             ****ORCA TERMINATED NORMALLY****
TOTAL RUN TIME: 0 days 0 hours 3 minutes 22 seconds 882 msec
