                         Program Version 5.0.3 -  RELEASE  -
|  1> ! HF-3c
|  2> !TightSCF
|  3> %scf
|  4>  ConvForced true
|  5>  convergence tight
|  6>  MaxIter 500
|  7> end
|  8>
|  9> %tddft
| 10>  nroots 1
| 11> end
| 12>
| 13> # 	7597
| 14> * xyz 0 1
| 15> 		C   -1.241674  -0.365425   0.013831
| 16> 		O   -2.153458  -0.351633  -0.638110
| 17> 		C    0.038649   0.347862  -0.443530
| 18> 		C    1.196486   0.178208   0.330362
| 19> 		H   -1.069281  -0.888138   0.865132
| 20> 		H   -0.155525   1.061815  -1.305454
| 21> 		H    1.266679  -0.592799   1.155678
| 22> 		H    2.137582   0.693184   0.034648
| 23> *
| 24>
| 25>                          ****END OF INPUT****

CARTESIAN COORDINATES (ANGSTROEM)
---------------------------------
  C     -1.241674   -0.365425    0.013831
  O     -2.153458   -0.351633   -0.638110
  C      0.038649    0.347862   -0.443530
  C      1.196486    0.178208    0.330362
  H     -1.069281   -0.888138    0.865132
  H     -0.155525    1.061815   -1.305454
  H      1.266679   -0.592799    1.155678
  H      2.137582    0.693184    0.034648

 Total Charge           Charge          ....    0
 Multiplicity           Mult            ....    1
 Number of Electrons    NEL             ....   30
 Basis Dimension        Dim             ....   24

ORBITAL ENERGIES
----------------

  NO   OCC          E(Eh)            E(eV)
   0   2.0000     -20.402249      -555.1734
   1   2.0000     -11.324102      -308.1445
   2   2.0000     -11.177773      -304.1627
   3   2.0000     -11.169955      -303.9499
   4   2.0000      -1.479992       -40.2726
   5   2.0000      -1.046706       -28.4823
   6   2.0000      -0.870609       -23.6905
   7   2.0000      -0.796432       -21.6720
   8   2.0000      -0.668763       -18.1980
   9   2.0000      -0.643974       -17.5234
  10   2.0000      -0.588136       -16.0040
  11   2.0000      -0.581503       -15.8235
  12   2.0000      -0.542942       -14.7742
  13   2.0000      -0.401952       -10.9377
  14   2.0000      -0.376200       -10.2369
  15   0.0000       0.144986         3.9453
  16   0.0000       0.301039         8.1917
  17   0.0000       0.532711        14.4958
  18   0.0000       0.586837        15.9686
  19   0.0000       0.629516        17.1300

MULLIKEN ATOMIC CHARGES
-----------------------
   0 C :    0.184868
   1 O :   -0.362428
   2 C :   -0.152649
   3 C :   -0.231378
   4 H :    0.134553
   5 H :    0.150368
   6 H :    0.138004
   7 H :    0.138661
Sum of atomic charges:   -0.0000000

LOEWDIN ATOMIC CHARGES
----------------------
   0 C :    0.148345
   1 O :   -0.232675
   2 C :   -0.121306
   3 C :   -0.140060
   4 H :    0.060365
   5 H :    0.101063
   6 H :    0.092900
   7 H :    0.091367

  Mayer bond orders larger than 0.100000
B(  0-C ,  1-O ) :   1.9285 B(  0-C ,  2-C ) :   0.9847 B(  0-C ,  4-H ) :   0.9191
B(  2-C ,  3-C ) :   1.9542 B(  2-C ,  5-H ) :   0.9590 B(  3-C ,  6-H ) :   0.9645
B(  3-C ,  7-H ) :   0.9668

-----------------------------------------------------------------------------
         ABSORPTION SPECTRUM VIA TRANSITION ELECTRIC DIPOLE MOMENTS
-----------------------------------------------------------------------------
State   Energy    Wavelength  fosc         T2        TX        TY        TZ
        (cm-1)      (nm)                 (au**2)    (au)      (au)      (au)
-----------------------------------------------------------------------------
   1   37256.0    268.4   0.000169466   0.00150   0.03072   0.00134  -0.02349

Dispersion correction           -0.025293902
FINAL SINGLE POINT ENERGY      -189.286909638079

DIPOLE MOMENT
-------------
                                X             Y             Z
Electronic contribution:     -3.28935      -0.45356      -0.91515
Nuclear contribution   :      4.18576       0.48174       1.40963
                        -----------------------------------------
Total Dipole Moment    :      0.89641       0.02818       0.49447
                        -----------------------------------------
Magnitude (a.u.)       :      1.02413
Magnitude (Debye)      :      2.60314

Rotational constants in cm-1:     1.470892     0.157091     0.142244
Rotational constants in MHz : 44096.242114  4709.464274  4264.373039

                             ****ORCA TERMINATED NORMALLY****
TOTAL RUN TIME: 0 days 0 hours 0 minutes 12 seconds 172 msec
