                         Program Version 5.0.3 -  RELEASE  -
|  1> ! HF-3c
|  2> !TightSCF
|  3> %scf
|  4>  ConvForced true
|  5>  convergence tight
|  6>  MaxIter 500
|  7> end
|  8>
|  9> %tddft
| 10>  nroots 1
| 11> end
| 12>
| 13> # 	2643
| 14> * xyz 0 1
| 15> 		C   -1.200181  -0.319776  -0.000828
| 16> 		O   -1.351387  -1.522980   0.351117
| 17> 		C   -0.020394   0.523824   0.146303
| 18> 		C    1.161529   0.039201  -0.043528
| 19> 		H   -1.950038   0.253125  -0.559618
| 20> 		H   -0.169360   1.567655   0.266106
| 21> 		H    1.379072  -1.074175  -0.077613
| 22> 		H    2.127250   0.613603  -0.081440
| 23> *
| 24>
| 25>                          ****END OF INPUT****

CARTESIAN COORDINATES (ANGSTROEM)
---------------------------------
  C     -1.200181   -0.319776   -0.000828
  O     -1.351387   -1.522980    0.351117
  C     -0.020394    0.523824    0.146303
  C      1.161529    0.039201   -0.043528
  H     -1.950038    0.253125   -0.559618
  H     -0.169360    1.567655    0.266106
  H      1.379072   -1.074175   -0.077613
  H      2.127250    0.613603   -0.081440

 Total Charge           Charge          ....    0
 Multiplicity           Mult            ....    1
 Number of Electrons    NEL             ....   30
 Basis Dimension        Dim             ....   24

ORBITAL ENERGIES
----------------

  NO   OCC          E(Eh)            E(eV)
   0   2.0000     -20.356699      -553.9339
   1   2.0000     -11.288799      -307.1838
   2   2.0000     -11.195263      -304.6386
   3   2.0000     -11.193360      -304.5868
   4   2.0000      -1.363498       -37.1027
   5   2.0000      -1.097769       -29.8718
   6   2.0000      -0.900288       -24.4981
   7   2.0000      -0.749279       -20.3889
   8   2.0000      -0.697258       -18.9733
   9   2.0000      -0.620950       -16.8969
  10   2.0000      -0.593275       -16.1438
  11   2.0000      -0.527380       -14.3507
  12   2.0000      -0.505071       -13.7437
  13   2.0000      -0.415529       -11.3071
  14   2.0000      -0.403505       -10.9799
  15   0.0000       0.138679         3.7737
  16   0.0000       0.281450         7.6586
  17   0.0000       0.542372        14.7587
  18   0.0000       0.624670        16.9981
  19   0.0000       0.634366        17.2620

MULLIKEN ATOMIC CHARGES
-----------------------
   0 C :    0.160078
   1 O :   -0.341065
   2 C :   -0.199486
   3 C :   -0.203364
   4 H :    0.136972
   5 H :    0.149544
   6 H :    0.153091
   7 H :    0.144229
Sum of atomic charges:   -0.0000000

LOEWDIN ATOMIC CHARGES
----------------------
   0 C :    0.155762
   1 O :   -0.263058
   2 C :   -0.148417
   3 C :   -0.111986
   4 H :    0.074531
   5 H :    0.094749
   6 H :    0.102914
   7 H :    0.095505

  Mayer bond orders larger than 0.100000
B(  0-C ,  1-O ) :   1.9145 B(  0-C ,  2-C ) :   1.0280 B(  0-C ,  4-H ) :   0.9252
B(  2-C ,  3-C ) :   1.9550 B(  2-C ,  5-H ) :   0.9524 B(  3-C ,  6-H ) :   0.9579
B(  3-C ,  7-H ) :   0.9615

-----------------------------------------------------------------------------
         ABSORPTION SPECTRUM VIA TRANSITION ELECTRIC DIPOLE MOMENTS
-----------------------------------------------------------------------------
State   Energy    Wavelength  fosc         T2        TX        TY        TZ
        (cm-1)      (nm)                 (au**2)    (au)      (au)      (au)
-----------------------------------------------------------------------------
   1   31230.0    320.2   0.000033886   0.00036  -0.01838   0.00004   0.00438

Dispersion correction           -0.025626923
FINAL SINGLE POINT ENERGY      -189.337641364588

DIPOLE MOMENT
-------------
                                X             Y             Z
Electronic contribution:     -2.21929      -1.67767       0.51471
Nuclear contribution   :      2.68782       2.60252      -0.84852
                        -----------------------------------------
Total Dipole Moment    :      0.46854       0.92485      -0.33381
                        -----------------------------------------
Magnitude (a.u.)       :      1.08918
Magnitude (Debye)      :      2.76847

Rotational constants in cm-1:     0.809022     0.195785     0.161294
Rotational constants in MHz : 24253.855754  5869.488014  4835.462846

                             ****ORCA TERMINATED NORMALLY****
TOTAL RUN TIME: 0 days 0 hours 0 minutes 10 seconds 665 msec
