                         Program Version 5.0.3 -  RELEASE  -
|  1> ! B3LYP cc-pVDZ
|  2> !TightSCF
|  3> %scf
|  4>  ConvForced true
|  5>  convergence tight
|  6>  MaxIter 500
|  7> end
|  8>
|  9> %tddft
| 10>  nroots 1
| 11> end
| 12>
| 13> # 	18194
| 14> * xyz 0 1
| 15> 		C   -1.222523  -0.305918   0.001792
| 16> 		O   -1.913344  -0.772072  -0.884313
| 17> 		C    0.014921   0.464563  -0.222742
| 18> 		C    1.192651  -0.017105   0.100595
| 19> 		H   -1.578563  -0.515708   1.103195
| 20> 		H    0.075372   1.313501  -1.054332
| 21> 		H    1.430408  -0.781183   0.765032
| 22> 		H    2.041597   0.557410   0.104226
| 23> *
| 24>
| 25>                          ****END OF INPUT****

CARTESIAN COORDINATES (ANGSTROEM)
---------------------------------
  C     -1.222523   -0.305918    0.001792
  O     -1.913344   -0.772072   -0.884313
  C      0.014921    0.464563   -0.222742
  C      1.192651   -0.017105    0.100595
  H     -1.578563   -0.515708    1.103195
  H      0.075372    1.313501   -1.054332
  H      1.430408   -0.781183    0.765032
  H      2.041597    0.557410    0.104226

 Total Charge           Charge          ....    0
 Multiplicity           Mult            ....    1
 Number of Electrons    NEL             ....   30
 Basis Dimension        Dim             ....   76

ORBITAL ENERGIES
----------------

  NO   OCC          E(Eh)            E(eV)
   0   2.0000     -19.144067      -520.9365
   1   2.0000     -10.286580      -279.9121
   2   2.0000     -10.217716      -278.0382
   3   2.0000     -10.197018      -277.4750
   4   2.0000      -1.047904       -28.5149
   5   2.0000      -0.806181       -21.9373
   6   2.0000      -0.656401       -17.8616
   7   2.0000      -0.561283       -15.2733
   8   2.0000      -0.484066       -13.1721
   9   2.0000      -0.471955       -12.8425
  10   2.0000      -0.437044       -11.8926
  11   2.0000      -0.384690       -10.4680
  12   2.0000      -0.370640       -10.0856
  13   2.0000      -0.295844        -8.0503
  14   2.0000      -0.255776        -6.9600
  15   0.0000      -0.058206        -1.5839
  16   0.0000       0.009022         0.2455
  17   0.0000       0.071725         1.9517
  18   0.0000       0.088581         2.4104
  19   0.0000       0.104800         2.8518

MULLIKEN ATOMIC CHARGES
-----------------------
   0 C :    0.156403
   1 O :   -0.183729
   2 C :   -0.109284
   3 C :    0.079153
   4 H :   -0.001617
   5 H :    0.051307
   6 H :   -0.000415
   7 H :    0.008182
Sum of atomic charges:   -0.0000000

LOEWDIN ATOMIC CHARGES
----------------------
   0 C :   -0.028207
   1 O :    0.000860
   2 C :   -0.066182
   3 C :   -0.009689
   4 H :    0.002538
   5 H :    0.063979
   6 H :    0.016377
   7 H :    0.020325

  Mayer bond orders larger than 0.100000
B(  0-C ,  1-O ) :   2.2033 B(  0-C ,  2-C ) :   0.9966 B(  0-C ,  4-H ) :   0.9073
B(  2-C ,  3-C ) :   2.0122 B(  2-C ,  5-H ) :   0.9142 B(  3-C ,  6-H ) :   0.9603
B(  3-C ,  7-H ) :   0.9445

-----------------------------------------------------------------------------
         ABSORPTION SPECTRUM VIA TRANSITION ELECTRIC DIPOLE MOMENTS
-----------------------------------------------------------------------------
State   Energy    Wavelength  fosc         T2        TX        TY        TZ
        (cm-1)      (nm)                 (au**2)    (au)      (au)      (au)
-----------------------------------------------------------------------------
   1   30203.9    331.1   0.002267338   0.02471   0.15609   0.01749   0.00652

FINAL SINGLE POINT ENERGY      -191.636164434783

DIPOLE MOMENT
-------------
                                X             Y             Z
Electronic contribution:     -2.98337      -0.79716      -1.27677
Nuclear contribution   :      3.75460       1.20407       1.83399
                        -----------------------------------------
Total Dipole Moment    :      0.77123       0.40690       0.55722
                        -----------------------------------------
Magnitude (a.u.)       :      1.03482
Magnitude (Debye)      :      2.63030

Rotational constants in cm-1:     1.144622     0.159754     0.155555
Rotational constants in MHz : 34314.918997  4789.297449  4663.427975

                             ****ORCA TERMINATED NORMALLY****
TOTAL RUN TIME: 0 days 0 hours 3 minutes 8 seconds 153 msec
