                         Program Version 5.0.3 -  RELEASE  -
|  1> ! B3LYP cc-pVDZ
|  2> !TightSCF
|  3> %scf
|  4>  ConvForced true
|  5>  convergence tight
|  6>  MaxIter 500
|  7> end
|  8>
|  9> %tddft
| 10>  nroots 1
| 11> end
| 12>
| 13> # 	24357
| 14> * xyz 0 1
| 15> 		C   -0.551809  -0.393317   0.051587
| 16> 		O   -0.564950  -1.598864  -0.032948
| 17> 		C    0.595450   0.360956  -0.003052
| 18> 		C    1.844042  -0.142403   0.005599
| 19> 		H   -1.473880   0.144971   0.060596
| 20> 		H    0.239352   1.421593  -0.295893
| 21> 		H    1.871035  -1.312081   0.103689
| 22> 		H    2.750938   0.471826  -0.006611
| 23> *
| 24>
| 25>                          ****END OF INPUT****

CARTESIAN COORDINATES (ANGSTROEM)
---------------------------------
  C     -0.551809   -0.393317    0.051587
  O     -0.564950   -1.598864   -0.032948
  C      0.595450    0.360956   -0.003052
  C      1.844042   -0.142403    0.005599
  H     -1.473880    0.144971    0.060596
  H      0.239352    1.421593   -0.295893
  H      1.871035   -1.312081    0.103689
  H      2.750938    0.471826   -0.006611

 Total Charge           Charge          ....    0
 Multiplicity           Mult            ....    1
 Number of Electrons    NEL             ....   30
 Basis Dimension        Dim             ....   76

ORBITAL ENERGIES
----------------

  NO   OCC          E(Eh)            E(eV)
   0   2.0000     -19.128547      -520.5142
   1   2.0000     -10.256604      -279.0964
   2   2.0000     -10.226827      -278.2861
   3   2.0000     -10.203198      -277.6431
   4   2.0000      -1.043726       -28.4012
   5   2.0000      -0.802150       -21.8276
   6   2.0000      -0.676477       -18.4079
   7   2.0000      -0.537763       -14.6333
   8   2.0000      -0.500643       -13.6232
   9   2.0000      -0.448530       -12.2051
  10   2.0000      -0.427586       -11.6352
  11   2.0000      -0.404048       -10.9947
  12   2.0000      -0.365555        -9.9472
  13   2.0000      -0.285189        -7.7604
  14   2.0000      -0.252272        -6.8647
  15   0.0000      -0.077899        -2.1197
  16   0.0000       0.055324         1.5055
  17   0.0000       0.077052         2.0967
  18   0.0000       0.080815         2.1991
  19   0.0000       0.130638         3.5548

MULLIKEN ATOMIC CHARGES
-----------------------
   0 C :    0.194994
   1 O :   -0.202145
   2 C :   -0.115070
   3 C :    0.051905
   4 H :   -0.043000
   5 H :    0.000417
   6 H :    0.067609
   7 H :    0.045291
Sum of atomic charges:   -0.0000000

LOEWDIN ATOMIC CHARGES
----------------------
   0 C :   -0.065698
   1 O :   -0.003326
   2 C :   -0.091667
   3 C :    0.032328
   4 H :   -0.006176
   5 H :    0.042225
   6 H :    0.057367
   7 H :    0.034947

  Mayer bond orders larger than 0.100000
B(  0-C ,  1-O ) :   2.1733 B(  0-C ,  2-C ) :   1.1455 B(  0-C ,  4-H ) :   0.9238
B(  1-O ,  3-C ) :   0.1175 B(  2-C ,  3-C ) :   1.9193 B(  2-C ,  5-H ) :   0.9353
B(  3-C ,  6-H ) :   0.9160 B(  3-C ,  7-H ) :   0.9402

-----------------------------------------------------------------------------
         ABSORPTION SPECTRUM VIA TRANSITION ELECTRIC DIPOLE MOMENTS
-----------------------------------------------------------------------------
State   Energy    Wavelength  fosc         T2        TX        TY        TZ
        (cm-1)      (nm)                 (au**2)    (au)      (au)      (au)
-----------------------------------------------------------------------------
   1   25622.4    390.3   0.000278247   0.00358   0.04035   0.01466  -0.04161

FINAL SINGLE POINT ENERGY      -191.668718072292

DIPOLE MOMENT
-------------
                                X             Y             Z
Electronic contribution:     -1.58369      -1.60063       0.13515
Nuclear contribution   :      2.02398       2.46861      -0.12907
                        -----------------------------------------
Total Dipole Moment    :      0.44030       0.86797       0.00608
                        -----------------------------------------
Magnitude (a.u.)       :      0.97328
Magnitude (Debye)      :      2.47388

Rotational constants in cm-1:     0.769023     0.221515     0.172514
Rotational constants in MHz : 23054.722067  6640.861483  5171.853740

                             ****ORCA TERMINATED NORMALLY****
TOTAL RUN TIME: 0 days 0 hours 3 minutes 11 seconds 263 msec
