                         Program Version 5.0.3 -  RELEASE  -
|  1> ! HF-3c
|  2> !TightSCF
|  3> %scf
|  4>  ConvForced true
|  5>  convergence tight
|  6>  MaxIter 500
|  7> end
|  8>
|  9> %tddft
| 10>  nroots 1
| 11> end
| 12>
| 13> # 	9188
| 14> * xyz 0 1
| 15> 		C   -1.151168  -0.306676   0.032676
| 16> 		O   -1.747125  -1.007669   0.855939
| 17> 		C    0.014280   0.500448   0.303124
| 18> 		C    1.203748   0.027290  -0.143537
| 19> 		H   -1.591360  -0.432746  -0.999420
| 20> 		H   -0.214955   1.417412   0.923684
| 21> 		H    1.278377  -0.881921  -0.859039
| 22> 		H    2.193669   0.659684  -0.048337
| 23> *
| 24>
| 25>                          ****END OF INPUT****

CARTESIAN COORDINATES (ANGSTROEM)
---------------------------------
  C     -1.151168   -0.306676    0.032676
  O     -1.747125   -1.007669    0.855939
  C      0.014280    0.500448    0.303124
  C      1.203748    0.027290   -0.143537
  H     -1.591360   -0.432746   -0.999420
  H     -0.214955    1.417412    0.923684
  H      1.278377   -0.881921   -0.859039
  H      2.193669    0.659684   -0.048337

 Total Charge           Charge          ....    0
 Multiplicity           Mult            ....    1
 Number of Electrons    NEL             ....   30
 Basis Dimension        Dim             ....   24

ORBITAL ENERGIES
----------------

  NO   OCC          E(Eh)            E(eV)
   0   2.0000     -20.351484      -553.7920
   1   2.0000     -11.282147      -307.0028
   2   2.0000     -11.191788      -304.5440
   3   2.0000     -11.184286      -304.3399
   4   2.0000      -1.380864       -37.5752
   5   2.0000      -1.073217       -29.2037
   6   2.0000      -0.866944       -23.5907
   7   2.0000      -0.755241       -20.5512
   8   2.0000      -0.661516       -18.0008
   9   2.0000      -0.625140       -17.0109
  10   2.0000      -0.588757       -16.0209
  11   2.0000      -0.525460       -14.2985
  12   2.0000      -0.485042       -13.1987
  13   2.0000      -0.406011       -11.0481
  14   2.0000      -0.390467       -10.6251
  15   0.0000       0.169170         4.6033
  16   0.0000       0.227140         6.1808
  17   0.0000       0.521677        14.1955
  18   0.0000       0.574275        15.6268
  19   0.0000       0.590514        16.0687

MULLIKEN ATOMIC CHARGES
-----------------------
   0 C :    0.149962
   1 O :   -0.345196
   2 C :   -0.178847
   3 C :   -0.209741
   4 H :    0.138578
   5 H :    0.160803
   6 H :    0.142057
   7 H :    0.142384
Sum of atomic charges:    0.0000000

LOEWDIN ATOMIC CHARGES
----------------------
   0 C :    0.138589
   1 O :   -0.259766
   2 C :   -0.133462
   3 C :   -0.129735
   4 H :    0.077601
   5 H :    0.110468
   6 H :    0.097501
   7 H :    0.098805

  Mayer bond orders larger than 0.100000
B(  0-C ,  1-O ) :   1.9259 B(  0-C ,  2-C ) :   1.0147 B(  0-C ,  4-H ) :   0.9235
B(  2-C ,  3-C ) :   1.9765 B(  2-C ,  5-H ) :   0.9446 B(  3-C ,  6-H ) :   0.9617
B(  3-C ,  7-H ) :   0.9602

-----------------------------------------------------------------------------
         ABSORPTION SPECTRUM VIA TRANSITION ELECTRIC DIPOLE MOMENTS
-----------------------------------------------------------------------------
State   Energy    Wavelength  fosc         T2        TX        TY        TZ
        (cm-1)      (nm)                 (au**2)    (au)      (au)      (au)
-----------------------------------------------------------------------------
   1   32298.9    309.6   0.000019255   0.00020  -0.00341  -0.01052  -0.00859

Dispersion correction           -0.024920393
FINAL SINGLE POINT ENERGY      -189.314291498691

DIPOLE MOMENT
-------------
                                X             Y             Z
Electronic contribution:     -2.55194      -0.97610       1.23843
Nuclear contribution   :      3.24850       1.55369      -1.91851
                        -----------------------------------------
Total Dipole Moment    :      0.69656       0.57759      -0.68008
                        -----------------------------------------
Magnitude (a.u.)       :      1.13195
Magnitude (Debye)      :      2.87719

Rotational constants in cm-1:     1.014305     0.165328     0.158962
Rotational constants in MHz : 30408.102898  4956.415475  4765.555687

                             ****ORCA TERMINATED NORMALLY****
TOTAL RUN TIME: 0 days 0 hours 0 minutes 10 seconds 686 msec
