                         Program Version 5.0.3 -  RELEASE  -
|  1> ! HF-3c
|  2> !TightSCF
|  3> %scf
|  4>  ConvForced true
|  5>  convergence tight
|  6>  MaxIter 500
|  7> end
|  8>
|  9> %tddft
| 10>  nroots 1
| 11> end
| 12>
| 13> # 	26066
| 14> * xyz 0 1
| 15> 		C   -0.493694  -0.439948  -0.074057
| 16> 		O   -0.649081  -1.685798   0.023857
| 17> 		C    0.598903   0.416479   0.070673
| 18> 		C    1.859618  -0.087716  -0.012726
| 19> 		H   -1.534234   0.278853  -0.049202
| 20> 		H    0.654006   1.491231   0.071291
| 21> 		H    2.104369  -1.055665   0.085876
| 22> 		H    2.676305   0.630954  -0.307930
| 23> *
| 24>
| 25>                          ****END OF INPUT****

CARTESIAN COORDINATES (ANGSTROEM)
---------------------------------
  C     -0.493694   -0.439948   -0.074057
  O     -0.649081   -1.685798    0.023857
  C      0.598903    0.416479    0.070673
  C      1.859618   -0.087716   -0.012726
  H     -1.534234    0.278853   -0.049202
  H      0.654006    1.491231    0.071291
  H      2.104369   -1.055665    0.085876
  H      2.676305    0.630954   -0.307930

 Total Charge           Charge          ....    0
 Multiplicity           Mult            ....    1
 Number of Electrons    NEL             ....   30
 Basis Dimension        Dim             ....   24

ORBITAL ENERGIES
----------------

  NO   OCC          E(Eh)            E(eV)
   0   2.0000     -20.341367      -553.5167
   1   2.0000     -11.282700      -307.0179
   2   2.0000     -11.206410      -304.9419
   3   2.0000     -11.195886      -304.6555
   4   2.0000      -1.355394       -36.8822
   5   2.0000      -1.098282       -29.8858
   6   2.0000      -0.903625       -24.5889
   7   2.0000      -0.755914       -20.5695
   8   2.0000      -0.684579       -18.6283
   9   2.0000      -0.608790       -16.5660
  10   2.0000      -0.573431       -15.6039
  11   2.0000      -0.542298       -14.7567
  12   2.0000      -0.523372       -14.2417
  13   2.0000      -0.392522       -10.6811
  14   2.0000      -0.379367       -10.3231
  15   0.0000       0.102710         2.7949
  16   0.0000       0.306476         8.3396
  17   0.0000       0.488794        13.3008
  18   0.0000       0.572174        15.5697
  19   0.0000       0.629225        17.1221

MULLIKEN ATOMIC CHARGES
-----------------------
   0 C :    0.166879
   1 O :   -0.355310
   2 C :   -0.200968
   3 C :   -0.187326
   4 H :    0.117730
   5 H :    0.156757
   6 H :    0.153598
   7 H :    0.148639
Sum of atomic charges:   -0.0000000

LOEWDIN ATOMIC CHARGES
----------------------
   0 C :    0.148394
   1 O :   -0.278383
   2 C :   -0.154105
   3 C :   -0.078835
   4 H :    0.069545
   5 H :    0.101865
   6 H :    0.091659
   7 H :    0.099861

  Mayer bond orders larger than 0.100000
B(  0-C ,  1-O ) :   1.8678 B(  0-C ,  2-C ) :   1.0933 B(  0-C ,  4-H ) :   0.9096
B(  2-C ,  3-C ) :   1.8810 B(  2-C ,  5-H ) :   0.9561 B(  3-C ,  6-H ) :   0.9660
B(  3-C ,  7-H ) :   0.9659

-----------------------------------------------------------------------------
         ABSORPTION SPECTRUM VIA TRANSITION ELECTRIC DIPOLE MOMENTS
-----------------------------------------------------------------------------
State   Energy    Wavelength  fosc         T2        TX        TY        TZ
        (cm-1)      (nm)                 (au**2)    (au)      (au)      (au)
-----------------------------------------------------------------------------
   1   28154.5    355.2   0.000436744   0.00511   0.06898  -0.01450  -0.01178

Dispersion correction           -0.025652107
FINAL SINGLE POINT ENERGY      -189.307630099540

DIPOLE MOMENT
-------------
                                X             Y             Z
Electronic contribution:     -1.86774      -1.94409       0.07998
Nuclear contribution   :      2.49746       3.04833      -0.18635
                        -----------------------------------------
Total Dipole Moment    :      0.62972       1.10424      -0.10637
                        -----------------------------------------
Magnitude (a.u.)       :      1.27562
Magnitude (Debye)      :      3.24237

Rotational constants in cm-1:     0.791062     0.198797     0.159616
Rotational constants in MHz : 23715.436539  5959.799107  4785.170036

                             ****ORCA TERMINATED NORMALLY****
TOTAL RUN TIME: 0 days 0 hours 0 minutes 12 seconds 611 msec
