                         Program Version 5.0.3 -  RELEASE  -
|  1> ! B3LYP cc-pVDZ
|  2> !TightSCF
|  3> %scf
|  4>  ConvForced true
|  5>  convergence tight
|  6>  MaxIter 500
|  7> end
|  8>
|  9> %tddft
| 10>  nroots 1
| 11> end
| 12>
| 13> # 	12403
| 14> * xyz 0 1
| 15> 		C   -1.238432  -0.342198  -0.063668
| 16> 		O   -1.281272  -1.509868  -0.196320
| 17> 		C    0.017559   0.510312  -0.064421
| 18> 		C    1.262793  -0.004704   0.039999
| 19> 		H   -2.140342   0.290634   0.210218
| 20> 		H   -0.260959   1.481597  -0.096051
| 21> 		H    1.499116  -1.003454   0.140797
| 22> 		H    2.145167   0.652615   0.048987
| 23> *
| 24>
| 25>                          ****END OF INPUT****

CARTESIAN COORDINATES (ANGSTROEM)
---------------------------------
  C     -1.238432   -0.342198   -0.063668
  O     -1.281272   -1.509868   -0.196320
  C      0.017559    0.510312   -0.064421
  C      1.262793   -0.004704    0.039999
  H     -2.140342    0.290634    0.210218
  H     -0.260959    1.481597   -0.096051
  H      1.499116   -1.003454    0.140797
  H      2.145167    0.652615    0.048987

 Total Charge           Charge          ....    0
 Multiplicity           Mult            ....    1
 Number of Electrons    NEL             ....   30
 Basis Dimension        Dim             ....   76

ORBITAL ENERGIES
----------------

  NO   OCC          E(Eh)            E(eV)
   0   2.0000     -19.140959      -520.8520
   1   2.0000     -10.274376      -279.5800
   2   2.0000     -10.211300      -277.8636
   3   2.0000     -10.199848      -277.5520
   4   2.0000      -1.066066       -29.0091
   5   2.0000      -0.790266       -21.5042
   6   2.0000      -0.661663       -18.0048
   7   2.0000      -0.548797       -14.9335
   8   2.0000      -0.501785       -13.6543
   9   2.0000      -0.458686       -12.4815
  10   2.0000      -0.433839       -11.8054
  11   2.0000      -0.404162       -10.9978
  12   2.0000      -0.391545       -10.6545
  13   2.0000      -0.287344        -7.8190
  14   2.0000      -0.252911        -6.8821
  15   0.0000      -0.064795        -1.7632
  16   0.0000       0.056575         1.5395
  17   0.0000       0.073135         1.9901
  18   0.0000       0.093710         2.5500
  19   0.0000       0.130868         3.5611

MULLIKEN ATOMIC CHARGES
-----------------------
   0 C :    0.154002
   1 O :   -0.153652
   2 C :   -0.074707
   3 C :    0.098517
   4 H :   -0.030387
   5 H :   -0.044298
   6 H :    0.015601
   7 H :    0.034925
Sum of atomic charges:   -0.0000000

LOEWDIN ATOMIC CHARGES
----------------------
   0 C :   -0.055288
   1 O :    0.033678
   2 C :   -0.059760
   3 C :    0.034386
   4 H :   -0.011297
   5 H :    0.005146
   6 H :    0.017189
   7 H :    0.035946

  Mayer bond orders larger than 0.100000
B(  0-C ,  1-O ) :   2.2528 B(  0-C ,  2-C ) :   1.0399 B(  0-C ,  4-H ) :   0.8966
B(  2-C ,  3-C ) :   1.9689 B(  2-C ,  5-H ) :   0.9492 B(  3-C ,  6-H ) :   0.9434
B(  3-C ,  7-H ) :   0.9492

-----------------------------------------------------------------------------
         ABSORPTION SPECTRUM VIA TRANSITION ELECTRIC DIPOLE MOMENTS
-----------------------------------------------------------------------------
State   Energy    Wavelength  fosc         T2        TX        TY        TZ
        (cm-1)      (nm)                 (au**2)    (au)      (au)      (au)
-----------------------------------------------------------------------------
   1   28755.3    347.8   0.000082595   0.00095   0.01525   0.00803   0.02547

FINAL SINGLE POINT ENERGY      -191.664199163465

DIPOLE MOMENT
-------------
                                X             Y             Z
Electronic contribution:     -1.98331      -1.90634      -0.42147
Nuclear contribution   :      2.40669       2.70632       0.54384
                        -----------------------------------------
Total Dipole Moment    :      0.42338       0.79998       0.12237
                        -----------------------------------------
Magnitude (a.u.)       :      0.91334
Magnitude (Debye)      :      2.32153

Rotational constants in cm-1:     0.800332     0.196175     0.158221
Rotational constants in MHz : 23993.346428  5881.173051  4743.355670

                             ****ORCA TERMINATED NORMALLY****
TOTAL RUN TIME: 0 days 0 hours 3 minutes 14 seconds 223 msec
