                         Program Version 5.0.3 -  RELEASE  -
|  1> ! HF-3c
|  2> !TightSCF
|  3> %scf
|  4>  ConvForced true
|  5>  convergence tight
|  6>  MaxIter 500
|  7> end
|  8>
|  9> %tddft
| 10>  nroots 1
| 11> end
| 12>
| 13> # 	3629
| 14> * xyz 0 1
| 15> 		C   -1.206312  -0.320098   0.028292
| 16> 		O   -1.452964  -1.325911   0.663473
| 17> 		C   -0.017655   0.489667   0.196681
| 18> 		C    1.199235  -0.047098  -0.106371
| 19> 		H   -1.966765   0.138629  -0.622624
| 20> 		H   -0.104544   1.608049   0.394713
| 21> 		H    1.394282  -1.052123  -0.468944
| 22> 		H    2.159442   0.545894  -0.082405
| 23> *
| 24>
| 25>                          ****END OF INPUT****

CARTESIAN COORDINATES (ANGSTROEM)
---------------------------------
  C     -1.206312   -0.320098    0.028292
  O     -1.452964   -1.325911    0.663473
  C     -0.017655    0.489667    0.196681
  C      1.199235   -0.047098   -0.106371
  H     -1.966765    0.138629   -0.622624
  H     -0.104544    1.608049    0.394713
  H      1.394282   -1.052123   -0.468944
  H      2.159442    0.545894   -0.082405

 Total Charge           Charge          ....    0
 Multiplicity           Mult            ....    1
 Number of Electrons    NEL             ....   30
 Basis Dimension        Dim             ....   24

ORBITAL ENERGIES
----------------

  NO   OCC          E(Eh)            E(eV)
   0   2.0000     -20.368587      -554.2574
   1   2.0000     -11.297342      -307.4163
   2   2.0000     -11.188345      -304.4504
   3   2.0000     -11.182568      -304.2932
   4   2.0000      -1.399849       -38.0918
   5   2.0000      -1.069853       -29.1122
   6   2.0000      -0.889663       -24.2089
   7   2.0000      -0.751649       -20.4534
   8   2.0000      -0.690141       -18.7797
   9   2.0000      -0.613871       -16.7043
  10   2.0000      -0.605856       -16.4862
  11   2.0000      -0.534179       -14.5358
  12   2.0000      -0.507176       -13.8010
  13   2.0000      -0.413451       -11.2506
  14   2.0000      -0.387241       -10.5374
  15   0.0000       0.153257         4.1703
  16   0.0000       0.248938         6.7740
  17   0.0000       0.551835        15.0162
  18   0.0000       0.607784        16.5386
  19   0.0000       0.661808        18.0087

MULLIKEN ATOMIC CHARGES
-----------------------
   0 C :    0.160273
   1 O :   -0.342664
   2 C :   -0.171575
   3 C :   -0.216230
   4 H :    0.136187
   5 H :    0.153977
   6 H :    0.142696
   7 H :    0.137335
Sum of atomic charges:   -0.0000000

LOEWDIN ATOMIC CHARGES
----------------------
   0 C :    0.146311
   1 O :   -0.250245
   2 C :   -0.132048
   3 C :   -0.124649
   4 H :    0.072610
   5 H :    0.105885
   6 H :    0.091408
   7 H :    0.090729

  Mayer bond orders larger than 0.100000
B(  0-C ,  1-O ) :   1.9217 B(  0-C ,  2-C ) :   1.0240 B(  0-C ,  4-H ) :   0.9196
B(  2-C ,  3-C ) :   1.9605 B(  2-C ,  5-H ) :   0.9479 B(  3-C ,  6-H ) :   0.9663
B(  3-C ,  7-H ) :   0.9658

-----------------------------------------------------------------------------
         ABSORPTION SPECTRUM VIA TRANSITION ELECTRIC DIPOLE MOMENTS
-----------------------------------------------------------------------------
State   Energy    Wavelength  fosc         T2        TX        TY        TZ
        (cm-1)      (nm)                 (au**2)    (au)      (au)      (au)
-----------------------------------------------------------------------------
   1   33441.6    299.0   0.000186143   0.00183  -0.04072  -0.00689  -0.01125

Dispersion correction           -0.025101241
FINAL SINGLE POINT ENERGY      -189.326171376884

DIPOLE MOMENT
-------------
                                X             Y             Z
Electronic contribution:     -2.40091      -1.54184       0.92389
Nuclear contribution   :      2.85095       2.38680      -1.47753
                        -----------------------------------------
Total Dipole Moment    :      0.45004       0.84496      -0.55364
                        -----------------------------------------
Magnitude (a.u.)       :      1.10590
Magnitude (Debye)      :      2.81098

Rotational constants in cm-1:     0.830816     0.187979     0.162646
Rotational constants in MHz : 24907.227383  5635.474392  4876.018650

                             ****ORCA TERMINATED NORMALLY****
TOTAL RUN TIME: 0 days 0 hours 0 minutes 12 seconds 139 msec
