                         Program Version 5.0.3 -  RELEASE  -
|  1> ! HF-3c
|  2> !TightSCF
|  3> %scf
|  4>  ConvForced true
|  5>  convergence tight
|  6>  MaxIter 500
|  7> end
|  8>
|  9> %tddft
| 10>  nroots 1
| 11> end
| 12>
| 13> # 	2639
| 14> * xyz 0 1
| 15> 		C   -1.136848  -0.308212   0.114477
| 16> 		O   -2.206741  -0.274224   0.721394
| 17> 		C    0.054325   0.358379   0.416949
| 18> 		C    1.073076   0.277440  -0.375329
| 19> 		H   -1.114152  -1.001168  -0.934477
| 20> 		H    0.081087   0.786963   1.323145
| 21> 		H    1.207029  -0.507005  -1.181897
| 22> 		H    2.009827   0.663921  -0.087316
| 23> *
| 24>
| 25>                          ****END OF INPUT****

CARTESIAN COORDINATES (ANGSTROEM)
---------------------------------
  C     -1.136848   -0.308212    0.114477
  O     -2.206741   -0.274224    0.721394
  C      0.054325    0.358379    0.416949
  C      1.073076    0.277440   -0.375329
  H     -1.114152   -1.001168   -0.934477
  H      0.081087    0.786963    1.323145
  H      1.207029   -0.507005   -1.181897
  H      2.009827    0.663921   -0.087316

 Total Charge           Charge          ....    0
 Multiplicity           Mult            ....    1
 Number of Electrons    NEL             ....   30
 Basis Dimension        Dim             ....   24

ORBITAL ENERGIES
----------------

  NO   OCC          E(Eh)            E(eV)
   0   2.0000     -20.351873      -553.8026
   1   2.0000     -11.286269      -307.1150
   2   2.0000     -11.210680      -305.0581
   3   2.0000     -11.209822      -305.0348
   4   2.0000      -1.380919       -37.5767
   5   2.0000      -1.123131       -30.5620
   6   2.0000      -0.897532       -24.4231
   7   2.0000      -0.776758       -21.1367
   8   2.0000      -0.674943       -18.3661
   9   2.0000      -0.652657       -17.7597
  10   2.0000      -0.572086       -15.5673
  11   2.0000      -0.551368       -15.0035
  12   2.0000      -0.538097       -14.6424
  13   2.0000      -0.407835       -11.0978
  14   2.0000      -0.399310       -10.8658
  15   0.0000       0.118835         3.2337
  16   0.0000       0.316623         8.6158
  17   0.0000       0.502584        13.6760
  18   0.0000       0.557372        15.1669
  19   0.0000       0.669834        18.2271

MULLIKEN ATOMIC CHARGES
-----------------------
   0 C :    0.181342
   1 O :   -0.354142
   2 C :   -0.207830
   3 C :   -0.206290
   4 H :    0.120366
   5 H :    0.164734
   6 H :    0.153926
   7 H :    0.147893
Sum of atomic charges:    0.0000000

LOEWDIN ATOMIC CHARGES
----------------------
   0 C :    0.150745
   1 O :   -0.266587
   2 C :   -0.144947
   3 C :   -0.107821
   4 H :    0.070703
   5 H :    0.100379
   6 H :    0.104789
   7 H :    0.092737

  Mayer bond orders larger than 0.100000
B(  0-C ,  1-O ) :   1.8873 B(  0-C ,  2-C ) :   1.0619 B(  0-C ,  4-H ) :   0.9111
B(  2-C ,  3-C ) :   1.9256 B(  2-C ,  5-H ) :   0.9489 B(  3-C ,  6-H ) :   0.9593
B(  3-C ,  7-H ) :   0.9635

-----------------------------------------------------------------------------
         ABSORPTION SPECTRUM VIA TRANSITION ELECTRIC DIPOLE MOMENTS
-----------------------------------------------------------------------------
State   Energy    Wavelength  fosc         T2        TX        TY        TZ
        (cm-1)      (nm)                 (au**2)    (au)      (au)      (au)
-----------------------------------------------------------------------------
   1   30658.0    326.2   0.000053073   0.00057   0.01811  -0.00722   0.01378

Dispersion correction           -0.026124258
FINAL SINGLE POINT ENERGY      -189.315467495814

DIPOLE MOMENT
-------------
                                X             Y             Z
Electronic contribution:     -3.04967      -0.04384       1.11516
Nuclear contribution   :      4.24838      -0.02352      -1.65738
                        -----------------------------------------
Total Dipole Moment    :      1.19871      -0.06736      -0.54221
                        -----------------------------------------
Magnitude (a.u.)       :      1.31736
Magnitude (Debye)      :      3.34846

Rotational constants in cm-1:     1.657196     0.160535     0.146602
Rotational constants in MHz : 49681.473172  4812.706053  4395.028059

                             ****ORCA TERMINATED NORMALLY****
TOTAL RUN TIME: 0 days 0 hours 0 minutes 11 seconds 263 msec
