                         Program Version 5.0.3 -  RELEASE  -
|  1> ! B3LYP cc-pVDZ
|  2> !TightSCF
|  3> %scf
|  4>  ConvForced true
|  5>  convergence tight
|  6>  MaxIter 500
|  7> end
|  8>
|  9> %tddft
| 10>  nroots 1
| 11> end
| 12>
| 13> # 	31463
| 14> * xyz 0 1
| 15> 		C   -0.553339  -0.423486   0.000752
| 16> 		O   -0.595248  -1.662551   0.005171
| 17> 		C    0.640772   0.427356  -0.013034
| 18> 		C    1.817451  -0.111297   0.004591
| 19> 		H   -1.484088   0.254656  -0.000224
| 20> 		H    0.525766   1.453469   0.030679
| 21> 		H    2.063938  -1.228480  -0.109716
| 22> 		H    2.628156   0.467709   0.096980
| 23> *
| 24>
| 25>                          ****END OF INPUT****

CARTESIAN COORDINATES (ANGSTROEM)
---------------------------------
  C     -0.553339   -0.423486    0.000752
  O     -0.595248   -1.662551    0.005171
  C      0.640772    0.427356   -0.013034
  C      1.817451   -0.111297    0.004591
  H     -1.484088    0.254656   -0.000224
  H      0.525766    1.453469    0.030679
  H      2.063938   -1.228480   -0.109716
  H      2.628156    0.467709    0.096980

 Total Charge           Charge          ....    0
 Multiplicity           Mult            ....    1
 Number of Electrons    NEL             ....   30
 Basis Dimension        Dim             ....   76

ORBITAL ENERGIES
----------------

  NO   OCC          E(Eh)            E(eV)
   0   2.0000     -19.140532      -520.8403
   1   2.0000     -10.278025      -279.6793
   2   2.0000     -10.205814      -277.7143
   3   2.0000     -10.195556      -277.4352
   4   2.0000      -1.029180       -28.0054
   5   2.0000      -0.811572       -22.0840
   6   2.0000      -0.665626       -18.1126
   7   2.0000      -0.545193       -14.8355
   8   2.0000      -0.515486       -14.0271
   9   2.0000      -0.448030       -12.1915
  10   2.0000      -0.419323       -11.4104
  11   2.0000      -0.392860       -10.6903
  12   2.0000      -0.382898       -10.4192
  13   2.0000      -0.294700        -8.0192
  14   2.0000      -0.255523        -6.9531
  15   0.0000      -0.071544        -1.9468
  16   0.0000       0.063293         1.7223
  17   0.0000       0.069750         1.8980
  18   0.0000       0.088177         2.3994
  19   0.0000       0.122868         3.3434

MULLIKEN ATOMIC CHARGES
-----------------------
   0 C :    0.180279
   1 O :   -0.210635
   2 C :   -0.083688
   3 C :    0.121359
   4 H :   -0.018741
   5 H :   -0.033553
   6 H :    0.051350
   7 H :   -0.006372
Sum of atomic charges:    0.0000000

LOEWDIN ATOMIC CHARGES
----------------------
   0 C :   -0.015082
   1 O :   -0.030444
   2 C :   -0.078307
   3 C :    0.049100
   4 H :   -0.004447
   5 H :    0.020788
   6 H :    0.051026
   7 H :    0.007366

  Mayer bond orders larger than 0.100000
B(  0-C ,  1-O ) :   2.1737 B(  0-C ,  2-C ) :   1.0734 B(  0-C ,  4-H ) :   0.9068
B(  2-C ,  3-C ) :   1.9782 B(  2-C ,  5-H ) :   0.9419 B(  3-C ,  6-H ) :   0.9383
B(  3-C ,  7-H ) :   0.9298

-----------------------------------------------------------------------------
         ABSORPTION SPECTRUM VIA TRANSITION ELECTRIC DIPOLE MOMENTS
-----------------------------------------------------------------------------
State   Energy    Wavelength  fosc         T2        TX        TY        TZ
        (cm-1)      (nm)                 (au**2)    (au)      (au)      (au)
-----------------------------------------------------------------------------
   1   27289.0    366.4   0.000111167   0.00134   0.01572  -0.00294   0.03295

FINAL SINGLE POINT ENERGY      -191.666759401683

DIPOLE MOMENT
-------------
                                X             Y             Z
Electronic contribution:     -1.81368      -1.71767      -0.01279
Nuclear contribution   :      2.34368       2.67419       0.01615
                        -----------------------------------------
Total Dipole Moment    :      0.53000       0.95652       0.00336
                        -----------------------------------------
Magnitude (a.u.)       :      1.09355
Magnitude (Debye)      :      2.77958

Rotational constants in cm-1:     0.766199     0.210081     0.164956
Rotational constants in MHz : 22970.067401  6298.067554  4945.261715

                             ****ORCA TERMINATED NORMALLY****
TOTAL RUN TIME: 0 days 0 hours 3 minutes 21 seconds 297 msec
