                         Program Version 5.0.3 -  RELEASE  -
|  1> ! HF-3c
|  2> !TightSCF
|  3> %scf
|  4>  ConvForced true
|  5>  convergence tight
|  6>  MaxIter 500
|  7> end
|  8>
|  9> %tddft
| 10>  nroots 1
| 11> end
| 12>
| 13> # 	7736
| 14> * xyz 0 1
| 15> 		C   -1.176242  -0.348251  -0.030456
| 16> 		O   -2.056747  -0.491565  -0.822469
| 17> 		C    0.066940   0.407235  -0.240000
| 18> 		C    1.247292   0.168038   0.283468
| 19> 		H   -1.275575  -0.911456   0.931705
| 20> 		H    0.060253   1.193830  -1.166159
| 21> 		H    1.268569  -0.608691   1.047663
| 22> 		H    1.958495   0.626977   0.028851
| 23> *
| 24>
| 25>                          ****END OF INPUT****

CARTESIAN COORDINATES (ANGSTROEM)
---------------------------------
  C     -1.176242   -0.348251   -0.030456
  O     -2.056747   -0.491565   -0.822469
  C      0.066940    0.407235   -0.240000
  C      1.247292    0.168038    0.283468
  H     -1.275575   -0.911456    0.931705
  H      0.060253    1.193830   -1.166159
  H      1.268569   -0.608691    1.047663
  H      1.958495    0.626977    0.028851

 Total Charge           Charge          ....    0
 Multiplicity           Mult            ....    1
 Number of Electrons    NEL             ....   30
 Basis Dimension        Dim             ....   24

ORBITAL ENERGIES
----------------

  NO   OCC          E(Eh)            E(eV)
   0   2.0000     -20.382639      -554.6398
   1   2.0000     -11.309247      -307.7403
   2   2.0000     -11.203174      -304.8539
   3   2.0000     -11.201006      -304.7949
   4   2.0000      -1.423461       -38.7343
   5   2.0000      -1.102963       -30.0132
   6   2.0000      -0.907002       -24.6808
   7   2.0000      -0.772451       -21.0195
   8   2.0000      -0.692459       -18.8428
   9   2.0000      -0.674291       -18.3484
  10   2.0000      -0.599628       -16.3167
  11   2.0000      -0.557106       -15.1596
  12   2.0000      -0.522795       -14.2260
  13   2.0000      -0.417522       -11.3614
  14   2.0000      -0.412596       -11.2273
  15   0.0000       0.129728         3.5301
  16   0.0000       0.300633         8.1807
  17   0.0000       0.510297        13.8859
  18   0.0000       0.575420        15.6580
  19   0.0000       0.691565        18.8185

MULLIKEN ATOMIC CHARGES
-----------------------
   0 C :    0.167301
   1 O :   -0.344818
   2 C :   -0.127290
   3 C :   -0.284098
   4 H :    0.135455
   5 H :    0.156842
   6 H :    0.153361
   7 H :    0.143248
Sum of atomic charges:    0.0000000

LOEWDIN ATOMIC CHARGES
----------------------
   0 C :    0.143441
   1 O :   -0.243748
   2 C :   -0.090956
   3 C :   -0.172869
   4 H :    0.072052
   5 H :    0.111147
   6 H :    0.102861
   7 H :    0.078071

  Mayer bond orders larger than 0.100000
B(  0-C ,  1-O ) :   1.9177 B(  0-C ,  2-C ) :   1.0195 B(  0-C ,  4-H ) :   0.9198
B(  2-C ,  3-C ) :   1.9614 B(  2-C ,  5-H ) :   0.9457 B(  3-C ,  6-H ) :   0.9593
B(  3-C ,  7-H ) :   0.9694

-----------------------------------------------------------------------------
         ABSORPTION SPECTRUM VIA TRANSITION ELECTRIC DIPOLE MOMENTS
-----------------------------------------------------------------------------
State   Energy    Wavelength  fosc         T2        TX        TY        TZ
        (cm-1)      (nm)                 (au**2)    (au)      (au)      (au)
-----------------------------------------------------------------------------
   1   33203.3    301.2   0.000055047   0.00055   0.02189  -0.00314   0.00754

Dispersion correction           -0.025533039
FINAL SINGLE POINT ENERGY      -189.279397511327

DIPOLE MOMENT
-------------
                                X             Y             Z
Electronic contribution:     -3.07223      -0.47403      -1.06810
Nuclear contribution   :      3.82058       0.59970       1.59456
                        -----------------------------------------
Total Dipole Moment    :      0.74835       0.12567       0.52645
                        -----------------------------------------
Magnitude (a.u.)       :      0.92356
Magnitude (Debye)      :      2.34751

Rotational constants in cm-1:     1.544946     0.155080     0.143784
Rotational constants in MHz : 46316.311989  4649.175585  4310.536743

                             ****ORCA TERMINATED NORMALLY****
TOTAL RUN TIME: 0 days 0 hours 0 minutes 13 seconds 438 msec
