                         Program Version 5.0.3 -  RELEASE  -
|  1> ! HF-3c
|  2> !TightSCF
|  3> %scf
|  4>  ConvForced true
|  5>  convergence tight
|  6>  MaxIter 500
|  7> end
|  8>
|  9> %tddft
| 10>  nroots 1
| 11> end
| 12>
| 13> # 	30453
| 14> * xyz 0 1
| 15> 		C   -0.631858  -0.456510   0.034085
| 16> 		O   -0.610513  -1.690565  -0.011113
| 17> 		C    0.625036   0.432907  -0.053510
| 18> 		C    1.932487  -0.081186   0.009983
| 19> 		H   -1.575497   0.228513   0.095719
| 20> 		H    0.561562   1.582762   0.041838
| 21> 		H    2.087940  -1.059182  -0.010104
| 22> 		H    2.646731   0.594392   0.170786
| 23> *
| 24>
| 25>                          ****END OF INPUT****

CARTESIAN COORDINATES (ANGSTROEM)
---------------------------------
  C     -0.631858   -0.456510    0.034085
  O     -0.610513   -1.690565   -0.011113
  C      0.625036    0.432907   -0.053510
  C      1.932487   -0.081186    0.009983
  H     -1.575497    0.228513    0.095719
  H      0.561562    1.582762    0.041838
  H      2.087940   -1.059182   -0.010104
  H      2.646731    0.594392    0.170786

 Total Charge           Charge          ....    0
 Multiplicity           Mult            ....    1
 Number of Electrons    NEL             ....   30
 Basis Dimension        Dim             ....   24

ORBITAL ENERGIES
----------------

  NO   OCC          E(Eh)            E(eV)
   0   2.0000     -20.369523      -554.2829
   1   2.0000     -11.296739      -307.3999
   2   2.0000     -11.186195      -304.3918
   3   2.0000     -11.183239      -304.3114
   4   2.0000      -1.385476       -37.7007
   5   2.0000      -1.055953       -28.7340
   6   2.0000      -0.890793       -24.2397
   7   2.0000      -0.745896       -20.2969
   8   2.0000      -0.692938       -18.8558
   9   2.0000      -0.613669       -16.6988
  10   2.0000      -0.591722       -16.1016
  11   2.0000      -0.537526       -14.6268
  12   2.0000      -0.526004       -14.3133
  13   2.0000      -0.410631       -11.1738
  14   2.0000      -0.377234       -10.2650
  15   0.0000       0.116776         3.1776
  16   0.0000       0.280992         7.6462
  17   0.0000       0.523382        14.2419
  18   0.0000       0.550485        14.9795
  19   0.0000       0.644155        17.5284

MULLIKEN ATOMIC CHARGES
-----------------------
   0 C :    0.170032
   1 O :   -0.347451
   2 C :   -0.140326
   3 C :   -0.257338
   4 H :    0.139072
   5 H :    0.138423
   6 H :    0.153930
   7 H :    0.143659
Sum of atomic charges:    0.0000000

LOEWDIN ATOMIC CHARGES
----------------------
   0 C :    0.152191
   1 O :   -0.258163
   2 C :   -0.105589
   3 C :   -0.143675
   4 H :    0.081121
   5 H :    0.092874
   6 H :    0.093493
   7 H :    0.087747

  Mayer bond orders larger than 0.100000
B(  0-C ,  1-O ) :   1.9206 B(  0-C ,  2-C ) :   1.0105 B(  0-C ,  4-H ) :   0.9164
B(  2-C ,  3-C ) :   1.9406 B(  2-C ,  5-H ) :   0.9621 B(  3-C ,  6-H ) :   0.9670
B(  3-C ,  7-H ) :   0.9704

-----------------------------------------------------------------------------
         ABSORPTION SPECTRUM VIA TRANSITION ELECTRIC DIPOLE MOMENTS
-----------------------------------------------------------------------------
State   Energy    Wavelength  fosc         T2        TX        TY        TZ
        (cm-1)      (nm)                 (au**2)    (au)      (au)      (au)
-----------------------------------------------------------------------------
   1   31512.0    317.3   0.000101957   0.00107   0.03250   0.00232  -0.00190

Dispersion correction           -0.024821535
FINAL SINGLE POINT ENERGY      -189.315991271164

DIPOLE MOMENT
-------------
                                X             Y             Z
Electronic contribution:     -2.17873      -1.99261      -0.18246
Nuclear contribution   :      2.33175       3.04919       0.27900
                        -----------------------------------------
Total Dipole Moment    :      0.15302       1.05657       0.09654
                        -----------------------------------------
Magnitude (a.u.)       :      1.07195
Magnitude (Debye)      :      2.72469

Rotational constants in cm-1:     0.731123     0.191227     0.151832
Rotational constants in MHz : 21918.526443  5732.847839  4551.807568

                             ****ORCA TERMINATED NORMALLY****
TOTAL RUN TIME: 0 days 0 hours 0 minutes 16 seconds 109 msec
