                         Program Version 5.0.3 -  RELEASE  -
|  1> ! HF-3c
|  2> !TightSCF
|  3> %scf
|  4>  ConvForced true
|  5>  convergence tight
|  6>  MaxIter 500
|  7> end
|  8>
|  9> %tddft
| 10>  nroots 1
| 11> end
| 12>
| 13> # 	3807
| 14> * xyz 0 1
| 15> 		C   -1.190102  -0.289217   0.004723
| 16> 		O   -1.477094  -1.232901  -0.673830
| 17> 		C   -0.003006   0.480549  -0.168668
| 18> 		C    1.251020   0.044997   0.122427
| 19> 		H   -1.886991  -0.025724   0.824137
| 20> 		H   -0.167037   1.470097  -0.586222
| 21> 		H    1.263065  -1.021362   0.501137
| 22> 		H    2.164359   0.607595  -0.023021
| 23> *
| 24>
| 25>                          ****END OF INPUT****

CARTESIAN COORDINATES (ANGSTROEM)
---------------------------------
  C     -1.190102   -0.289217    0.004723
  O     -1.477094   -1.232901   -0.673830
  C     -0.003006    0.480549   -0.168668
  C      1.251020    0.044997    0.122427
  H     -1.886991   -0.025724    0.824137
  H     -0.167037    1.470097   -0.586222
  H      1.263065   -1.021362    0.501137
  H      2.164359    0.607595   -0.023021

 Total Charge           Charge          ....    0
 Multiplicity           Mult            ....    1
 Number of Electrons    NEL             ....   30
 Basis Dimension        Dim             ....   24

ORBITAL ENERGIES
----------------

  NO   OCC          E(Eh)            E(eV)
   0   2.0000     -20.374542      -554.4195
   1   2.0000     -11.302630      -307.5602
   2   2.0000     -11.188491      -304.4543
   3   2.0000     -11.183895      -304.3293
   4   2.0000      -1.417408       -38.5696
   5   2.0000      -1.076835       -29.3022
   6   2.0000      -0.893999       -24.3269
   7   2.0000      -0.757851       -20.6222
   8   2.0000      -0.696643       -18.9566
   9   2.0000      -0.635056       -17.2807
  10   2.0000      -0.607669       -16.5355
  11   2.0000      -0.547267       -14.8919
  12   2.0000      -0.501587       -13.6489
  13   2.0000      -0.417071       -11.3491
  14   2.0000      -0.393991       -10.7210
  15   0.0000       0.172778         4.7015
  16   0.0000       0.226802         6.1716
  17   0.0000       0.576680        15.6922
  18   0.0000       0.621394        16.9090
  19   0.0000       0.661458        17.9992

MULLIKEN ATOMIC CHARGES
-----------------------
   0 C :    0.159338
   1 O :   -0.342074
   2 C :   -0.174596
   3 C :   -0.223019
   4 H :    0.139946
   5 H :    0.148120
   6 H :    0.144321
   7 H :    0.147964
Sum of atomic charges:    0.0000000

LOEWDIN ATOMIC CHARGES
----------------------
   0 C :    0.141908
   1 O :   -0.244457
   2 C :   -0.130475
   3 C :   -0.133488
   4 H :    0.075628
   5 H :    0.096641
   6 H :    0.097506
   7 H :    0.096735

  Mayer bond orders larger than 0.100000
B(  0-C ,  1-O ) :   1.9303 B(  0-C ,  2-C ) :   1.0179 B(  0-C ,  4-H ) :   0.9171
B(  2-C ,  3-C ) :   1.9761 B(  2-C ,  5-H ) :   0.9474 B(  3-C ,  6-H ) :   0.9637
B(  3-C ,  7-H ) :   0.9650

-----------------------------------------------------------------------------
         ABSORPTION SPECTRUM VIA TRANSITION ELECTRIC DIPOLE MOMENTS
-----------------------------------------------------------------------------
State   Energy    Wavelength  fosc         T2        TX        TY        TZ
        (cm-1)      (nm)                 (au**2)    (au)      (au)      (au)
-----------------------------------------------------------------------------
   1   34666.8    288.5   0.000003583   0.00003   0.00520   0.00254   0.00071

Dispersion correction           -0.025452751
FINAL SINGLE POINT ENERGY      -189.318279380996

DIPOLE MOMENT
-------------
                                X             Y             Z
Electronic contribution:     -2.29708      -1.30458      -0.85169
Nuclear contribution   :      2.71494       2.01363       1.37126
                        -----------------------------------------
Total Dipole Moment    :      0.41786       0.70905       0.51957
                        -----------------------------------------
Magnitude (a.u.)       :      0.97330
Magnitude (Debye)      :      2.47392

Rotational constants in cm-1:     0.914099     0.182616     0.164210
Rotational constants in MHz : 27403.995216  5474.681365  4922.890577

                             ****ORCA TERMINATED NORMALLY****
TOTAL RUN TIME: 0 days 0 hours 0 minutes 12 seconds 40 msec
