                         Program Version 5.0.3 -  RELEASE  -
|  1> ! B3LYP cc-pVDZ
|  2> !TightSCF
|  3> %scf
|  4>  ConvForced true
|  5>  convergence tight
|  6>  MaxIter 500
|  7> end
|  8>
|  9> %tddft
| 10>  nroots 1
| 11> end
| 12>
| 13> # 	26849
| 14> * xyz 0 1
| 15> 		C   -0.584475  -0.461076   0.035357
| 16> 		O   -0.588786  -1.673574  -0.033349
| 17> 		C    0.645205   0.482919  -0.076867
| 18> 		C    1.819557  -0.118720   0.054260
| 19> 		H   -1.401455   0.158895   0.415512
| 20> 		H    0.646161   1.506929  -0.076097
| 21> 		H    1.854880  -1.198404   0.106075
| 22> 		H    2.839911   0.481947  -0.084249
| 23> *
| 24>
| 25>                          ****END OF INPUT****

CARTESIAN COORDINATES (ANGSTROEM)
---------------------------------
  C     -0.584475   -0.461076    0.035357
  O     -0.588786   -1.673574   -0.033349
  C      0.645205    0.482919   -0.076867
  C      1.819557   -0.118720    0.054260
  H     -1.401455    0.158895    0.415512
  H      0.646161    1.506929   -0.076097
  H      1.854880   -1.198404    0.106075
  H      2.839911    0.481947   -0.084249

 Total Charge           Charge          ....    0
 Multiplicity           Mult            ....    1
 Number of Electrons    NEL             ....   30
 Basis Dimension        Dim             ....   76

ORBITAL ENERGIES
----------------

  NO   OCC          E(Eh)            E(eV)
   0   2.0000     -19.149517      -521.0848
   1   2.0000     -10.284685      -279.8605
   2   2.0000     -10.212531      -277.8971
   3   2.0000     -10.197865      -277.4980
   4   2.0000      -1.049878       -28.5686
   5   2.0000      -0.794069       -21.6077
   6   2.0000      -0.645272       -17.5587
   7   2.0000      -0.554287       -15.0829
   8   2.0000      -0.500829       -13.6282
   9   2.0000      -0.449564       -12.2332
  10   2.0000      -0.420570       -11.4443
  11   2.0000      -0.395388       -10.7590
  12   2.0000      -0.378540       -10.3006
  13   2.0000      -0.290034        -7.8922
  14   2.0000      -0.259988        -7.0746
  15   0.0000      -0.064649        -1.7592
  16   0.0000       0.044358         1.2071
  17   0.0000       0.066712         1.8153
  18   0.0000       0.091933         2.5016
  19   0.0000       0.124351         3.3838

MULLIKEN ATOMIC CHARGES
-----------------------
   0 C :    0.207113
   1 O :   -0.188816
   2 C :   -0.079371
   3 C :    0.022903
   4 H :   -0.008933
   5 H :   -0.033964
   6 H :    0.035142
   7 H :    0.045926
Sum of atomic charges:   -0.0000000

LOEWDIN ATOMIC CHARGES
----------------------
   0 C :   -0.008554
   1 O :   -0.000566
   2 C :   -0.077014
   3 C :    0.012179
   4 H :   -0.008535
   5 H :    0.011223
   6 H :    0.025217
   7 H :    0.046050

  Mayer bond orders larger than 0.100000
B(  0-C ,  1-O ) :   2.1907 B(  0-C ,  2-C ) :   0.9998 B(  0-C ,  4-H ) :   0.9178
B(  2-C ,  3-C ) :   1.9788 B(  2-C ,  5-H ) :   0.9468 B(  3-C ,  6-H ) :   0.9323
B(  3-C ,  7-H ) :   0.9442

-----------------------------------------------------------------------------
         ABSORPTION SPECTRUM VIA TRANSITION ELECTRIC DIPOLE MOMENTS
-----------------------------------------------------------------------------
State   Energy    Wavelength  fosc         T2        TX        TY        TZ
        (cm-1)      (nm)                 (au**2)    (au)      (au)      (au)
-----------------------------------------------------------------------------
   1   29702.2    336.7   0.000164842   0.00183  -0.02412  -0.00858  -0.03423

FINAL SINGLE POINT ENERGY      -191.653635042025

DIPOLE MOMENT
-------------
                                X             Y             Z
Electronic contribution:     -2.21356      -1.78641      -0.27024
Nuclear contribution   :      2.53575       2.67912       0.33951
                        -----------------------------------------
Total Dipole Moment    :      0.32220       0.89271       0.06927
                        -----------------------------------------
Magnitude (a.u.)       :      0.95160
Magnitude (Debye)      :      2.41876

Rotational constants in cm-1:     0.756858     0.203292     0.161284
Rotational constants in MHz : 22690.029950  6094.532736  4835.160346

                             ****ORCA TERMINATED NORMALLY****
TOTAL RUN TIME: 0 days 0 hours 3 minutes 1 seconds 886 msec
