                         Program Version 5.0.3 -  RELEASE  -
|  1> ! HF-3c
|  2> !TightSCF
|  3> %scf
|  4>  ConvForced true
|  5>  convergence tight
|  6>  MaxIter 500
|  7> end
|  8>
|  9> %tddft
| 10>  nroots 1
| 11> end
| 12>
| 13> # 	24199
| 14> * xyz 0 1
| 15> 		C   -0.611702  -0.435721  -0.019430
| 16> 		O   -0.544103  -1.629072   0.021023
| 17> 		C    0.658963   0.449386   0.058949
| 18> 		C    1.802572  -0.163697  -0.030423
| 19> 		H   -1.528891   0.126055  -0.339602
| 20> 		H    0.480850   1.521161   0.021752
| 21> 		H    1.821881  -1.146518  -0.109409
| 22> 		H    2.773111   0.396483  -0.007246
| 23> *
| 24>
| 25>                          ****END OF INPUT****

CARTESIAN COORDINATES (ANGSTROEM)
---------------------------------
  C     -0.611702   -0.435721   -0.019430
  O     -0.544103   -1.629072    0.021023
  C      0.658963    0.449386    0.058949
  C      1.802572   -0.163697   -0.030423
  H     -1.528891    0.126055   -0.339602
  H      0.480850    1.521161    0.021752
  H      1.821881   -1.146518   -0.109409
  H      2.773111    0.396483   -0.007246

 Total Charge           Charge          ....    0
 Multiplicity           Mult            ....    1
 Number of Electrons    NEL             ....   30
 Basis Dimension        Dim             ....   24

ORBITAL ENERGIES
----------------

  NO   OCC          E(Eh)            E(eV)
   0   2.0000     -20.375408      -554.4430
   1   2.0000     -11.299035      -307.4624
   2   2.0000     -11.188967      -304.4673
   3   2.0000     -11.187781      -304.4350
   4   2.0000      -1.416070       -38.5332
   5   2.0000      -1.085161       -29.5287
   6   2.0000      -0.881525       -23.9875
   7   2.0000      -0.754558       -20.5326
   8   2.0000      -0.705192       -19.1893
   9   2.0000      -0.625110       -17.0101
  10   2.0000      -0.600276       -16.3343
  11   2.0000      -0.544931       -14.8283
  12   2.0000      -0.542067       -14.7504
  13   2.0000      -0.410993       -11.1837
  14   2.0000      -0.403972       -10.9926
  15   0.0000       0.146584         3.9888
  16   0.0000       0.298030         8.1098
  17   0.0000       0.518218        14.1014
  18   0.0000       0.617687        16.8081
  19   0.0000       0.662756        18.0345

MULLIKEN ATOMIC CHARGES
-----------------------
   0 C :    0.181915
   1 O :   -0.357130
   2 C :   -0.164840
   3 C :   -0.246929
   4 H :    0.136513
   5 H :    0.142629
   6 H :    0.156919
   7 H :    0.150924
Sum of atomic charges:   -0.0000000

LOEWDIN ATOMIC CHARGES
----------------------
   0 C :    0.155125
   1 O :   -0.255476
   2 C :   -0.120634
   3 C :   -0.140863
   4 H :    0.074112
   5 H :    0.090763
   6 H :    0.094457
   7 H :    0.102515

  Mayer bond orders larger than 0.100000
B(  0-C ,  1-O ) :   1.9342 B(  0-C ,  2-C ) :   0.9806 B(  0-C ,  4-H ) :   0.9203
B(  2-C ,  3-C ) :   1.9772 B(  2-C ,  5-H ) :   0.9611 B(  3-C ,  6-H ) :   0.9593
B(  3-C ,  7-H ) :   0.9604

-----------------------------------------------------------------------------
         ABSORPTION SPECTRUM VIA TRANSITION ELECTRIC DIPOLE MOMENTS
-----------------------------------------------------------------------------
State   Energy    Wavelength  fosc         T2        TX        TY        TZ
        (cm-1)      (nm)                 (au**2)    (au)      (au)      (au)
-----------------------------------------------------------------------------
   1   34177.8    292.6   0.000086254   0.00083  -0.02614  -0.00393  -0.01150

Dispersion correction           -0.026063096
FINAL SINGLE POINT ENERGY      -189.328128984250

DIPOLE MOMENT
-------------
                                X             Y             Z
Electronic contribution:     -2.00326      -1.67711       0.29512
Nuclear contribution   :      2.17127       2.62941      -0.40784
                        -----------------------------------------
Total Dipole Moment    :      0.16801       0.95230      -0.11272
                        -----------------------------------------
Magnitude (a.u.)       :      0.97356
Magnitude (Debye)      :      2.47458

Rotational constants in cm-1:     0.747324     0.215753     0.168064
Rotational constants in MHz : 22404.212613  6468.122002  5038.436262

                             ****ORCA TERMINATED NORMALLY****
TOTAL RUN TIME: 0 days 0 hours 0 minutes 12 seconds 423 msec
