                         Program Version 5.0.3 -  RELEASE  -
|  1> ! B3LYP cc-pVDZ
|  2> !TightSCF
|  3> %scf
|  4>  ConvForced true
|  5>  convergence tight
|  6>  MaxIter 500
|  7> end
|  8>
|  9> %tddft
| 10>  nroots 1
| 11> end
| 12>
| 13> # 	15306
| 14> * xyz 0 1
| 15> 		C   -1.205739  -0.365872   0.090041
| 16> 		O   -1.356147  -1.406622   0.615966
| 17> 		C    0.034807   0.458972   0.237550
| 18> 		C    1.181853   0.005210  -0.125925
| 19> 		H   -1.916911   0.211683  -0.747414
| 20> 		H   -0.025498   1.538317   0.613875
| 21> 		H    1.105330  -1.067961  -0.517634
| 22> 		H    2.241370   0.548125  -0.146810
| 23> *
| 24>
| 25>                          ****END OF INPUT****

CARTESIAN COORDINATES (ANGSTROEM)
---------------------------------
  C     -1.205739   -0.365872    0.090041
  O     -1.356147   -1.406622    0.615966
  C      0.034807    0.458972    0.237550
  C      1.181853    0.005210   -0.125925
  H     -1.916911    0.211683   -0.747414
  H     -0.025498    1.538317    0.613875
  H      1.105330   -1.067961   -0.517634
  H      2.241370    0.548125   -0.146810

 Total Charge           Charge          ....    0
 Multiplicity           Mult            ....    1
 Number of Electrons    NEL             ....   30
 Basis Dimension        Dim             ....   76

ORBITAL ENERGIES
----------------

  NO   OCC          E(Eh)            E(eV)
   0   2.0000     -19.157425      -521.3000
   1   2.0000     -10.294352      -280.1236
   2   2.0000     -10.210590      -277.8443
   3   2.0000     -10.202205      -277.6161
   4   2.0000      -1.080292       -29.3962
   5   2.0000      -0.801603       -21.8127
   6   2.0000      -0.638657       -17.3787
   7   2.0000      -0.532162       -14.4809
   8   2.0000      -0.495421       -13.4811
   9   2.0000      -0.458693       -12.4817
  10   2.0000      -0.447103       -12.1663
  11   2.0000      -0.397936       -10.8284
  12   2.0000      -0.365916        -9.9571
  13   2.0000      -0.294190        -8.0053
  14   2.0000      -0.261624        -7.1192
  15   0.0000      -0.038589        -1.0501
  16   0.0000       0.016149         0.4394
  17   0.0000       0.066875         1.8198
  18   0.0000       0.073959         2.0125
  19   0.0000       0.094371         2.5680

MULLIKEN ATOMIC CHARGES
-----------------------
   0 C :    0.138426
   1 O :   -0.136974
   2 C :   -0.083051
   3 C :   -0.011504
   4 H :   -0.007980
   5 H :    0.016382
   6 H :    0.030385
   7 H :    0.054316
Sum of atomic charges:   -0.0000000

LOEWDIN ATOMIC CHARGES
----------------------
   0 C :   -0.048670
   1 O :    0.052045
   2 C :   -0.087226
   3 C :   -0.042544
   4 H :   -0.002953
   5 H :    0.041295
   6 H :    0.037444
   7 H :    0.050609

  Mayer bond orders larger than 0.100000
B(  0-C ,  1-O ) :   2.2642 B(  0-C ,  2-C ) :   0.9714 B(  0-C ,  4-H ) :   0.8697
B(  2-C ,  3-C ) :   2.0270 B(  2-C ,  5-H ) :   0.9286 B(  3-C ,  6-H ) :   0.9263
B(  3-C ,  7-H ) :   0.9408

-----------------------------------------------------------------------------
         ABSORPTION SPECTRUM VIA TRANSITION ELECTRIC DIPOLE MOMENTS
-----------------------------------------------------------------------------
State   Energy    Wavelength  fosc         T2        TX        TY        TZ
        (cm-1)      (nm)                 (au**2)    (au)      (au)      (au)
-----------------------------------------------------------------------------
   1   34690.2    288.3   0.000145912   0.00138  -0.00789  -0.01780   0.03171

FINAL SINGLE POINT ENERGY      -191.619490567420

DIPOLE MOMENT
-------------
                                X             Y             Z
Electronic contribution:     -2.29099      -1.76333       1.20136
Nuclear contribution   :      2.65151       2.48293      -1.51050
                        -----------------------------------------
Total Dipole Moment    :      0.36052       0.71960      -0.30914
                        -----------------------------------------
Magnitude (a.u.)       :      0.86219
Magnitude (Debye)      :      2.19150

Rotational constants in cm-1:     0.851976     0.190533     0.166221
Rotational constants in MHz : 25541.594257  5712.028092  4983.175509

                             ****ORCA TERMINATED NORMALLY****
TOTAL RUN TIME: 0 days 0 hours 3 minutes 27 seconds 905 msec
