                         Program Version 5.0.3 -  RELEASE  -
|  1> ! B3LYP cc-pVDZ
|  2> !TightSCF
|  3> %scf
|  4>  ConvForced true
|  5>  convergence tight
|  6>  MaxIter 500
|  7> end
|  8>
|  9> %tddft
| 10>  nroots 1
| 11> end
| 12>
| 13> # 	16027
| 14> * xyz 0 1
| 15> 		C   -1.144008  -0.317549  -0.028551
| 16> 		O   -1.367397  -1.399440   0.451047
| 17> 		C   -0.026254   0.531856   0.108891
| 18> 		C    1.239630  -0.036798  -0.132672
| 19> 		H   -2.095265   0.078304  -0.462231
| 20> 		H   -0.027433   1.747075   0.209053
| 21> 		H    1.353598  -1.184913  -0.234547
| 22> 		H    2.103739   0.592435  -0.029054
| 23> *
| 24>
| 25>                          ****END OF INPUT****

CARTESIAN COORDINATES (ANGSTROEM)
---------------------------------
  C     -1.144008   -0.317549   -0.028551
  O     -1.367397   -1.399440    0.451047
  C     -0.026254    0.531856    0.108891
  C      1.239630   -0.036798   -0.132672
  H     -2.095265    0.078304   -0.462231
  H     -0.027433    1.747075    0.209053
  H      1.353598   -1.184913   -0.234547
  H      2.103739    0.592435   -0.029054

 Total Charge           Charge          ....    0
 Multiplicity           Mult            ....    1
 Number of Electrons    NEL             ....   30
 Basis Dimension        Dim             ....   76

ORBITAL ENERGIES
----------------

  NO   OCC          E(Eh)            E(eV)
   0   2.0000     -19.132322      -520.6169
   1   2.0000     -10.269419      -279.4451
   2   2.0000     -10.229302      -278.3534
   3   2.0000     -10.225724      -278.2561
   4   2.0000      -1.047895       -28.5147
   5   2.0000      -0.793363       -21.5885
   6   2.0000      -0.658097       -17.9077
   7   2.0000      -0.534461       -14.5434
   8   2.0000      -0.506749       -13.7893
   9   2.0000      -0.439273       -11.9532
  10   2.0000      -0.432066       -11.7571
  11   2.0000      -0.392927       -10.6921
  12   2.0000      -0.376928       -10.2567
  13   2.0000      -0.282549        -7.6885
  14   2.0000      -0.246566        -6.7094
  15   0.0000      -0.069370        -1.8876
  16   0.0000       0.019848         0.5401
  17   0.0000       0.061746         1.6802
  18   0.0000       0.081609         2.2207
  19   0.0000       0.113936         3.1004

MULLIKEN ATOMIC CHARGES
-----------------------
   0 C :    0.187412
   1 O :   -0.190644
   2 C :   -0.127961
   3 C :    0.012809
   4 H :   -0.033180
   5 H :    0.050981
   6 H :    0.066071
   7 H :    0.034511
Sum of atomic charges:    0.0000000

LOEWDIN ATOMIC CHARGES
----------------------
   0 C :   -0.064635
   1 O :    0.000349
   2 C :   -0.079725
   3 C :    0.014798
   4 H :   -0.006698
   5 H :    0.063596
   6 H :    0.048570
   7 H :    0.023745

  Mayer bond orders larger than 0.100000
B(  0-C ,  1-O ) :   2.1810 B(  0-C ,  2-C ) :   1.0499 B(  0-C ,  4-H ) :   0.9273
B(  2-C ,  3-C ) :   1.9220 B(  2-C ,  5-H ) :   0.9304 B(  3-C ,  6-H ) :   0.9452
B(  3-C ,  7-H ) :   0.9477

-----------------------------------------------------------------------------
         ABSORPTION SPECTRUM VIA TRANSITION ELECTRIC DIPOLE MOMENTS
-----------------------------------------------------------------------------
State   Energy    Wavelength  fosc         T2        TX        TY        TZ
        (cm-1)      (nm)                 (au**2)    (au)      (au)      (au)
-----------------------------------------------------------------------------
   1   26688.2    374.7   0.002033854   0.02509  -0.15725  -0.01706   0.00832

FINAL SINGLE POINT ENERGY      -191.654105442171

DIPOLE MOMENT
-------------
                                X             Y             Z
Electronic contribution:     -1.95138      -1.56862       0.59019
Nuclear contribution   :      2.55564       2.41378      -0.88585
                        -----------------------------------------
Total Dipole Moment    :      0.60426       0.84516      -0.29566
                        -----------------------------------------
Magnitude (a.u.)       :      1.08020
Magnitude (Debye)      :      2.74565

Rotational constants in cm-1:     0.796468     0.195827     0.162325
Rotational constants in MHz : 23877.498111  5870.734950  4866.380388

                             ****ORCA TERMINATED NORMALLY****
TOTAL RUN TIME: 0 days 0 hours 3 minutes 27 seconds 943 msec
