                         Program Version 5.0.3 -  RELEASE  -
|  1> ! B3LYP cc-pVDZ
|  2> !TightSCF
|  3> %scf
|  4>  ConvForced true
|  5>  convergence tight
|  6>  MaxIter 500
|  7> end
|  8>
|  9> %tddft
| 10>  nroots 1
| 11> end
| 12>
| 13> # 	30762
| 14> * xyz 0 1
| 15> 		C   -0.596061  -0.463883   0.010147
| 16> 		O   -0.668789  -1.738975   0.003624
| 17> 		C    0.678108   0.454146   0.057369
| 18> 		C    1.908680  -0.024384  -0.030405
| 19> 		H   -1.518875   0.108006  -0.334420
| 20> 		H    0.513003   1.461010  -0.114777
| 21> 		H    2.011441  -0.984605  -0.036829
| 22> 		H    2.878520   0.645721  -0.013855
| 23> *
| 24>
| 25>                          ****END OF INPUT****

CARTESIAN COORDINATES (ANGSTROEM)
---------------------------------
  C     -0.596061   -0.463883    0.010147
  O     -0.668789   -1.738975    0.003624
  C      0.678108    0.454146    0.057369
  C      1.908680   -0.024384   -0.030405
  H     -1.518875    0.108006   -0.334420
  H      0.513003    1.461010   -0.114777
  H      2.011441   -0.984605   -0.036829
  H      2.878520    0.645721   -0.013855

 Total Charge           Charge          ....    0
 Multiplicity           Mult            ....    1
 Number of Electrons    NEL             ....   30
 Basis Dimension        Dim             ....   76

ORBITAL ENERGIES
----------------

  NO   OCC          E(Eh)            E(eV)
   0   2.0000     -19.147788      -521.0378
   1   2.0000     -10.292110      -280.0625
   2   2.0000     -10.210387      -277.8387
   3   2.0000     -10.209471      -277.8138
   4   2.0000      -1.013945       -27.5909
   5   2.0000      -0.800253       -21.7760
   6   2.0000      -0.654070       -17.7981
   7   2.0000      -0.560502       -15.2520
   8   2.0000      -0.494958       -13.4685
   9   2.0000      -0.446663       -12.1543
  10   2.0000      -0.421589       -11.4720
  11   2.0000      -0.388827       -10.5805
  12   2.0000      -0.377724       -10.2784
  13   2.0000      -0.293423        -7.9845
  14   2.0000      -0.257318        -7.0020
  15   0.0000      -0.077096        -2.0979
  16   0.0000       0.035670         0.9706
  17   0.0000       0.059450         1.6177
  18   0.0000       0.094323         2.5667
  19   0.0000       0.124980         3.4009

MULLIKEN ATOMIC CHARGES
-----------------------
   0 C :    0.174294
   1 O :   -0.231418
   2 C :   -0.094427
   3 C :    0.121581
   4 H :    0.012563
   5 H :   -0.019243
   6 H :   -0.017196
   7 H :    0.053847
Sum of atomic charges:   -0.0000000

LOEWDIN ATOMIC CHARGES
----------------------
   0 C :    0.018071
   1 O :   -0.060770
   2 C :   -0.065969
   3 C :    0.040813
   4 H :    0.005304
   5 H :    0.015759
   6 H :   -0.007784
   7 H :    0.054576

  Mayer bond orders larger than 0.100000
B(  0-C ,  1-O ) :   2.1271 B(  0-C ,  2-C ) :   1.0106 B(  0-C ,  4-H ) :   0.9134
B(  2-C ,  3-C ) :   1.9791 B(  2-C ,  5-H ) :   0.9464 B(  3-C ,  6-H ) :   0.9313
B(  3-C ,  7-H ) :   0.9459

-----------------------------------------------------------------------------
         ABSORPTION SPECTRUM VIA TRANSITION ELECTRIC DIPOLE MOMENTS
-----------------------------------------------------------------------------
State   Energy    Wavelength  fosc         T2        TX        TY        TZ
        (cm-1)      (nm)                 (au**2)    (au)      (au)      (au)
-----------------------------------------------------------------------------
   1   26176.3    382.0   0.000149182   0.00188   0.02133   0.01360  -0.03516

FINAL SINGLE POINT ENERGY      -191.653173701032

DIPOLE MOMENT
-------------
                                X             Y             Z
Electronic contribution:     -2.02618      -1.95770       0.38459
Nuclear contribution   :      2.48322       2.94220      -0.46891
                        -----------------------------------------
Total Dipole Moment    :      0.45704       0.98450      -0.08432
                        -----------------------------------------
Magnitude (a.u.)       :      1.08869
Magnitude (Debye)      :      2.76722

Rotational constants in cm-1:     0.796959     0.179880     0.147216
Rotational constants in MHz : 23892.229680  5392.661533  4413.435415

                             ****ORCA TERMINATED NORMALLY****
TOTAL RUN TIME: 0 days 0 hours 3 minutes 26 seconds 132 msec
