                         Program Version 5.0.3 -  RELEASE  -
|  1> ! B3LYP cc-pVDZ
|  2> !TightSCF
|  3> %scf
|  4>  ConvForced true
|  5>  convergence tight
|  6>  MaxIter 500
|  7> end
|  8>
|  9> %tddft
| 10>  nroots 1
| 11> end
| 12>
| 13> # 	2799
| 14> * xyz 0 1
| 15> 		C   -1.143671  -0.441429   0.105440
| 16> 		O   -2.263450  -0.171850   0.753048
| 17> 		C    0.062540   0.418341   0.335418
| 18> 		C    1.099157   0.135231  -0.241506
| 19> 		H   -1.069094  -1.062957  -0.669980
| 20> 		H    0.033865   1.024067   0.931833
| 21> 		H    1.200665  -0.628391  -1.107661
| 22> 		H    2.073344   0.750681  -0.092061
| 23> *
| 24>
| 25>                          ****END OF INPUT****

CARTESIAN COORDINATES (ANGSTROEM)
---------------------------------
  C     -1.143671   -0.441429    0.105440
  O     -2.263450   -0.171850    0.753048
  C      0.062540    0.418341    0.335418
  C      1.099157    0.135231   -0.241506
  H     -1.069094   -1.062957   -0.669980
  H      0.033865    1.024067    0.931833
  H      1.200665   -0.628391   -1.107661
  H      2.073344    0.750681   -0.092061

 Total Charge           Charge          ....    0
 Multiplicity           Mult            ....    1
 Number of Electrons    NEL             ....   30
 Basis Dimension        Dim             ....   76

ORBITAL ENERGIES
----------------

  NO   OCC          E(Eh)            E(eV)
   0   2.0000     -19.140388      -520.8364
   1   2.0000     -10.276367      -279.6342
   2   2.0000     -10.214966      -277.9634
   3   2.0000     -10.177697      -276.9492
   4   2.0000      -0.989945       -26.9378
   5   2.0000      -0.838761       -22.8238
   6   2.0000      -0.655098       -17.8261
   7   2.0000      -0.612973       -16.6799
   8   2.0000      -0.491620       -13.3777
   9   2.0000      -0.476044       -12.9538
  10   2.0000      -0.417655       -11.3650
  11   2.0000      -0.379303       -10.3214
  12   2.0000      -0.373455       -10.1622
  13   2.0000      -0.305005        -8.2996
  14   2.0000      -0.254463        -6.9243
  15   0.0000      -0.071004        -1.9321
  16   0.0000       0.044124         1.2007
  17   0.0000       0.062744         1.7074
  18   0.0000       0.088127         2.3981
  19   0.0000       0.125475         3.4143

MULLIKEN ATOMIC CHARGES
-----------------------
   0 C :    0.237793
   1 O :   -0.276315
   2 C :    0.177175
   3 C :   -0.002085
   4 H :   -0.031873
   5 H :   -0.173853
   6 H :    0.031735
   7 H :    0.037423
Sum of atomic charges:   -0.0000000

LOEWDIN ATOMIC CHARGES
----------------------
   0 C :    0.079390
   1 O :   -0.092982
   2 C :   -0.015378
   3 C :    0.006152
   4 H :   -0.017176
   5 H :   -0.047533
   6 H :    0.041204
   7 H :    0.046322

  Mayer bond orders larger than 0.100000
B(  0-C ,  1-O ) :   2.0471 B(  0-C ,  2-C ) :   1.1007 B(  0-C ,  4-H ) :   0.9440
B(  2-C ,  3-C ) :   1.9583 B(  2-C ,  5-H ) :   0.9312 B(  3-C ,  6-H ) :   0.9312
B(  3-C ,  7-H ) :   0.9220

-----------------------------------------------------------------------------
         ABSORPTION SPECTRUM VIA TRANSITION ELECTRIC DIPOLE MOMENTS
-----------------------------------------------------------------------------
State   Energy    Wavelength  fosc         T2        TX        TY        TZ
        (cm-1)      (nm)                 (au**2)    (au)      (au)      (au)
-----------------------------------------------------------------------------
   1   25673.1    389.5   0.000053961   0.00069   0.01836   0.00389   0.01843

FINAL SINGLE POINT ENERGY      -191.580163562848

DIPOLE MOMENT
-------------
                                X             Y             Z
Electronic contribution:     -3.18767      -0.21169       1.24511
Nuclear contribution   :      4.33420       0.16430      -1.77575
                        -----------------------------------------
Total Dipole Moment    :      1.14654      -0.04739      -0.53064
                        -----------------------------------------
Magnitude (a.u.)       :      1.26427
Magnitude (Debye)      :      3.21351

Rotational constants in cm-1:     1.622785     0.157002     0.143258
Rotational constants in MHz : 48649.878723  4706.803480  4294.780965

                             ****ORCA TERMINATED NORMALLY****
TOTAL RUN TIME: 0 days 0 hours 3 minutes 21 seconds 308 msec
