                         Program Version 5.0.3 -  RELEASE  -
|  1> ! B3LYP cc-pVDZ
|  2> !TightSCF
|  3> %scf
|  4>  ConvForced true
|  5>  convergence tight
|  6>  MaxIter 500
|  7> end
|  8>
|  9> %tddft
| 10>  nroots 1
| 11> end
| 12>
| 13> # 	28062
| 14> * xyz 0 1
| 15> 		C   -0.601423  -0.462575   0.043483
| 16> 		O   -0.607071  -1.631837  -0.025411
| 17> 		C    0.647964   0.402280  -0.038183
| 18> 		C    1.881968  -0.059522   0.019436
| 19> 		H   -1.467831   0.036179   0.135268
| 20> 		H    0.515014   1.312249  -0.118169
| 21> 		H    1.770354  -1.172721   0.058578
| 22> 		H    2.763443   0.348787   0.025794
| 23> *
| 24>
| 25>                          ****END OF INPUT****

CARTESIAN COORDINATES (ANGSTROEM)
---------------------------------
  C     -0.601423   -0.462575    0.043483
  O     -0.607071   -1.631837   -0.025411
  C      0.647964    0.402280   -0.038183
  C      1.881968   -0.059522    0.019436
  H     -1.467831    0.036179    0.135268
  H      0.515014    1.312249   -0.118169
  H      1.770354   -1.172721    0.058578
  H      2.763443    0.348787    0.025794

 Total Charge           Charge          ....    0
 Multiplicity           Mult            ....    1
 Number of Electrons    NEL             ....   30
 Basis Dimension        Dim             ....   76

ORBITAL ENERGIES
----------------

  NO   OCC          E(Eh)            E(eV)
   0   2.0000     -19.139159      -520.8030
   1   2.0000     -10.265435      -279.3367
   2   2.0000     -10.194637      -277.4102
   3   2.0000     -10.181516      -277.0531
   4   2.0000      -1.070220       -29.1222
   5   2.0000      -0.800048       -21.7704
   6   2.0000      -0.665202       -18.1011
   7   2.0000      -0.571661       -15.5557
   8   2.0000      -0.528249       -14.3744
   9   2.0000      -0.457968       -12.4619
  10   2.0000      -0.445228       -12.1153
  11   2.0000      -0.409556       -11.1446
  12   2.0000      -0.366956        -9.9854
  13   2.0000      -0.288611        -7.8535
  14   2.0000      -0.257908        -7.0180
  15   0.0000      -0.059302        -1.6137
  16   0.0000       0.063826         1.7368
  17   0.0000       0.092497         2.5170
  18   0.0000       0.103935         2.8282
  19   0.0000       0.142589         3.8800

MULLIKEN ATOMIC CHARGES
-----------------------
   0 C :    0.227246
   1 O :   -0.161955
   2 C :   -0.061546
   3 C :    0.159580
   4 H :   -0.050662
   5 H :   -0.112288
   6 H :    0.023891
   7 H :   -0.024266
Sum of atomic charges:    0.0000000

LOEWDIN ATOMIC CHARGES
----------------------
   0 C :   -0.027720
   1 O :    0.041695
   2 C :   -0.042624
   3 C :    0.049672
   4 H :   -0.022698
   5 H :   -0.031178
   6 H :    0.040976
   7 H :   -0.008124

  Mayer bond orders larger than 0.100000
B(  0-C ,  1-O ) :   2.2256 B(  0-C ,  2-C ) :   1.0310 B(  0-C ,  4-H ) :   0.9319
B(  2-C ,  3-C ) :   1.9792 B(  2-C ,  5-H ) :   0.9606 B(  3-C ,  6-H ) :   0.9157
B(  3-C ,  7-H ) :   0.9525

-----------------------------------------------------------------------------
         ABSORPTION SPECTRUM VIA TRANSITION ELECTRIC DIPOLE MOMENTS
-----------------------------------------------------------------------------
State   Energy    Wavelength  fosc         T2        TX        TY        TZ
        (cm-1)      (nm)                 (au**2)    (au)      (au)      (au)
-----------------------------------------------------------------------------
   1   30508.9    327.8   0.000002112   0.00002  -0.00254   0.00007   0.00404

FINAL SINGLE POINT ENERGY      -191.610672326830

DIPOLE MOMENT
-------------
                                X             Y             Z
Electronic contribution:     -1.94804      -1.41903      -0.05439
Nuclear contribution   :      2.20415       2.28355       0.09530
                        -----------------------------------------
Total Dipole Moment    :      0.25611       0.86452       0.04092
                        -----------------------------------------
Magnitude (a.u.)       :      0.90259
Magnitude (Debye)      :      2.29420

Rotational constants in cm-1:     0.856053     0.201152     0.163169
Rotational constants in MHz : 25663.822080  6030.397787  4891.676750

                             ****ORCA TERMINATED NORMALLY****
TOTAL RUN TIME: 0 days 0 hours 3 minutes 22 seconds 489 msec
