                         Program Version 5.0.3 -  RELEASE  -
|  1> ! HF-3c
|  2> !TightSCF
|  3> %scf
|  4>  ConvForced true
|  5>  convergence tight
|  6>  MaxIter 500
|  7> end
|  8>
|  9> %tddft
| 10>  nroots 1
| 11> end
| 12>
| 13> # 	31372
| 14> * xyz 0 1
| 15> 		C   -0.571065  -0.440274   0.080085
| 16> 		O   -0.549383  -1.637316  -0.047380
| 17> 		C    0.625718   0.457245  -0.076721
| 18> 		C    1.803061  -0.164275   0.053736
| 19> 		H   -1.584543   0.174824   0.209366
| 20> 		H    0.483746   1.691041  -0.139732
| 21> 		H    1.843148  -1.205143   0.104925
| 22> 		H    2.815789   0.348935  -0.121130
| 23> *
| 24>
| 25>                          ****END OF INPUT****

CARTESIAN COORDINATES (ANGSTROEM)
---------------------------------
  C     -0.571065   -0.440274    0.080085
  O     -0.549383   -1.637316   -0.047380
  C      0.625718    0.457245   -0.076721
  C      1.803061   -0.164275    0.053736
  H     -1.584543    0.174824    0.209366
  H      0.483746    1.691041   -0.139732
  H      1.843148   -1.205143    0.104925
  H      2.815789    0.348935   -0.121130

 Total Charge           Charge          ....    0
 Multiplicity           Mult            ....    1
 Number of Electrons    NEL             ....   30
 Basis Dimension        Dim             ....   24

ORBITAL ENERGIES
----------------

  NO   OCC          E(Eh)            E(eV)
   0   2.0000     -20.363319      -554.1141
   1   2.0000     -11.292326      -307.2798
   2   2.0000     -11.182183      -304.2827
   3   2.0000     -11.180871      -304.2470
   4   2.0000      -1.403190       -38.1827
   5   2.0000      -1.066743       -29.0275
   6   2.0000      -0.868654       -23.6373
   7   2.0000      -0.723399       -19.6847
   8   2.0000      -0.682890       -18.5824
   9   2.0000      -0.608553       -16.5596
  10   2.0000      -0.575712       -15.6659
  11   2.0000      -0.536076       -14.5874
  12   2.0000      -0.515556       -14.0290
  13   2.0000      -0.399890       -10.8816
  14   2.0000      -0.388948       -10.5838
  15   0.0000       0.140876         3.8334
  16   0.0000       0.305429         8.3111
  17   0.0000       0.472902        12.8683
  18   0.0000       0.533296        14.5117
  19   0.0000       0.622741        16.9456

MULLIKEN ATOMIC CHARGES
-----------------------
   0 C :    0.181835
   1 O :   -0.365127
   2 C :   -0.162269
   3 C :   -0.228288
   4 H :    0.127109
   5 H :    0.149134
   6 H :    0.154202
   7 H :    0.143404
Sum of atomic charges:    0.0000000

LOEWDIN ATOMIC CHARGES
----------------------
   0 C :    0.153812
   1 O :   -0.267626
   2 C :   -0.131458
   3 C :   -0.129279
   4 H :    0.071259
   5 H :    0.108657
   6 H :    0.096812
   7 H :    0.097824

  Mayer bond orders larger than 0.100000
B(  0-C ,  1-O ) :   1.9161 B(  0-C ,  2-C ) :   1.0084 B(  0-C ,  4-H ) :   0.9129
B(  2-C ,  3-C ) :   1.9518 B(  2-C ,  5-H ) :   0.9526 B(  3-C ,  6-H ) :   0.9589
B(  3-C ,  7-H ) :   0.9627

-----------------------------------------------------------------------------
         ABSORPTION SPECTRUM VIA TRANSITION ELECTRIC DIPOLE MOMENTS
-----------------------------------------------------------------------------
State   Energy    Wavelength  fosc         T2        TX        TY        TZ
        (cm-1)      (nm)                 (au**2)    (au)      (au)      (au)
-----------------------------------------------------------------------------
   1   33883.9    295.1   0.000234352   0.00228  -0.04661  -0.00259  -0.00988

Dispersion correction           -0.025534673
FINAL SINGLE POINT ENERGY      -189.312169934272

DIPOLE MOMENT
-------------
                                X             Y             Z
Electronic contribution:     -1.90966      -1.70558       0.01768
Nuclear contribution   :      2.18025       2.73385       0.05066
                        -----------------------------------------
Total Dipole Moment    :      0.27059       1.02827       0.06834
                        -----------------------------------------
Magnitude (a.u.)       :      1.06547
Magnitude (Debye)      :      2.70821

Rotational constants in cm-1:     0.710481     0.216266     0.166808
Rotational constants in MHz : 21299.670343  6483.500169  5000.787939

                             ****ORCA TERMINATED NORMALLY****
TOTAL RUN TIME: 0 days 0 hours 0 minutes 12 seconds 699 msec
