                         Program Version 5.0.3 -  RELEASE  -
|  1> ! HF-3c
|  2> !TightSCF
|  3> %scf
|  4>  ConvForced true
|  5>  convergence tight
|  6>  MaxIter 500
|  7> end
|  8>
|  9> %tddft
| 10>  nroots 1
| 11> end
| 12>
| 13> # 	20577
| 14> * xyz 0 1
| 15> 		C   -0.627106  -0.406846  -0.029185
| 16> 		O   -0.538116  -1.602010   0.013275
| 17> 		C    0.652404   0.386767   0.010392
| 18> 		C    1.833570  -0.142495   0.003653
| 19> 		H   -1.440361   0.036405   0.106214
| 20> 		H    0.364867   1.523003  -0.078439
| 21> 		H    1.808090  -1.438970  -0.186674
| 22> 		H    2.611765   0.495407   0.133884
| 23> *
| 24>
| 25>                          ****END OF INPUT****

CARTESIAN COORDINATES (ANGSTROEM)
---------------------------------
  C     -0.627106   -0.406846   -0.029185
  O     -0.538116   -1.602010    0.013275
  C      0.652404    0.386767    0.010392
  C      1.833570   -0.142495    0.003653
  H     -1.440361    0.036405    0.106214
  H      0.364867    1.523003   -0.078439
  H      1.808090   -1.438970   -0.186674
  H      2.611765    0.495407    0.133884

 Total Charge           Charge          ....    0
 Multiplicity           Mult            ....    1
 Number of Electrons    NEL             ....   30
 Basis Dimension        Dim             ....   24

ORBITAL ENERGIES
----------------

  NO   OCC          E(Eh)            E(eV)
   0   2.0000     -20.373605      -554.3940
   1   2.0000     -11.301681      -307.5344
   2   2.0000     -11.179124      -304.1994
   3   2.0000     -11.175030      -304.0880
   4   2.0000      -1.418781       -38.6070
   5   2.0000      -1.073135       -29.2015
   6   2.0000      -0.911672       -24.8079
   7   2.0000      -0.770589       -20.9688
   8   2.0000      -0.676704       -18.4141
   9   2.0000      -0.612289       -16.6612
  10   2.0000      -0.605153       -16.4671
  11   2.0000      -0.551170       -14.9981
  12   2.0000      -0.492130       -13.3915
  13   2.0000      -0.419346       -11.4110
  14   2.0000      -0.393691       -10.7129
  15   0.0000       0.141688         3.8555
  16   0.0000       0.310995         8.4626
  17   0.0000       0.431934        11.7535
  18   0.0000       0.584394        15.9022
  19   0.0000       0.621063        16.9000

MULLIKEN ATOMIC CHARGES
-----------------------
   0 C :    0.135645
   1 O :   -0.343770
   2 C :   -0.158206
   3 C :   -0.237255
   4 H :    0.140163
   5 H :    0.132563
   6 H :    0.185448
   7 H :    0.145413
Sum of atomic charges:   -0.0000000

LOEWDIN ATOMIC CHARGES
----------------------
   0 C :    0.130899
   1 O :   -0.245095
   2 C :   -0.124018
   3 C :   -0.149752
   4 H :    0.062777
   5 H :    0.088543
   6 H :    0.146513
   7 H :    0.090133

  Mayer bond orders larger than 0.100000
B(  0-C ,  1-O ) :   1.9094 B(  0-C ,  2-C ) :   1.0057 B(  0-C ,  4-H ) :   0.9429
B(  2-C ,  3-C ) :   1.9722 B(  2-C ,  5-H ) :   0.9547 B(  3-C ,  6-H ) :   0.9330
B(  3-C ,  7-H ) :   0.9637

-----------------------------------------------------------------------------
         ABSORPTION SPECTRUM VIA TRANSITION ELECTRIC DIPOLE MOMENTS
-----------------------------------------------------------------------------
State   Energy    Wavelength  fosc         T2        TX        TY        TZ
        (cm-1)      (nm)                 (au**2)    (au)      (au)      (au)
-----------------------------------------------------------------------------
   1   32171.3    310.8   0.000142761   0.00146  -0.03628  -0.01014   0.00646

Dispersion correction           -0.026367574
FINAL SINGLE POINT ENERGY      -189.266142604646

DIPOLE MOMENT
-------------
                                X             Y             Z
Electronic contribution:     -1.80039      -1.61231      -0.02718
Nuclear contribution   :      1.98129       2.36595      -0.02363
                        -----------------------------------------
Total Dipole Moment    :      0.18089       0.75365      -0.05081
                        -----------------------------------------
Magnitude (a.u.)       :      0.77672
Magnitude (Debye)      :      1.97425

Rotational constants in cm-1:     0.757739     0.219625     0.170566
Rotational constants in MHz : 22716.455070  6584.188278  5113.436182

                             ****ORCA TERMINATED NORMALLY****
TOTAL RUN TIME: 0 days 0 hours 0 minutes 16 seconds 88 msec
