                         Program Version 5.0.3 -  RELEASE  -
|  1> ! B3LYP cc-pVDZ
|  2> !TightSCF
|  3> %scf
|  4>  ConvForced true
|  5>  convergence tight
|  6>  MaxIter 500
|  7> end
|  8>
|  9> %tddft
| 10>  nroots 1
| 11> end
| 12>
| 13> # 	6507
| 14> * xyz 0 1
| 15> 		C   -1.174734  -0.298230  -0.041457
| 16> 		O   -1.511090  -1.169146   0.767741
| 17> 		C   -0.025668   0.540199   0.112939
| 18> 		C    1.224353   0.033565  -0.175796
| 19> 		H   -1.727299  -0.187879  -0.856142
| 20> 		H   -0.231949   1.508765   0.709243
| 21> 		H    1.291691  -1.020289  -0.544263
| 22> 		H    2.160380   0.553210   0.029649
| 23> *
| 24>
| 25>                          ****END OF INPUT****

CARTESIAN COORDINATES (ANGSTROEM)
---------------------------------
  C     -1.174734   -0.298230   -0.041457
  O     -1.511090   -1.169146    0.767741
  C     -0.025668    0.540199    0.112939
  C      1.224353    0.033565   -0.175796
  H     -1.727299   -0.187879   -0.856142
  H     -0.231949    1.508765    0.709243
  H      1.291691   -1.020289   -0.544263
  H      2.160380    0.553210    0.029649

 Total Charge           Charge          ....    0
 Multiplicity           Mult            ....    1
 Number of Electrons    NEL             ....   30
 Basis Dimension        Dim             ....   76

ORBITAL ENERGIES
----------------

  NO   OCC          E(Eh)            E(eV)
   0   2.0000     -19.138713      -520.7909
   1   2.0000     -10.266641      -279.3695
   2   2.0000     -10.215529      -277.9787
   3   2.0000     -10.214632      -277.9543
   4   2.0000      -1.035022       -28.1644
   5   2.0000      -0.793069       -21.5805
   6   2.0000      -0.664496       -18.0819
   7   2.0000      -0.568265       -15.4633
   8   2.0000      -0.493482       -13.4283
   9   2.0000      -0.458295       -12.4708
  10   2.0000      -0.435865       -11.8605
  11   2.0000      -0.389758       -10.6059
  12   2.0000      -0.361588        -9.8393
  13   2.0000      -0.281333        -7.6555
  14   2.0000      -0.253314        -6.8930
  15   0.0000      -0.038878        -1.0579
  16   0.0000      -0.023797        -0.6475
  17   0.0000       0.079215         2.1555
  18   0.0000       0.087813         2.3895
  19   0.0000       0.114784         3.1234

MULLIKEN ATOMIC CHARGES
-----------------------
   0 C :    0.234503
   1 O :   -0.212385
   2 C :   -0.122107
   3 C :    0.013071
   4 H :   -0.036955
   5 H :    0.047752
   6 H :    0.038682
   7 H :    0.037439
Sum of atomic charges:   -0.0000000

LOEWDIN ATOMIC CHARGES
----------------------
   0 C :   -0.002552
   1 O :   -0.012753
   2 C :   -0.061544
   3 C :   -0.020374
   4 H :   -0.022529
   5 H :    0.055094
   6 H :    0.035874
   7 H :    0.028783

  Mayer bond orders larger than 0.100000
B(  0-C ,  1-O ) :   2.2062 B(  0-C ,  2-C ) :   1.0188 B(  0-C ,  4-H ) :   0.9409
B(  2-C ,  3-C ) :   2.0081 B(  2-C ,  5-H ) :   0.9277 B(  3-C ,  6-H ) :   0.9463
B(  3-C ,  7-H ) :   0.9534

-----------------------------------------------------------------------------
         ABSORPTION SPECTRUM VIA TRANSITION ELECTRIC DIPOLE MOMENTS
-----------------------------------------------------------------------------
State   Energy    Wavelength  fosc         T2        TX        TY        TZ
        (cm-1)      (nm)                 (au**2)    (au)      (au)      (au)
-----------------------------------------------------------------------------
   1   31274.8    319.7   0.000024767   0.00026  -0.00691  -0.01460  -0.00008

FINAL SINGLE POINT ENERGY      -191.633265121097

DIPOLE MOMENT
-------------
                                X             Y             Z
Electronic contribution:     -2.44357      -1.08414       0.81371
Nuclear contribution   :      2.88235       1.76049      -1.30568
                        -----------------------------------------
Total Dipole Moment    :      0.43878       0.67635      -0.49197
                        -----------------------------------------
Magnitude (a.u.)       :      0.94446
Magnitude (Debye)      :      2.40063

Rotational constants in cm-1:     0.872460     0.180373     0.164558
Rotational constants in MHz : 26155.693272  5407.448554  4933.314949

                             ****ORCA TERMINATED NORMALLY****
TOTAL RUN TIME: 0 days 0 hours 3 minutes 18 seconds 508 msec
