                         Program Version 5.0.3 -  RELEASE  -
|  1> ! HF-3c
|  2> !TightSCF
|  3> %scf
|  4>  ConvForced true
|  5>  convergence tight
|  6>  MaxIter 500
|  7> end
|  8>
|  9> %tddft
| 10>  nroots 1
| 11> end
| 12>
| 13> # 	6741
| 14> * xyz 0 1
| 15> 		C   -1.205921  -0.360043  -0.021473
| 16> 		O   -1.250236  -1.572346   0.007477
| 17> 		C   -0.007973   0.429167  -0.017328
| 18> 		C    1.213970  -0.064040  -0.045298
| 19> 		H   -2.123181   0.271122   0.117105
| 20> 		H   -0.082789   1.705168  -0.088191
| 21> 		H    1.383627  -1.066841  -0.050826
| 22> 		H    2.055050   0.623379   0.083050
| 23> *
| 24>
| 25>                          ****END OF INPUT****

CARTESIAN COORDINATES (ANGSTROEM)
---------------------------------
  C     -1.205921   -0.360043   -0.021473
  O     -1.250236   -1.572346    0.007477
  C     -0.007973    0.429167   -0.017328
  C      1.213970   -0.064040   -0.045298
  H     -2.123181    0.271122    0.117105
  H     -0.082789    1.705168   -0.088191
  H      1.383627   -1.066841   -0.050826
  H      2.055050    0.623379    0.083050

 Total Charge           Charge          ....    0
 Multiplicity           Mult            ....    1
 Number of Electrons    NEL             ....   30
 Basis Dimension        Dim             ....   24

ORBITAL ENERGIES
----------------

  NO   OCC          E(Eh)            E(eV)
   0   2.0000     -20.366074      -554.1891
   1   2.0000     -11.296737      -307.3999
   2   2.0000     -11.190472      -304.5082
   3   2.0000     -11.187910      -304.4385
   4   2.0000      -1.400081       -38.0981
   5   2.0000      -1.084130       -29.5007
   6   2.0000      -0.903225       -24.5780
   7   2.0000      -0.737474       -20.0677
   8   2.0000      -0.697775       -18.9874
   9   2.0000      -0.615592       -16.7511
  10   2.0000      -0.592627       -16.1262
  11   2.0000      -0.546007       -14.8576
  12   2.0000      -0.505246       -13.7484
  13   2.0000      -0.414339       -11.2747
  14   2.0000      -0.394650       -10.7390
  15   0.0000       0.124946         3.4000
  16   0.0000       0.322560         8.7773
  17   0.0000       0.454487        12.3672
  18   0.0000       0.606836        16.5128
  19   0.0000       0.682355        18.5678

MULLIKEN ATOMIC CHARGES
-----------------------
   0 C :    0.157247
   1 O :   -0.348896
   2 C :   -0.152368
   3 C :   -0.235825
   4 H :    0.133894
   5 H :    0.143650
   6 H :    0.154018
   7 H :    0.148279
Sum of atomic charges:   -0.0000000

LOEWDIN ATOMIC CHARGES
----------------------
   0 C :    0.140921
   1 O :   -0.255841
   2 C :   -0.124629
   3 C :   -0.130755
   4 H :    0.071903
   5 H :    0.105529
   6 H :    0.094671
   7 H :    0.098200

  Mayer bond orders larger than 0.100000
B(  0-C ,  1-O ) :   1.8952 B(  0-C ,  2-C ) :   1.0463 B(  0-C ,  4-H ) :   0.9222
B(  2-C ,  3-C ) :   1.9368 B(  2-C ,  5-H ) :   0.9504 B(  3-C ,  6-H ) :   0.9611
B(  3-C ,  7-H ) :   0.9631

-----------------------------------------------------------------------------
         ABSORPTION SPECTRUM VIA TRANSITION ELECTRIC DIPOLE MOMENTS
-----------------------------------------------------------------------------
State   Energy    Wavelength  fosc         T2        TX        TY        TZ
        (cm-1)      (nm)                 (au**2)    (au)      (au)      (au)
-----------------------------------------------------------------------------
   1   31530.5    317.2   0.000061689   0.00064  -0.02230  -0.00128   0.01206

Dispersion correction           -0.025705572
FINAL SINGLE POINT ENERGY      -189.317325822591

DIPOLE MOMENT
-------------
                                X             Y             Z
Electronic contribution:     -2.06538      -1.93433      -0.10134
Nuclear contribution   :      2.39861       2.99735       0.11317
                        -----------------------------------------
Total Dipole Moment    :      0.33323       1.06302       0.01183
                        -----------------------------------------
Magnitude (a.u.)       :      1.11409
Magnitude (Debye)      :      2.83180

Rotational constants in cm-1:     0.788968     0.207126     0.164184
Rotational constants in MHz : 23652.664664  6209.476781  4922.123776

                             ****ORCA TERMINATED NORMALLY****
TOTAL RUN TIME: 0 days 0 hours 0 minutes 13 seconds 261 msec
