                         Program Version 5.0.3 -  RELEASE  -
|  1> ! HF-3c
|  2> !TightSCF
|  3> %scf
|  4>  ConvForced true
|  5>  convergence tight
|  6>  MaxIter 500
|  7> end
|  8>
|  9> %tddft
| 10>  nroots 1
| 11> end
| 12>
| 13> # 	13213
| 14> * xyz 0 1
| 15> 		C   -1.180757  -0.358185   0.015141
| 16> 		O   -1.786825  -0.976820   0.958081
| 17> 		C    0.012931   0.435711   0.298673
| 18> 		C    1.207349   0.069522  -0.140062
| 19> 		H   -1.523329  -0.347900  -1.075950
| 20> 		H   -0.216039   1.355968   0.839403
| 21> 		H    1.276974  -0.873594  -0.702418
| 22> 		H    2.207394   0.624779  -0.132646
| 23> *
| 24>
| 25>                          ****END OF INPUT****

CARTESIAN COORDINATES (ANGSTROEM)
---------------------------------
  C     -1.180757   -0.358185    0.015141
  O     -1.786825   -0.976820    0.958081
  C      0.012931    0.435711    0.298673
  C      1.207349    0.069522   -0.140062
  H     -1.523329   -0.347900   -1.075950
  H     -0.216039    1.355968    0.839403
  H      1.276974   -0.873594   -0.702418
  H      2.207394    0.624779   -0.132646

 Total Charge           Charge          ....    0
 Multiplicity           Mult            ....    1
 Number of Electrons    NEL             ....   30
 Basis Dimension        Dim             ....   24

ORBITAL ENERGIES
----------------

  NO   OCC          E(Eh)            E(eV)
   0   2.0000     -20.355552      -553.9027
   1   2.0000     -11.284300      -307.0614
   2   2.0000     -11.193400      -304.5879
   3   2.0000     -11.183351      -304.3145
   4   2.0000      -1.355819       -36.8937
   5   2.0000      -1.082444       -29.4548
   6   2.0000      -0.881547       -23.9881
   7   2.0000      -0.761137       -20.7116
   8   2.0000      -0.660206       -17.9651
   9   2.0000      -0.638841       -17.3837
  10   2.0000      -0.589105       -16.0304
  11   2.0000      -0.529857       -14.4181
  12   2.0000      -0.473002       -12.8710
  13   2.0000      -0.414825       -11.2880
  14   2.0000      -0.400327       -10.8935
  15   0.0000       0.156903         4.2695
  16   0.0000       0.231132         6.2894
  17   0.0000       0.529672        14.4131
  18   0.0000       0.591186        16.0870
  19   0.0000       0.637455        17.3460

MULLIKEN ATOMIC CHARGES
-----------------------
   0 C :    0.152674
   1 O :   -0.331451
   2 C :   -0.175683
   3 C :   -0.228539
   4 H :    0.146693
   5 H :    0.155726
   6 H :    0.132594
   7 H :    0.147985
Sum of atomic charges:    0.0000000

LOEWDIN ATOMIC CHARGES
----------------------
   0 C :    0.148695
   1 O :   -0.257093
   2 C :   -0.125898
   3 C :   -0.142185
   4 H :    0.087531
   5 H :    0.102767
   6 H :    0.085142
   7 H :    0.101041

  Mayer bond orders larger than 0.100000
B(  0-C ,  1-O ) :   1.9352 B(  0-C ,  2-C ) :   1.0096 B(  0-C ,  4-H ) :   0.9205
B(  2-C ,  3-C ) :   1.9898 B(  2-C ,  5-H ) :   0.9449 B(  3-C ,  6-H ) :   0.9650
B(  3-C ,  7-H ) :   0.9613

-----------------------------------------------------------------------------
         ABSORPTION SPECTRUM VIA TRANSITION ELECTRIC DIPOLE MOMENTS
-----------------------------------------------------------------------------
State   Energy    Wavelength  fosc         T2        TX        TY        TZ
        (cm-1)      (nm)                 (au**2)    (au)      (au)      (au)
-----------------------------------------------------------------------------
   1   30438.4    328.5   0.000068666   0.00074   0.02544   0.00497  -0.00841

Dispersion correction           -0.025087971
FINAL SINGLE POINT ENERGY      -189.333076768787

DIPOLE MOMENT
-------------
                                X             Y             Z
Electronic contribution:     -2.75847      -1.04945       1.30048
Nuclear contribution   :      3.38166       1.57796      -2.08891
                        -----------------------------------------
Total Dipole Moment    :      0.62319       0.52851      -0.78843
                        -----------------------------------------
Magnitude (a.u.)       :      1.13548
Magnitude (Debye)      :      2.88616

Rotational constants in cm-1:     1.073632     0.158746     0.156684
Rotational constants in MHz : 32186.662846  4759.074545  4697.261255

                             ****ORCA TERMINATED NORMALLY****
TOTAL RUN TIME: 0 days 0 hours 0 minutes 12 seconds 109 msec
