                         Program Version 5.0.3 -  RELEASE  -
|  1> ! B3LYP cc-pVDZ
|  2> !TightSCF
|  3> %scf
|  4>  ConvForced true
|  5>  convergence tight
|  6>  MaxIter 500
|  7> end
|  8>
|  9> %tddft
| 10>  nroots 1
| 11> end
| 12>
| 13> # 	22633
| 14> * xyz 0 1
| 15> 		C   -0.570068  -0.449666   0.006431
| 16> 		O   -0.626653  -1.670215  -0.011639
| 17> 		C    0.629309   0.434362  -0.036169
| 18> 		C    1.905448  -0.071473   0.006338
| 19> 		H   -1.630372  -0.017653   0.252407
| 20> 		H    0.416846   1.566912   0.007170
| 21> 		H    2.019716  -1.343169   0.139251
| 22> 		H    2.719417   0.571832   0.062466
| 23> *
| 24>
| 25>                          ****END OF INPUT****

CARTESIAN COORDINATES (ANGSTROEM)
---------------------------------
  C     -0.570068   -0.449666    0.006431
  O     -0.626653   -1.670215   -0.011639
  C      0.629309    0.434362   -0.036169
  C      1.905448   -0.071473    0.006338
  H     -1.630372   -0.017653    0.252407
  H      0.416846    1.566912    0.007170
  H      2.019716   -1.343169    0.139251
  H      2.719417    0.571832    0.062466

 Total Charge           Charge          ....    0
 Multiplicity           Mult            ....    1
 Number of Electrons    NEL             ....   30
 Basis Dimension        Dim             ....   76

ORBITAL ENERGIES
----------------

  NO   OCC          E(Eh)            E(eV)
   0   2.0000     -19.136706      -520.7363
   1   2.0000     -10.279779      -279.7270
   2   2.0000     -10.233485      -278.4673
   3   2.0000     -10.222622      -278.1717
   4   2.0000      -1.038680       -28.2639
   5   2.0000      -0.787755       -21.4359
   6   2.0000      -0.650882       -17.7114
   7   2.0000      -0.530147       -14.4260
   8   2.0000      -0.498232       -13.5576
   9   2.0000      -0.440809       -11.9950
  10   2.0000      -0.423634       -11.5277
  11   2.0000      -0.392201       -10.6723
  12   2.0000      -0.371715       -10.1149
  13   2.0000      -0.287670        -7.8279
  14   2.0000      -0.250237        -6.8093
  15   0.0000      -0.075614        -2.0576
  16   0.0000       0.051129         1.3913
  17   0.0000       0.054392         1.4801
  18   0.0000       0.067266         1.8304
  19   0.0000       0.108966         2.9651

MULLIKEN ATOMIC CHARGES
-----------------------
   0 C :    0.157806
   1 O :   -0.198332
   2 C :   -0.122023
   3 C :    0.036048
   4 H :   -0.011544
   5 H :    0.023361
   6 H :    0.086960
   7 H :    0.027724
Sum of atomic charges:   -0.0000000

LOEWDIN ATOMIC CHARGES
----------------------
   0 C :   -0.040289
   1 O :   -0.019752
   2 C :   -0.090537
   3 C :    0.018184
   4 H :    0.000945
   5 H :    0.042819
   6 H :    0.073136
   7 H :    0.015493

  Mayer bond orders larger than 0.100000
B(  0-C ,  1-O ) :   2.1693 B(  0-C ,  2-C ) :   1.0341 B(  0-C ,  4-H ) :   0.9184
B(  2-C ,  3-C ) :   1.9324 B(  2-C ,  5-H ) :   0.9411 B(  3-C ,  6-H ) :   0.9242
B(  3-C ,  7-H ) :   0.9385

-----------------------------------------------------------------------------
         ABSORPTION SPECTRUM VIA TRANSITION ELECTRIC DIPOLE MOMENTS
-----------------------------------------------------------------------------
State   Energy    Wavelength  fosc         T2        TX        TY        TZ
        (cm-1)      (nm)                 (au**2)    (au)      (au)      (au)
-----------------------------------------------------------------------------
   1   25817.7    387.3   0.000174089   0.00222  -0.01436  -0.01141  -0.04340

FINAL SINGLE POINT ENERGY      -191.662842308382

DIPOLE MOMENT
-------------
                                X             Y             Z
Electronic contribution:     -1.64491      -1.60855      -0.35163
Nuclear contribution   :      2.14752       2.51817       0.43276
                        -----------------------------------------
Total Dipole Moment    :      0.50261       0.90962       0.08113
                        -----------------------------------------
Magnitude (a.u.)       :      1.04240
Magnitude (Debye)      :      2.64958

Rotational constants in cm-1:     0.754257     0.194592     0.154987
Rotational constants in MHz : 22612.068407  5833.717075  4646.406770

                             ****ORCA TERMINATED NORMALLY****
TOTAL RUN TIME: 0 days 0 hours 3 minutes 17 seconds 694 msec
