                         Program Version 5.0.3 -  RELEASE  -
|  1> ! B3LYP cc-pVDZ
|  2> !TightSCF
|  3> %scf
|  4>  ConvForced true
|  5>  convergence tight
|  6>  MaxIter 500
|  7> end
|  8>
|  9> %tddft
| 10>  nroots 1
| 11> end
| 12>
| 13> # 	9727
| 14> * xyz 0 1
| 15> 		C   -1.224414  -0.293660  -0.017999
| 16> 		O   -1.417424  -1.250653  -0.689716
| 17> 		C    0.001023   0.555955  -0.172984
| 18> 		C    1.258562   0.002462   0.179737
| 19> 		H   -1.809930   0.035983   0.893196
| 20> 		H   -0.169169   1.464117  -0.619220
| 21> 		H    1.168409  -1.000461   0.417476
| 22> 		H    2.190553   0.472620  -0.008924
| 23> *
| 24>
| 25>                          ****END OF INPUT****

CARTESIAN COORDINATES (ANGSTROEM)
---------------------------------
  C     -1.224414   -0.293660   -0.017999
  O     -1.417424   -1.250653   -0.689716
  C      0.001023    0.555955   -0.172984
  C      1.258562    0.002462    0.179737
  H     -1.809930    0.035983    0.893196
  H     -0.169169    1.464117   -0.619220
  H      1.168409   -1.000461    0.417476
  H      2.190553    0.472620   -0.008924

 Total Charge           Charge          ....    0
 Multiplicity           Mult            ....    1
 Number of Electrons    NEL             ....   30
 Basis Dimension        Dim             ....   76

ORBITAL ENERGIES
----------------

  NO   OCC          E(Eh)            E(eV)
   0   2.0000     -19.149766      -521.0916
   1   2.0000     -10.282503      -279.8011
   2   2.0000     -10.205902      -277.7167
   3   2.0000     -10.205047      -277.6935
   4   2.0000      -1.069229       -29.0952
   5   2.0000      -0.781649       -21.2697
   6   2.0000      -0.655586       -17.8394
   7   2.0000      -0.560243       -15.2450
   8   2.0000      -0.498848       -13.5743
   9   2.0000      -0.458652       -12.4806
  10   2.0000      -0.439933       -11.9712
  11   2.0000      -0.407033       -11.0759
  12   2.0000      -0.385225       -10.4825
  13   2.0000      -0.272137        -7.4052
  14   2.0000      -0.256416        -6.9774
  15   0.0000      -0.040340        -1.0977
  16   0.0000      -0.012779        -0.3477
  17   0.0000       0.089525         2.4361
  18   0.0000       0.095697         2.6041
  19   0.0000       0.112561         3.0629

MULLIKEN ATOMIC CHARGES
-----------------------
   0 C :    0.155429
   1 O :   -0.156102
   2 C :   -0.086312
   3 C :    0.067928
   4 H :   -0.007739
   5 H :   -0.011512
   6 H :    0.008823
   7 H :    0.029485
Sum of atomic charges:   -0.0000000

LOEWDIN ATOMIC CHARGES
----------------------
   0 C :   -0.040381
   1 O :    0.038131
   2 C :   -0.032106
   3 C :   -0.004658
   4 H :   -0.005356
   5 H :    0.008670
   6 H :    0.013850
   7 H :    0.021849

  Mayer bond orders larger than 0.100000
B(  0-C ,  1-O ) :   2.2503 B(  0-C ,  2-C ) :   0.9895 B(  0-C ,  4-H ) :   0.9001
B(  2-C ,  3-C ) :   2.0039 B(  2-C ,  5-H ) :   0.9527 B(  3-C ,  6-H ) :   0.9440
B(  3-C ,  7-H ) :   0.9605

-----------------------------------------------------------------------------
         ABSORPTION SPECTRUM VIA TRANSITION ELECTRIC DIPOLE MOMENTS
-----------------------------------------------------------------------------
State   Energy    Wavelength  fosc         T2        TX        TY        TZ
        (cm-1)      (nm)                 (au**2)    (au)      (au)      (au)
-----------------------------------------------------------------------------
   1   33611.0    297.5   0.000373654   0.00366   0.05299   0.02325  -0.01764

FINAL SINGLE POINT ENERGY      -191.625216402009

DIPOLE MOMENT
-------------
                                X             Y             Z
Electronic contribution:     -2.36585      -1.29163      -0.99112
Nuclear contribution   :      2.67565       1.95872       1.33451
                        -----------------------------------------
Total Dipole Moment    :      0.30981       0.66709       0.34339
                        -----------------------------------------
Magnitude (a.u.)       :      0.81173
Magnitude (Debye)      :      2.06325

Rotational constants in cm-1:     0.819792     0.184935     0.163497
Rotational constants in MHz : 24576.748176  5544.223977  4901.508541

                             ****ORCA TERMINATED NORMALLY****
TOTAL RUN TIME: 0 days 0 hours 3 minutes 22 seconds 636 msec
