                         Program Version 5.0.3 -  RELEASE  -
|  1> ! HF-3c
|  2> !TightSCF
|  3> %scf
|  4>  ConvForced true
|  5>  convergence tight
|  6>  MaxIter 500
|  7> end
|  8>
|  9> %tddft
| 10>  nroots 1
| 11> end
| 12>
| 13> # 	1485
| 14> * xyz 0 1
| 15> 		C   -1.273937  -0.378775  -0.026238
| 16> 		O   -1.407721  -1.401255   0.527808
| 17> 		C    0.000272   0.390393   0.237874
| 18> 		C    1.210330  -0.029687  -0.114123
| 19> 		H   -1.857256   0.194176  -0.757669
| 20> 		H   -0.162405   1.500502   0.509105
| 21> 		H    1.383073  -1.066604  -0.356817
| 22> 		H    2.065859   0.718936  -0.023257
| 23> *
| 24>
| 25>                          ****END OF INPUT****

CARTESIAN COORDINATES (ANGSTROEM)
---------------------------------
  C     -1.273937   -0.378775   -0.026238
  O     -1.407721   -1.401255    0.527808
  C      0.000272    0.390393    0.237874
  C      1.210330   -0.029687   -0.114123
  H     -1.857256    0.194176   -0.757669
  H     -0.162405    1.500502    0.509105
  H      1.383073   -1.066604   -0.356817
  H      2.065859    0.718936   -0.023257

 Total Charge           Charge          ....    0
 Multiplicity           Mult            ....    1
 Number of Electrons    NEL             ....   30
 Basis Dimension        Dim             ....   24

ORBITAL ENERGIES
----------------

  NO   OCC          E(Eh)            E(eV)
   0   2.0000     -20.391840      -554.8902
   1   2.0000     -11.313484      -307.8556
   2   2.0000     -11.171518      -303.9925
   3   2.0000     -11.169878      -303.9478
   4   2.0000      -1.440720       -39.2040
   5   2.0000      -1.063477       -28.9387
   6   2.0000      -0.885804       -24.1040
   7   2.0000      -0.745647       -20.2901
   8   2.0000      -0.691295       -18.8111
   9   2.0000      -0.625089       -17.0095
  10   2.0000      -0.606422       -16.5016
  11   2.0000      -0.547946       -14.9104
  12   2.0000      -0.518365       -14.1054
  13   2.0000      -0.405460       -11.0331
  14   2.0000      -0.389898       -10.6097
  15   0.0000       0.176774         4.8103
  16   0.0000       0.257977         7.0199
  17   0.0000       0.551936        15.0190
  18   0.0000       0.600598        16.3431
  19   0.0000       0.626383        17.0447

MULLIKEN ATOMIC CHARGES
-----------------------
   0 C :    0.179721
   1 O :   -0.346606
   2 C :   -0.153179
   3 C :   -0.247277
   4 H :    0.148374
   5 H :    0.133518
   6 H :    0.143644
   7 H :    0.141804
Sum of atomic charges:   -0.0000000

LOEWDIN ATOMIC CHARGES
----------------------
   0 C :    0.154036
   1 O :   -0.237137
   2 C :   -0.119396
   3 C :   -0.158106
   4 H :    0.081689
   5 H :    0.089358
   6 H :    0.092801
   7 H :    0.096753

  Mayer bond orders larger than 0.100000
B(  0-C ,  1-O ) :   1.9507 B(  0-C ,  2-C ) :   0.9807 B(  0-C ,  4-H ) :   0.9119
B(  2-C ,  3-C ) :   1.9904 B(  2-C ,  5-H ) :   0.9528 B(  3-C ,  6-H ) :   0.9632
B(  3-C ,  7-H ) :   0.9615

-----------------------------------------------------------------------------
         ABSORPTION SPECTRUM VIA TRANSITION ELECTRIC DIPOLE MOMENTS
-----------------------------------------------------------------------------
State   Energy    Wavelength  fosc         T2        TX        TY        TZ
        (cm-1)      (nm)                 (au**2)    (au)      (au)      (au)
-----------------------------------------------------------------------------
   1   35888.1    278.6   0.000101592   0.00093  -0.01752   0.02046   0.01438

Dispersion correction           -0.025354471
FINAL SINGLE POINT ENERGY      -189.307789821576

DIPOLE MOMENT
-------------
                                X             Y             Z
Electronic contribution:     -2.57657      -1.81098       0.69984
Nuclear contribution   :      2.78788       2.67288      -1.18555
                        -----------------------------------------
Total Dipole Moment    :      0.21131       0.86191      -0.48572
                        -----------------------------------------
Magnitude (a.u.)       :      1.01166
Magnitude (Debye)      :      2.57144

Rotational constants in cm-1:     0.856661     0.188717     0.164551
Rotational constants in MHz : 25682.051636  5657.584012  4933.111066

                             ****ORCA TERMINATED NORMALLY****
TOTAL RUN TIME: 0 days 0 hours 0 minutes 9 seconds 911 msec
