                         Program Version 5.0.3 -  RELEASE  -
|  1> ! B3LYP cc-pVDZ
|  2> !TightSCF
|  3> %scf
|  4>  ConvForced true
|  5>  convergence tight
|  6>  MaxIter 500
|  7> end
|  8>
|  9> %tddft
| 10>  nroots 1
| 11> end
| 12>
| 13> # 	30838
| 14> * xyz 0 1
| 15> 		C   -0.573099  -0.444275  -0.020055
| 16> 		O   -0.621621  -1.713871   0.009072
| 17> 		C    0.668606   0.449192  -0.016268
| 18> 		C    1.848575  -0.065893   0.028900
| 19> 		H   -1.595055   0.266767   0.201485
| 20> 		H    0.514239   1.512742  -0.106965
| 21> 		H    1.939738  -1.146959  -0.306436
| 22> 		H    2.835546   0.552253   0.162148
| 23> *
| 24>
| 25>                          ****END OF INPUT****

CARTESIAN COORDINATES (ANGSTROEM)
---------------------------------
  C     -0.573099   -0.444275   -0.020055
  O     -0.621621   -1.713871    0.009072
  C      0.668606    0.449192   -0.016268
  C      1.848575   -0.065893    0.028900
  H     -1.595055    0.266767    0.201485
  H      0.514239    1.512742   -0.106965
  H      1.939738   -1.146959   -0.306436
  H      2.835546    0.552253    0.162148

 Total Charge           Charge          ....    0
 Multiplicity           Mult            ....    1
 Number of Electrons    NEL             ....   30
 Basis Dimension        Dim             ....   76

ORBITAL ENERGIES
----------------

  NO   OCC          E(Eh)            E(eV)
   0   2.0000     -19.150823      -521.1204
   1   2.0000     -10.298712      -280.2422
   2   2.0000     -10.220722      -278.1200
   3   2.0000     -10.209416      -277.8123
   4   2.0000      -1.019446       -27.7405
   5   2.0000      -0.806491       -21.9457
   6   2.0000      -0.644346       -17.5335
   7   2.0000      -0.536535       -14.5999
   8   2.0000      -0.492931       -13.4133
   9   2.0000      -0.445391       -12.1197
  10   2.0000      -0.414763       -11.2863
  11   2.0000      -0.392429       -10.6785
  12   2.0000      -0.371610       -10.1120
  13   2.0000      -0.293330        -7.9819
  14   2.0000      -0.259797        -7.0694
  15   0.0000      -0.076256        -2.0750
  16   0.0000       0.033065         0.8998
  17   0.0000       0.058264         1.5854
  18   0.0000       0.079362         2.1595
  19   0.0000       0.110238         2.9997

MULLIKEN ATOMIC CHARGES
-----------------------
   0 C :    0.145358
   1 O :   -0.222073
   2 C :   -0.075071
   3 C :    0.037030
   4 H :    0.007431
   5 H :   -0.003089
   6 H :    0.057215
   7 H :    0.053199
Sum of atomic charges:   -0.0000000

LOEWDIN ATOMIC CHARGES
----------------------
   0 C :    0.003404
   1 O :   -0.054836
   2 C :   -0.091384
   3 C :    0.009256
   4 H :    0.006256
   5 H :    0.029886
   6 H :    0.048380
   7 H :    0.049038

  Mayer bond orders larger than 0.100000
B(  0-C ,  1-O ) :   2.1342 B(  0-C ,  2-C ) :   1.0232 B(  0-C ,  4-H ) :   0.8829
B(  2-C ,  3-C ) :   1.9666 B(  2-C ,  5-H ) :   0.9489 B(  3-C ,  6-H ) :   0.9233
B(  3-C ,  7-H ) :   0.9366

-----------------------------------------------------------------------------
         ABSORPTION SPECTRUM VIA TRANSITION ELECTRIC DIPOLE MOMENTS
-----------------------------------------------------------------------------
State   Energy    Wavelength  fosc         T2        TX        TY        TZ
        (cm-1)      (nm)                 (au**2)    (au)      (au)      (au)
-----------------------------------------------------------------------------
   1   27092.4    369.1   0.000194317   0.00236   0.01282   0.00331  -0.04675

FINAL SINGLE POINT ENERGY      -191.655053451750

DIPOLE MOMENT
-------------
                                X             Y             Z
Electronic contribution:     -1.78040      -1.93205      -0.02398
Nuclear contribution   :      2.30580       2.89780      -0.04695
                        -----------------------------------------
Total Dipole Moment    :      0.52540       0.96576      -0.07093
                        -----------------------------------------
Magnitude (a.u.)       :      1.10171
Magnitude (Debye)      :      2.80031

Rotational constants in cm-1:     0.754671     0.193824     0.154762
Rotational constants in MHz : 22624.470406  5810.697392  4639.652700

                             ****ORCA TERMINATED NORMALLY****
TOTAL RUN TIME: 0 days 0 hours 3 minutes 22 seconds 48 msec
