                         Program Version 5.0.3 -  RELEASE  -
|  1> ! B3LYP cc-pVDZ
|  2> !TightSCF
|  3> %scf
|  4>  ConvForced true
|  5>  convergence tight
|  6>  MaxIter 500
|  7> end
|  8>
|  9> %tddft
| 10>  nroots 1
| 11> end
| 12>
| 13> # 	32285
| 14> * xyz 0 1
| 15> 		C   -0.561513  -0.456903  -0.009158
| 16> 		O   -0.625462  -1.639680   0.006083
| 17> 		C    0.659486   0.398129   0.062725
| 18> 		C    1.846419  -0.073701  -0.030330
| 19> 		H   -1.571197   0.028684  -0.228202
| 20> 		H    0.343051   1.462486  -0.116093
| 21> 		H    1.981941  -1.176110   0.014683
| 22> 		H    2.959706   0.526634  -0.048034
| 23> *
| 24>
| 25>                          ****END OF INPUT****

CARTESIAN COORDINATES (ANGSTROEM)
---------------------------------
  C     -0.561513   -0.456903   -0.009158
  O     -0.625462   -1.639680    0.006083
  C      0.659486    0.398129    0.062725
  C      1.846419   -0.073701   -0.030330
  H     -1.571197    0.028684   -0.228202
  H      0.343051    1.462486   -0.116093
  H      1.981941   -1.176110    0.014683
  H      2.959706    0.526634   -0.048034

 Total Charge           Charge          ....    0
 Multiplicity           Mult            ....    1
 Number of Electrons    NEL             ....   30
 Basis Dimension        Dim             ....   76

ORBITAL ENERGIES
----------------

  NO   OCC          E(Eh)            E(eV)
   0   2.0000     -19.137691      -520.7630
   1   2.0000     -10.275006      -279.5971
   2   2.0000     -10.224950      -278.2350
   3   2.0000     -10.206228      -277.7256
   4   2.0000      -1.061651       -28.8890
   5   2.0000      -0.804700       -21.8970
   6   2.0000      -0.647626       -17.6228
   7   2.0000      -0.532190       -14.4816
   8   2.0000      -0.501268       -13.6402
   9   2.0000      -0.456545       -12.4232
  10   2.0000      -0.424570       -11.5531
  11   2.0000      -0.407027       -11.0758
  12   2.0000      -0.361513        -9.8373
  13   2.0000      -0.301403        -8.2016
  14   2.0000      -0.252264        -6.8645
  15   0.0000      -0.061941        -1.6855
  16   0.0000       0.043438         1.1820
  17   0.0000       0.065443         1.7808
  18   0.0000       0.079593         2.1658
  19   0.0000       0.122898         3.3442

MULLIKEN ATOMIC CHARGES
-----------------------
   0 C :    0.145183
   1 O :   -0.164824
   2 C :   -0.078784
   3 C :    0.007170
   4 H :   -0.024861
   5 H :    0.003739
   6 H :    0.045827
   7 H :    0.066551
Sum of atomic charges:   -0.0000000

LOEWDIN ATOMIC CHARGES
----------------------
   0 C :   -0.052379
   1 O :    0.020177
   2 C :   -0.099559
   3 C :    0.000066
   4 H :   -0.004995
   5 H :    0.038057
   6 H :    0.038036
   7 H :    0.060596

  Mayer bond orders larger than 0.100000
B(  0-C ,  1-O ) :   2.2283 B(  0-C ,  2-C ) :   1.0250 B(  0-C ,  4-H ) :   0.9133
B(  2-C ,  3-C ) :   1.9676 B(  2-C ,  5-H ) :   0.9411 B(  3-C ,  6-H ) :   0.9176
B(  3-C ,  7-H ) :   0.9392

-----------------------------------------------------------------------------
         ABSORPTION SPECTRUM VIA TRANSITION ELECTRIC DIPOLE MOMENTS
-----------------------------------------------------------------------------
State   Energy    Wavelength  fosc         T2        TX        TY        TZ
        (cm-1)      (nm)                 (au**2)    (au)      (au)      (au)
-----------------------------------------------------------------------------
   1   28890.0    346.1   0.000370570   0.00422   0.04084   0.01752  -0.04742

FINAL SINGLE POINT ENERGY      -191.649839724930

DIPOLE MOMENT
-------------
                                X             Y             Z
Electronic contribution:     -1.90145      -1.78550       0.29589
Nuclear contribution   :      2.32619       2.57819      -0.35392
                        -----------------------------------------
Total Dipole Moment    :      0.42474       0.79269      -0.05803
                        -----------------------------------------
Magnitude (a.u.)       :      0.90119
Magnitude (Debye)      :      2.29063

Rotational constants in cm-1:     0.827853     0.199168     0.160938
Rotational constants in MHz : 24818.419702  5970.904723  4824.788761

                             ****ORCA TERMINATED NORMALLY****
TOTAL RUN TIME: 0 days 0 hours 3 minutes 28 seconds 430 msec
