                         Program Version 5.0.3 -  RELEASE  -
|  1> ! HF-3c
|  2> !TightSCF
|  3> %scf
|  4>  ConvForced true
|  5>  convergence tight
|  6>  MaxIter 500
|  7> end
|  8>
|  9> %tddft
| 10>  nroots 1
| 11> end
| 12>
| 13> # 	9844
| 14> * xyz 0 1
| 15> 		C   -1.194375  -0.316769   0.031856
| 16> 		O   -1.312353  -1.439215   0.472879
| 17> 		C    0.023675   0.485287   0.121022
| 18> 		C    1.189439   0.024820  -0.065939
| 19> 		H   -2.034158   0.042578  -0.468168
| 20> 		H   -0.157172   1.612083   0.287002
| 21> 		H    1.316085  -1.065776  -0.300179
| 22> 		H    2.172510   0.663426  -0.099260
| 23> *
| 24>
| 25>                          ****END OF INPUT****

CARTESIAN COORDINATES (ANGSTROEM)
---------------------------------
  C     -1.194375   -0.316769    0.031856
  O     -1.312353   -1.439215    0.472879
  C      0.023675    0.485287    0.121022
  C      1.189439    0.024820   -0.065939
  H     -2.034158    0.042578   -0.468168
  H     -0.157172    1.612083    0.287002
  H      1.316085   -1.065776   -0.300179
  H      2.172510    0.663426   -0.099260

 Total Charge           Charge          ....    0
 Multiplicity           Mult            ....    1
 Number of Electrons    NEL             ....   30
 Basis Dimension        Dim             ....   24

ORBITAL ENERGIES
----------------

  NO   OCC          E(Eh)            E(eV)
   0   2.0000     -20.365459      -554.1723
   1   2.0000     -11.296494      -307.3932
   2   2.0000     -11.193072      -304.5790
   3   2.0000     -11.189769      -304.4891
   4   2.0000      -1.403912       -38.2024
   5   2.0000      -1.094278       -29.7768
   6   2.0000      -0.892463       -24.2852
   7   2.0000      -0.751646       -20.4533
   8   2.0000      -0.700319       -19.0566
   9   2.0000      -0.619288       -16.8517
  10   2.0000      -0.603166       -16.4130
  11   2.0000      -0.530023       -14.4227
  12   2.0000      -0.507498       -13.8097
  13   2.0000      -0.416626       -11.3370
  14   2.0000      -0.413210       -11.2440
  15   0.0000       0.155921         4.2428
  16   0.0000       0.294260         8.0072
  17   0.0000       0.505627        13.7588
  18   0.0000       0.604765        16.4565
  19   0.0000       0.618224        16.8227

MULLIKEN ATOMIC CHARGES
-----------------------
   0 C :    0.150233
   1 O :   -0.343336
   2 C :   -0.180286
   3 C :   -0.216148
   4 H :    0.141625
   5 H :    0.147778
   6 H :    0.150139
   7 H :    0.149995
Sum of atomic charges:   -0.0000000

LOEWDIN ATOMIC CHARGES
----------------------
   0 C :    0.139666
   1 O :   -0.250545
   2 C :   -0.137636
   3 C :   -0.129297
   4 H :    0.072321
   5 H :    0.100476
   6 H :    0.100158
   7 H :    0.104857

  Mayer bond orders larger than 0.100000
B(  0-C ,  1-O ) :   1.9159 B(  0-C ,  2-C ) :   1.0150 B(  0-C ,  4-H ) :   0.9330
B(  2-C ,  3-C ) :   1.9796 B(  2-C ,  5-H ) :   0.9446 B(  3-C ,  6-H ) :   0.9554
B(  3-C ,  7-H ) :   0.9567

-----------------------------------------------------------------------------
         ABSORPTION SPECTRUM VIA TRANSITION ELECTRIC DIPOLE MOMENTS
-----------------------------------------------------------------------------
State   Energy    Wavelength  fosc         T2        TX        TY        TZ
        (cm-1)      (nm)                 (au**2)    (au)      (au)      (au)
-----------------------------------------------------------------------------
   1   32959.7    303.4   0.000005828   0.00006  -0.00201   0.00684  -0.00272

Dispersion correction           -0.025645787
FINAL SINGLE POINT ENERGY      -189.323383390669

DIPOLE MOMENT
-------------
                                X             Y             Z
Electronic contribution:     -2.11339      -1.58324       0.68363
Nuclear contribution   :      2.50561       2.46007      -1.07697
                        -----------------------------------------
Total Dipole Moment    :      0.39222       0.87683      -0.39334
                        -----------------------------------------
Magnitude (a.u.)       :      1.03797
Magnitude (Debye)      :      2.63830

Rotational constants in cm-1:     0.857592     0.197821     0.165542
Rotational constants in MHz : 25709.963418  5930.530012  4962.825716

                             ****ORCA TERMINATED NORMALLY****
TOTAL RUN TIME: 0 days 0 hours 0 minutes 16 seconds 105 msec
