                         Program Version 5.0.3 -  RELEASE  -
|  1> ! B3LYP cc-pVDZ
|  2> !TightSCF
|  3> %scf
|  4>  ConvForced true
|  5>  convergence tight
|  6>  MaxIter 500
|  7> end
|  8>
|  9> %tddft
| 10>  nroots 1
| 11> end
| 12>
| 13> # 	5666
| 14> * xyz 0 1
| 15> 		C   -1.171275  -0.362506  -0.020910
| 16> 		O   -1.240363  -1.511149   0.357882
| 17> 		C    0.057544   0.474407   0.080090
| 18> 		C    1.226057  -0.064250  -0.158831
| 19> 		H   -2.193117   0.177805  -0.202025
| 20> 		H    0.033866   1.671399   0.178637
| 21> 		H    1.372536  -1.107817  -0.090371
| 22> 		H    1.942656   0.714381  -0.087038
| 23> *
| 24>
| 25>                          ****END OF INPUT****

CARTESIAN COORDINATES (ANGSTROEM)
---------------------------------
  C     -1.171275   -0.362506   -0.020910
  O     -1.240363   -1.511149    0.357882
  C      0.057544    0.474407    0.080090
  C      1.226057   -0.064250   -0.158831
  H     -2.193117    0.177805   -0.202025
  H      0.033866    1.671399    0.178637
  H      1.372536   -1.107817   -0.090371
  H      1.942656    0.714381   -0.087038

 Total Charge           Charge          ....    0
 Multiplicity           Mult            ....    1
 Number of Electrons    NEL             ....   30
 Basis Dimension        Dim             ....   76

ORBITAL ENERGIES
----------------

  NO   OCC          E(Eh)            E(eV)
   0   2.0000     -19.142015      -520.8807
   1   2.0000     -10.281594      -279.7764
   2   2.0000     -10.212192      -277.8879
   3   2.0000     -10.200485      -277.5693
   4   2.0000      -1.049199       -28.5502
   5   2.0000      -0.805348       -21.9146
   6   2.0000      -0.649103       -17.6630
   7   2.0000      -0.532362       -14.4863
   8   2.0000      -0.514295       -13.9947
   9   2.0000      -0.445343       -12.1184
  10   2.0000      -0.420762       -11.4495
  11   2.0000      -0.395143       -10.7524
  12   2.0000      -0.383273       -10.4294
  13   2.0000      -0.294069        -8.0020
  14   2.0000      -0.254282        -6.9194
  15   0.0000      -0.063841        -1.7372
  16   0.0000       0.035697         0.9714
  17   0.0000       0.057032         1.5519
  18   0.0000       0.094793         2.5794
  19   0.0000       0.112352         3.0572

MULLIKEN ATOMIC CHARGES
-----------------------
   0 C :    0.162791
   1 O :   -0.188297
   2 C :   -0.153281
   3 C :    0.122209
   4 H :   -0.010587
   5 H :    0.024876
   6 H :    0.024391
   7 H :    0.017897
Sum of atomic charges:    0.0000000

LOEWDIN ATOMIC CHARGES
----------------------
   0 C :   -0.036388
   1 O :   -0.003174
   2 C :   -0.081557
   3 C :    0.014327
   4 H :   -0.001232
   5 H :    0.049065
   6 H :    0.026743
   7 H :    0.032216

  Mayer bond orders larger than 0.100000
B(  0-C ,  1-O ) :   2.1798 B(  0-C ,  2-C ) :   1.0173 B(  0-C ,  4-H ) :   0.9094
B(  2-C ,  3-C ) :   1.9792 B(  2-C ,  5-H ) :   0.9305 B(  3-C ,  6-H ) :   0.9405
B(  3-C ,  7-H ) :   0.9346

-----------------------------------------------------------------------------
         ABSORPTION SPECTRUM VIA TRANSITION ELECTRIC DIPOLE MOMENTS
-----------------------------------------------------------------------------
State   Energy    Wavelength  fosc         T2        TX        TY        TZ
        (cm-1)      (nm)                 (au**2)    (au)      (au)      (au)
-----------------------------------------------------------------------------
   1   28777.6    347.5   0.000767203   0.00878   0.08991  -0.00042  -0.02631

FINAL SINGLE POINT ENERGY      -191.651244345467

DIPOLE MOMENT
-------------
                                X             Y             Z
Electronic contribution:     -1.81724      -1.99345       0.27800
Nuclear contribution   :      2.23072       2.83103      -0.47383
                        -----------------------------------------
Total Dipole Moment    :      0.41348       0.83758      -0.19582
                        -----------------------------------------
Magnitude (a.u.)       :      0.95439
Magnitude (Debye)      :      2.42586

Rotational constants in cm-1:     0.798331     0.202728     0.164749
Rotational constants in MHz : 23933.360478  6077.640972  4939.051244

                             ****ORCA TERMINATED NORMALLY****
TOTAL RUN TIME: 0 days 0 hours 3 minutes 19 seconds 321 msec
