                         Program Version 5.0.3 -  RELEASE  -
|  1> ! B3LYP cc-pVDZ
|  2> !TightSCF
|  3> %scf
|  4>  ConvForced true
|  5>  convergence tight
|  6>  MaxIter 500
|  7> end
|  8>
|  9> %tddft
| 10>  nroots 1
| 11> end
| 12>
| 13> # 	19962
| 14> * xyz 0 1
| 15> 		C   -1.269653  -0.302220  -0.018022
| 16> 		O   -1.230317  -1.468365   0.307210
| 17> 		C    0.020238   0.523905   0.116284
| 18> 		C    1.181736  -0.005478  -0.052834
| 19> 		H   -2.130781   0.209308  -0.366240
| 20> 		H   -0.153357   1.624555   0.279971
| 21> 		H    1.362428  -1.112025  -0.348230
| 22> 		H    2.207493   0.467383   0.117267
| 23> *
| 24>
| 25>                          ****END OF INPUT****

CARTESIAN COORDINATES (ANGSTROEM)
---------------------------------
  C     -1.269653   -0.302220   -0.018022
  O     -1.230317   -1.468365    0.307210
  C      0.020238    0.523905    0.116284
  C      1.181736   -0.005478   -0.052834
  H     -2.130781    0.209308   -0.366240
  H     -0.153357    1.624555    0.279971
  H      1.362428   -1.112025   -0.348230
  H      2.207493    0.467383    0.117267

 Total Charge           Charge          ....    0
 Multiplicity           Mult            ....    1
 Number of Electrons    NEL             ....   30
 Basis Dimension        Dim             ....   76

ORBITAL ENERGIES
----------------

  NO   OCC          E(Eh)            E(eV)
   0   2.0000     -19.141443      -520.8651
   1   2.0000     -10.277115      -279.6545
   2   2.0000     -10.210028      -277.8290
   3   2.0000     -10.201916      -277.6082
   4   2.0000      -1.048467       -28.5302
   5   2.0000      -0.790094       -21.4996
   6   2.0000      -0.649282       -17.6679
   7   2.0000      -0.548348       -14.9213
   8   2.0000      -0.494803       -13.4643
   9   2.0000      -0.449994       -12.2450
  10   2.0000      -0.436463       -11.8768
  11   2.0000      -0.391096       -10.6423
  12   2.0000      -0.359724        -9.7886
  13   2.0000      -0.291000        -7.9185
  14   2.0000      -0.255163        -6.9433
  15   0.0000      -0.055457        -1.5091
  16   0.0000       0.045337         1.2337
  17   0.0000       0.066792         1.8175
  18   0.0000       0.085419         2.3244
  19   0.0000       0.115608         3.1459

MULLIKEN ATOMIC CHARGES
-----------------------
   0 C :    0.203263
   1 O :   -0.186803
   2 C :   -0.105088
   3 C :    0.015923
   4 H :   -0.016172
   5 H :    0.003194
   6 H :    0.045778
   7 H :    0.039905
Sum of atomic charges:   -0.0000000

LOEWDIN ATOMIC CHARGES
----------------------
   0 C :   -0.007759
   1 O :    0.003954
   2 C :   -0.087824
   3 C :   -0.015107
   4 H :   -0.010462
   5 H :    0.033581
   6 H :    0.044040
   7 H :    0.039576

  Mayer bond orders larger than 0.100000
B(  0-C ,  1-O ) :   2.2037 B(  0-C ,  2-C ) :   1.0099 B(  0-C ,  4-H ) :   0.9233
B(  2-C ,  3-C ) :   2.0044 B(  2-C ,  5-H ) :   0.9317 B(  3-C ,  6-H ) :   0.9327
B(  3-C ,  7-H ) :   0.9452

-----------------------------------------------------------------------------
         ABSORPTION SPECTRUM VIA TRANSITION ELECTRIC DIPOLE MOMENTS
-----------------------------------------------------------------------------
State   Energy    Wavelength  fosc         T2        TX        TY        TZ
        (cm-1)      (nm)                 (au**2)    (au)      (au)      (au)
-----------------------------------------------------------------------------
   1   30050.9    332.8   0.000201182   0.00220   0.04419  -0.01400   0.00743

FINAL SINGLE POINT ENERGY      -191.656202214650

DIPOLE MOMENT
-------------
                                X             Y             Z
Electronic contribution:     -2.25412      -1.59254       0.39987
Nuclear contribution   :      2.47838       2.41760      -0.63855
                        -----------------------------------------
Total Dipole Moment    :      0.22426       0.82506      -0.23868
                        -----------------------------------------
Magnitude (a.u.)       :      0.88769
Magnitude (Debye)      :      2.25632

Rotational constants in cm-1:     0.752542     0.206519     0.165660
Rotational constants in MHz : 22560.633880  6191.275949  4966.369118

                             ****ORCA TERMINATED NORMALLY****
TOTAL RUN TIME: 0 days 0 hours 3 minutes 19 seconds 143 msec
