                         Program Version 5.0.3 -  RELEASE  -
|  1> ! B3LYP cc-pVDZ
|  2> !TightSCF
|  3> %scf
|  4>  ConvForced true
|  5>  convergence tight
|  6>  MaxIter 500
|  7> end
|  8>
|  9> %tddft
| 10>  nroots 1
| 11> end
| 12>
| 13> # 	21499
| 14> * xyz 0 1
| 15> 		C   -0.572538  -0.459472  -0.002290
| 16> 		O   -0.618334  -1.658715  -0.025867
| 17> 		C    0.625937   0.387057   0.042977
| 18> 		C    1.870255  -0.043825   0.002689
| 19> 		H   -1.396495   0.120280   0.140094
| 20> 		H    0.614121   1.612345  -0.251274
| 21> 		H    1.802221  -1.301937   0.327979
| 22> 		H    2.869706   0.499636  -0.360320
| 23> *
| 24>
| 25>                          ****END OF INPUT****

CARTESIAN COORDINATES (ANGSTROEM)
---------------------------------
  C     -0.572538   -0.459472   -0.002290
  O     -0.618334   -1.658715   -0.025867
  C      0.625937    0.387057    0.042977
  C      1.870255   -0.043825    0.002689
  H     -1.396495    0.120280    0.140094
  H      0.614121    1.612345   -0.251274
  H      1.802221   -1.301937    0.327979
  H      2.869706    0.499636   -0.360320

 Total Charge           Charge          ....    0
 Multiplicity           Mult            ....    1
 Number of Electrons    NEL             ....   30
 Basis Dimension        Dim             ....   76

ORBITAL ENERGIES
----------------

  NO   OCC          E(Eh)            E(eV)
   0   2.0000     -19.144885      -520.9588
   1   2.0000     -10.273187      -279.5476
   2   2.0000     -10.234809      -278.5033
   3   2.0000     -10.212046      -277.8839
   4   2.0000      -1.057158       -28.7667
   5   2.0000      -0.794549       -21.6208
   6   2.0000      -0.663652       -18.0589
   7   2.0000      -0.530653       -14.4398
   8   2.0000      -0.491690       -13.3796
   9   2.0000      -0.446921       -12.1613
  10   2.0000      -0.434343       -11.8191
  11   2.0000      -0.402260       -10.9460
  12   2.0000      -0.333498        -9.0749
  13   2.0000      -0.290409        -7.9024
  14   2.0000      -0.263949        -7.1824
  15   0.0000      -0.073119        -1.9897
  16   0.0000       0.040652         1.1062
  17   0.0000       0.055889         1.5208
  18   0.0000       0.062796         1.7088
  19   0.0000       0.117946         3.2095

MULLIKEN ATOMIC CHARGES
-----------------------
   0 C :    0.258253
   1 O :   -0.183115
   2 C :   -0.169225
   3 C :   -0.036626
   4 H :   -0.032836
   5 H :    0.021813
   6 H :    0.065914
   7 H :    0.075822
Sum of atomic charges:    0.0000000

LOEWDIN ATOMIC CHARGES
----------------------
   0 C :   -0.035436
   1 O :    0.017846
   2 C :   -0.118797
   3 C :   -0.012693
   4 H :   -0.015619
   5 H :    0.046352
   6 H :    0.060267
   7 H :    0.058080

  Mayer bond orders larger than 0.100000
B(  0-C ,  1-O ) :   2.1987 B(  0-C ,  2-C ) :   1.0425 B(  0-C ,  4-H ) :   0.9290
B(  2-C ,  3-C ) :   1.9450 B(  2-C ,  5-H ) :   0.9222 B(  3-C ,  6-H ) :   0.9058
B(  3-C ,  7-H ) :   0.9351

-----------------------------------------------------------------------------
         ABSORPTION SPECTRUM VIA TRANSITION ELECTRIC DIPOLE MOMENTS
-----------------------------------------------------------------------------
State   Energy    Wavelength  fosc         T2        TX        TY        TZ
        (cm-1)      (nm)                 (au**2)    (au)      (au)      (au)
-----------------------------------------------------------------------------
   1   28853.2    346.6   0.000429491   0.00490   0.06192   0.00986  -0.03112

FINAL SINGLE POINT ENERGY      -191.616587186577

DIPOLE MOMENT
-------------
                                X             Y             Z
Electronic contribution:     -2.09850      -1.78759       0.07296
Nuclear contribution   :      2.48861       2.66242      -0.13251
                        -----------------------------------------
Total Dipole Moment    :      0.39011       0.87482      -0.05955
                        -----------------------------------------
Magnitude (a.u.)       :      0.95971
Magnitude (Debye)      :      2.43939

Rotational constants in cm-1:     0.810636     0.197521     0.159892
Rotational constants in MHz : 24302.253725  5921.515657  4793.450433

                             ****ORCA TERMINATED NORMALLY****
TOTAL RUN TIME: 0 days 0 hours 3 minutes 18 seconds 937 msec
