                         Program Version 5.0.3 -  RELEASE  -
|  1> ! HF-3c
|  2> !TightSCF
|  3> %scf
|  4>  ConvForced true
|  5>  convergence tight
|  6>  MaxIter 500
|  7> end
|  8>
|  9> %tddft
| 10>  nroots 1
| 11> end
| 12>
| 13> # 	22289
| 14> * xyz 0 1
| 15> 		C   -0.599200  -0.390491   0.035339
| 16> 		O   -0.534021  -1.637897  -0.011167
| 17> 		C    0.648850   0.412539  -0.031596
| 18> 		C    1.780978  -0.143100  -0.004158
| 19> 		H   -1.425882   0.212808  -0.084123
| 20> 		H    0.365079   1.454484   0.138463
| 21> 		H    1.778775  -1.320760   0.148605
| 22> 		H    2.881063   0.361569  -0.017010
| 23> *
| 24>
| 25>                          ****END OF INPUT****

CARTESIAN COORDINATES (ANGSTROEM)
---------------------------------
  C     -0.599200   -0.390491    0.035339
  O     -0.534021   -1.637897   -0.011167
  C      0.648850    0.412539   -0.031596
  C      1.780978   -0.143100   -0.004158
  H     -1.425882    0.212808   -0.084123
  H      0.365079    1.454484    0.138463
  H      1.778775   -1.320760    0.148605
  H      2.881063    0.361569   -0.017010

 Total Charge           Charge          ....    0
 Multiplicity           Mult            ....    1
 Number of Electrons    NEL             ....   30
 Basis Dimension        Dim             ....   24

ORBITAL ENERGIES
----------------

  NO   OCC          E(Eh)            E(eV)
   0   2.0000     -20.356038      -553.9160
   1   2.0000     -11.285275      -307.0879
   2   2.0000     -11.187058      -304.4153
   3   2.0000     -11.179576      -304.2117
   4   2.0000      -1.374861       -37.4119
   5   2.0000      -1.087686       -29.5974
   6   2.0000      -0.900532       -24.5047
   7   2.0000      -0.732141       -19.9226
   8   2.0000      -0.690732       -18.7958
   9   2.0000      -0.613159       -16.6849
  10   2.0000      -0.583978       -15.8909
  11   2.0000      -0.531954       -14.4752
  12   2.0000      -0.491572       -13.3763
  13   2.0000      -0.415247       -11.2995
  14   2.0000      -0.398551       -10.8451
  15   0.0000       0.135875         3.6973
  16   0.0000       0.314970         8.5708
  17   0.0000       0.484526        13.1846
  18   0.0000       0.553857        15.0712
  19   0.0000       0.675308        18.3761

MULLIKEN ATOMIC CHARGES
-----------------------
   0 C :    0.150674
   1 O :   -0.345238
   2 C :   -0.202020
   3 C :   -0.197628
   4 H :    0.140754
   5 H :    0.138921
   6 H :    0.164013
   7 H :    0.150525
Sum of atomic charges:    0.0000000

LOEWDIN ATOMIC CHARGES
----------------------
   0 C :    0.148199
   1 O :   -0.262771
   2 C :   -0.157059
   3 C :   -0.113633
   4 H :    0.072281
   5 H :    0.088530
   6 H :    0.116508
   7 H :    0.107945

  Mayer bond orders larger than 0.100000
B(  0-C ,  1-O ) :   1.9065 B(  0-C ,  2-C ) :   1.0155 B(  0-C ,  4-H ) :   0.9359
B(  2-C ,  3-C ) :   1.9647 B(  2-C ,  5-H ) :   0.9542 B(  3-C ,  6-H ) :   0.9419
B(  3-C ,  7-H ) :   0.9551

-----------------------------------------------------------------------------
         ABSORPTION SPECTRUM VIA TRANSITION ELECTRIC DIPOLE MOMENTS
-----------------------------------------------------------------------------
State   Energy    Wavelength  fosc         T2        TX        TY        TZ
        (cm-1)      (nm)                 (au**2)    (au)      (au)      (au)
-----------------------------------------------------------------------------
   1   30626.8    326.5   0.000140767   0.00151  -0.03753  -0.00215  -0.00998

Dispersion correction           -0.026372198
FINAL SINGLE POINT ENERGY      -189.315598527793

DIPOLE MOMENT
-------------
                                X             Y             Z
Electronic contribution:     -1.90665      -1.57822      -0.09072
Nuclear contribution   :      2.22142       2.45080       0.17402
                        -----------------------------------------
Total Dipole Moment    :      0.31476       0.87258       0.08330
                        -----------------------------------------
Magnitude (a.u.)       :      0.93135
Magnitude (Debye)      :      2.36730

Rotational constants in cm-1:     0.736482     0.221817     0.170742
Rotational constants in MHz : 22079.166054  6649.898912  5118.727660

                             ****ORCA TERMINATED NORMALLY****
TOTAL RUN TIME: 0 days 0 hours 0 minutes 13 seconds 631 msec
