                         Program Version 5.0.3 -  RELEASE  -
|  1> ! B3LYP cc-pVDZ
|  2> !TightSCF
|  3> %scf
|  4>  ConvForced true
|  5>  convergence tight
|  6>  MaxIter 500
|  7> end
|  8>
|  9> %tddft
| 10>  nroots 1
| 11> end
| 12>
| 13> # 	1572
| 14> * xyz 0 1
| 15> 		C   -1.189522  -0.414087  -0.008278
| 16> 		O   -2.001780  -0.815659   0.853877
| 17> 		C   -0.001020   0.449980   0.305657
| 18> 		C    1.211482   0.106262  -0.095185
| 19> 		H   -1.470636  -0.629299  -1.033560
| 20> 		H   -0.050748   1.293157   0.818164
| 21> 		H    1.281319  -0.770975  -0.882599
| 22> 		H    2.242024   0.705173   0.063974
| 23> *
| 24>
| 25>                          ****END OF INPUT****

CARTESIAN COORDINATES (ANGSTROEM)
---------------------------------
  C     -1.189522   -0.414087   -0.008278
  O     -2.001780   -0.815659    0.853877
  C     -0.001020    0.449980    0.305657
  C      1.211482    0.106262   -0.095185
  H     -1.470636   -0.629299   -1.033560
  H     -0.050748    1.293157    0.818164
  H      1.281319   -0.770975   -0.882599
  H      2.242024    0.705173    0.063974

 Total Charge           Charge          ....    0
 Multiplicity           Mult            ....    1
 Number of Electrons    NEL             ....   30
 Basis Dimension        Dim             ....   76

ORBITAL ENERGIES
----------------

  NO   OCC          E(Eh)            E(eV)
   0   2.0000     -19.143262      -520.9146
   1   2.0000     -10.284583      -279.8577
   2   2.0000     -10.226119      -278.2668
   3   2.0000     -10.202723      -277.6302
   4   2.0000      -1.028708       -27.9926
   5   2.0000      -0.803879       -21.8747
   6   2.0000      -0.638262       -17.3680
   7   2.0000      -0.576483       -15.6869
   8   2.0000      -0.492833       -13.4107
   9   2.0000      -0.459516       -12.5041
  10   2.0000      -0.428465       -11.6591
  11   2.0000      -0.378767       -10.3068
  12   2.0000      -0.367896       -10.0110
  13   2.0000      -0.293120        -7.9762
  14   2.0000      -0.257499        -7.0069
  15   0.0000      -0.059417        -1.6168
  16   0.0000       0.007924         0.2156
  17   0.0000       0.065009         1.7690
  18   0.0000       0.090708         2.4683
  19   0.0000       0.106271         2.8918

MULLIKEN ATOMIC CHARGES
-----------------------
   0 C :    0.184851
   1 O :   -0.216313
   2 C :    0.027148
   3 C :   -0.064902
   4 H :    0.003730
   5 H :   -0.032306
   6 H :    0.036215
   7 H :    0.061576
Sum of atomic charges:    0.0000000

LOEWDIN ATOMIC CHARGES
----------------------
   0 C :    0.012411
   1 O :   -0.029485
   2 C :   -0.049190
   3 C :   -0.031474
   4 H :    0.000721
   5 H :    0.007693
   6 H :    0.037369
   7 H :    0.051955

  Mayer bond orders larger than 0.100000
B(  0-C ,  1-O ) :   2.1606 B(  0-C ,  2-C ) :   0.9913 B(  0-C ,  4-H ) :   0.9341
B(  2-C ,  3-C ) :   1.9807 B(  2-C ,  5-H ) :   0.9553 B(  3-C ,  6-H ) :   0.9406
B(  3-C ,  7-H ) :   0.9389

-----------------------------------------------------------------------------
         ABSORPTION SPECTRUM VIA TRANSITION ELECTRIC DIPOLE MOMENTS
-----------------------------------------------------------------------------
State   Energy    Wavelength  fosc         T2        TX        TY        TZ
        (cm-1)      (nm)                 (au**2)    (au)      (au)      (au)
-----------------------------------------------------------------------------
   1   29150.3    343.1   0.000489013   0.00552   0.07418  -0.00370  -0.00256

FINAL SINGLE POINT ENERGY      -191.641326069221

DIPOLE MOMENT
-------------
                                X             Y             Z
Electronic contribution:     -3.06314      -0.81016       1.35145
Nuclear contribution   :      3.84825       1.27071      -1.96865
                        -----------------------------------------
Total Dipole Moment    :      0.78511       0.46055      -0.61720
                        -----------------------------------------
Magnitude (a.u.)       :      1.09975
Magnitude (Debye)      :      2.79534

Rotational constants in cm-1:     1.264406     0.152586     0.145989
Rotational constants in MHz : 37905.943068  4574.402431  4376.646539

                             ****ORCA TERMINATED NORMALLY****
TOTAL RUN TIME: 0 days 0 hours 3 minutes 23 seconds 371 msec
