                         Program Version 5.0.3 -  RELEASE  -
|  1> ! B3LYP cc-pVDZ
|  2> !TightSCF
|  3> %scf
|  4>  ConvForced true
|  5>  convergence tight
|  6>  MaxIter 500
|  7> end
|  8>
|  9> %tddft
| 10>  nroots 1
| 11> end
| 12>
| 13> # 	16360
| 14> * xyz 0 1
| 15> 		C   -1.266194  -0.327275  -0.003631
| 16> 		O   -1.133252  -1.543467  -0.085659
| 17> 		C    0.043062   0.537905  -0.066955
| 18> 		C    1.185152  -0.024448  -0.017003
| 19> 		H   -2.208596   0.189992   0.319548
| 20> 		H   -0.051007   1.783452  -0.261787
| 21> 		H    1.286564  -1.169406   0.177529
| 22> 		H    2.109623   0.488162   0.009248
| 23> *
| 24>
| 25>                          ****END OF INPUT****

CARTESIAN COORDINATES (ANGSTROEM)
---------------------------------
  C     -1.266194   -0.327275   -0.003631
  O     -1.133252   -1.543467   -0.085659
  C      0.043062    0.537905   -0.066955
  C      1.185152   -0.024448   -0.017003
  H     -2.208596    0.189992    0.319548
  H     -0.051007    1.783452   -0.261787
  H      1.286564   -1.169406    0.177529
  H      2.109623    0.488162    0.009248

 Total Charge           Charge          ....    0
 Multiplicity           Mult            ....    1
 Number of Electrons    NEL             ....   30
 Basis Dimension        Dim             ....   76

ORBITAL ENERGIES
----------------

  NO   OCC          E(Eh)            E(eV)
   0   2.0000     -19.147658      -521.0343
   1   2.0000     -10.289284      -279.9857
   2   2.0000     -10.212285      -277.8904
   3   2.0000     -10.199220      -277.5349
   4   2.0000      -1.044911       -28.4335
   5   2.0000      -0.790995       -21.5241
   6   2.0000      -0.640728       -17.4351
   7   2.0000      -0.539062       -14.6686
   8   2.0000      -0.488911       -13.3040
   9   2.0000      -0.444851       -12.1050
  10   2.0000      -0.432953       -11.7813
  11   2.0000      -0.393246       -10.7008
  12   2.0000      -0.353770        -9.6266
  13   2.0000      -0.294021        -8.0007
  14   2.0000      -0.260619        -7.0918
  15   0.0000      -0.062379        -1.6974
  16   0.0000       0.044643         1.2148
  17   0.0000       0.060395         1.6434
  18   0.0000       0.088774         2.4157
  19   0.0000       0.101570         2.7639

MULLIKEN ATOMIC CHARGES
-----------------------
   0 C :    0.192226
   1 O :   -0.193212
   2 C :   -0.192293
   3 C :    0.090176
   4 H :    0.012743
   5 H :    0.022843
   6 H :    0.050139
   7 H :    0.017378
Sum of atomic charges:    0.0000000

LOEWDIN ATOMIC CHARGES
----------------------
   0 C :   -0.001621
   1 O :   -0.009809
   2 C :   -0.100501
   3 C :   -0.007816
   4 H :    0.003769
   5 H :    0.043996
   6 H :    0.048634
   7 H :    0.023348

  Mayer bond orders larger than 0.100000
B(  0-C ,  1-O ) :   2.1798 B(  0-C ,  2-C ) :   0.9780 B(  0-C ,  4-H ) :   0.9157
B(  2-C ,  3-C ) :   2.0248 B(  2-C ,  5-H ) :   0.9187 B(  3-C ,  6-H ) :   0.9206
B(  3-C ,  7-H ) :   0.9352

-----------------------------------------------------------------------------
         ABSORPTION SPECTRUM VIA TRANSITION ELECTRIC DIPOLE MOMENTS
-----------------------------------------------------------------------------
State   Energy    Wavelength  fosc         T2        TX        TY        TZ
        (cm-1)      (nm)                 (au**2)    (au)      (au)      (au)
-----------------------------------------------------------------------------
   1   29662.9    337.1   0.000915955   0.01017  -0.09565   0.00453   0.03156

FINAL SINGLE POINT ENERGY      -191.645601469667

DIPOLE MOMENT
-------------
                                X             Y             Z
Electronic contribution:     -2.03223      -1.80513      -0.27189
Nuclear contribution   :      2.22162       2.61111       0.37438
                        -----------------------------------------
Total Dipole Moment    :      0.18939       0.80598       0.10249
                        -----------------------------------------
Magnitude (a.u.)       :      0.83425
Magnitude (Debye)      :      2.12050

Rotational constants in cm-1:     0.713557     0.213204     0.165096
Rotational constants in MHz : 21391.913291  6391.703508  4949.462954

                             ****ORCA TERMINATED NORMALLY****
TOTAL RUN TIME: 0 days 0 hours 3 minutes 13 seconds 685 msec
