                         Program Version 5.0.3 -  RELEASE  -
|  1> ! HF-3c
|  2> !TightSCF
|  3> %scf
|  4>  ConvForced true
|  5>  convergence tight
|  6>  MaxIter 500
|  7> end
|  8>
|  9> %tddft
| 10>  nroots 1
| 11> end
| 12>
| 13> # 	8543
| 14> * xyz 0 1
| 15> 		C   -1.200808  -0.386930  -0.031127
| 16> 		O   -1.350016  -1.511134  -0.288705
| 17> 		C   -0.041309   0.491283  -0.099001
| 18> 		C    1.188980  -0.021101   0.093844
| 19> 		H   -2.011208   0.285720   0.500241
| 20> 		H   -0.210625   1.632808  -0.272234
| 21> 		H    1.535950  -1.025676   0.260084
| 22> 		H    2.065791   0.475525  -0.105988
| 23> *
| 24>
| 25>                          ****END OF INPUT****

CARTESIAN COORDINATES (ANGSTROEM)
---------------------------------
  C     -1.200808   -0.386930   -0.031127
  O     -1.350016   -1.511134   -0.288705
  C     -0.041309    0.491283   -0.099001
  C      1.188980   -0.021101    0.093844
  H     -2.011208    0.285720    0.500241
  H     -0.210625    1.632808   -0.272234
  H      1.535950   -1.025676    0.260084
  H      2.065791    0.475525   -0.105988

 Total Charge           Charge          ....    0
 Multiplicity           Mult            ....    1
 Number of Electrons    NEL             ....   30
 Basis Dimension        Dim             ....   24

ORBITAL ENERGIES
----------------

  NO   OCC          E(Eh)            E(eV)
   0   2.0000     -20.389233      -554.8192
   1   2.0000     -11.309304      -307.7418
   2   2.0000     -11.193032      -304.5779
   3   2.0000     -11.187266      -304.4210
   4   2.0000      -1.438961       -39.1561
   5   2.0000      -1.078901       -29.3584
   6   2.0000      -0.902011       -24.5450
   7   2.0000      -0.746773       -20.3207
   8   2.0000      -0.693947       -18.8832
   9   2.0000      -0.632839       -17.2204
  10   2.0000      -0.614046       -16.7090
  11   2.0000      -0.548746       -14.9321
  12   2.0000      -0.530333       -14.4311
  13   2.0000      -0.412583       -11.2270
  14   2.0000      -0.383056       -10.4235
  15   0.0000       0.139042         3.7835
  16   0.0000       0.298395         8.1197
  17   0.0000       0.523137        14.2353
  18   0.0000       0.583982        15.8910
  19   0.0000       0.619666        16.8620

MULLIKEN ATOMIC CHARGES
-----------------------
   0 C :    0.198551
   1 O :   -0.358507
   2 C :   -0.163489
   3 C :   -0.235225
   4 H :    0.114722
   5 H :    0.154032
   6 H :    0.152402
   7 H :    0.137515
Sum of atomic charges:   -0.0000000

LOEWDIN ATOMIC CHARGES
----------------------
   0 C :    0.159750
   1 O :   -0.245241
   2 C :   -0.128858
   3 C :   -0.131815
   4 H :    0.057242
   5 H :    0.107275
   6 H :    0.098371
   7 H :    0.083277

  Mayer bond orders larger than 0.100000
B(  0-C ,  1-O ) :   1.9286 B(  0-C ,  2-C ) :   1.0153 B(  0-C ,  4-H ) :   0.9015
B(  2-C ,  3-C ) :   1.9530 B(  2-C ,  5-H ) :   0.9514 B(  3-C ,  6-H ) :   0.9633
B(  3-C ,  7-H ) :   0.9679

-----------------------------------------------------------------------------
         ABSORPTION SPECTRUM VIA TRANSITION ELECTRIC DIPOLE MOMENTS
-----------------------------------------------------------------------------
State   Energy    Wavelength  fosc         T2        TX        TY        TZ
        (cm-1)      (nm)                 (au**2)    (au)      (au)      (au)
-----------------------------------------------------------------------------
   1   34764.7    287.6   0.000734428   0.00695  -0.08220  -0.00307  -0.01376

Dispersion correction           -0.025284615
FINAL SINGLE POINT ENERGY      -189.300522760820

DIPOLE MOMENT
-------------
                                X             Y             Z
Electronic contribution:     -2.25834      -1.79226      -0.45444
Nuclear contribution   :      2.67549       2.72621       0.66801
                        -----------------------------------------
Total Dipole Moment    :      0.41715       0.93395       0.21357
                        -----------------------------------------
Magnitude (a.u.)       :      1.04494
Magnitude (Debye)      :      2.65602

Rotational constants in cm-1:     0.804619     0.198379     0.162184
Rotational constants in MHz : 24121.872123  5947.263166  4862.143366

                             ****ORCA TERMINATED NORMALLY****
TOTAL RUN TIME: 0 days 0 hours 0 minutes 12 seconds 465 msec
