                         Program Version 5.0.3 -  RELEASE  -
|  1> ! HF-3c
|  2> !TightSCF
|  3> %scf
|  4>  ConvForced true
|  5>  convergence tight
|  6>  MaxIter 500
|  7> end
|  8>
|  9> %tddft
| 10>  nroots 1
| 11> end
| 12>
| 13> # 	20743
| 14> * xyz 0 1
| 15> 		C   -0.621710  -0.454601  -0.024572
| 16> 		O   -0.563753  -1.624366   0.005439
| 17> 		C    0.654719   0.457369   0.040362
| 18> 		C    1.847713  -0.140767  -0.006733
| 19> 		H   -1.583340  -0.083809  -0.028472
| 20> 		H    0.511230   1.474363  -0.076269
| 21> 		H    1.772493  -1.172594   0.017317
| 22> 		H    2.787810   0.414941  -0.115924
| 23> *
| 24>
| 25>                          ****END OF INPUT****

CARTESIAN COORDINATES (ANGSTROEM)
---------------------------------
  C     -0.621710   -0.454601   -0.024572
  O     -0.563753   -1.624366    0.005439
  C      0.654719    0.457369    0.040362
  C      1.847713   -0.140767   -0.006733
  H     -1.583340   -0.083809   -0.028472
  H      0.511230    1.474363   -0.076269
  H      1.772493   -1.172594    0.017317
  H      2.787810    0.414941   -0.115924

 Total Charge           Charge          ....    0
 Multiplicity           Mult            ....    1
 Number of Electrons    NEL             ....   30
 Basis Dimension        Dim             ....   24

ORBITAL ENERGIES
----------------

  NO   OCC          E(Eh)            E(eV)
   0   2.0000     -20.380052      -554.5694
   1   2.0000     -11.307658      -307.6970
   2   2.0000     -11.188728      -304.4608
   3   2.0000     -11.186995      -304.4136
   4   2.0000      -1.438898       -39.1544
   5   2.0000      -1.075392       -29.2629
   6   2.0000      -0.881658       -23.9911
   7   2.0000      -0.772839       -21.0300
   8   2.0000      -0.720090       -19.5946
   9   2.0000      -0.618056       -16.8182
  10   2.0000      -0.608460       -16.5570
  11   2.0000      -0.558134       -15.1876
  12   2.0000      -0.547798       -14.9063
  13   2.0000      -0.415617       -11.3095
  14   2.0000      -0.400540       -10.8992
  15   0.0000       0.145167         3.9502
  16   0.0000       0.295040         8.0285
  17   0.0000       0.504056        13.7161
  18   0.0000       0.639424        17.3996
  19   0.0000       0.705794        19.2056

MULLIKEN ATOMIC CHARGES
-----------------------
   0 C :    0.166208
   1 O :   -0.357734
   2 C :   -0.167408
   3 C :   -0.238257
   4 H :    0.142180
   5 H :    0.139240
   6 H :    0.161870
   7 H :    0.153900
Sum of atomic charges:    0.0000000

LOEWDIN ATOMIC CHARGES
----------------------
   0 C :    0.143351
   1 O :   -0.249043
   2 C :   -0.122005
   3 C :   -0.132662
   4 H :    0.070479
   5 H :    0.083651
   6 H :    0.102845
   7 H :    0.103383

  Mayer bond orders larger than 0.100000
B(  0-C ,  1-O ) :   1.9296 B(  0-C ,  2-C ) :   0.9776 B(  0-C ,  4-H ) :   0.9330
B(  2-C ,  3-C ) :   1.9720 B(  2-C ,  5-H ) :   0.9649 B(  3-C ,  6-H ) :   0.9568
B(  3-C ,  7-H ) :   0.9627

-----------------------------------------------------------------------------
         ABSORPTION SPECTRUM VIA TRANSITION ELECTRIC DIPOLE MOMENTS
-----------------------------------------------------------------------------
State   Energy    Wavelength  fosc         T2        TX        TY        TZ
        (cm-1)      (nm)                 (au**2)    (au)      (au)      (au)
-----------------------------------------------------------------------------
   1   35275.3    283.5   0.000183751   0.00171   0.03983   0.00919  -0.00662

Dispersion correction           -0.025941851
FINAL SINGLE POINT ENERGY      -189.316860502954

DIPOLE MOMENT
-------------
                                X             Y             Z
Electronic contribution:     -1.89433      -1.54463       0.11875
Nuclear contribution   :      2.11603       2.38467      -0.19008
                        -----------------------------------------
Total Dipole Moment    :      0.22170       0.84004      -0.07133
                        -----------------------------------------
Magnitude (a.u.)       :      0.87173
Magnitude (Debye)      :      2.21575

Rotational constants in cm-1:     0.780082     0.207741     0.164207
Rotational constants in MHz : 23386.277184  6227.928586  4922.811644

                             ****ORCA TERMINATED NORMALLY****
TOTAL RUN TIME: 0 days 0 hours 0 minutes 11 seconds 811 msec
