                         Program Version 5.0.3 -  RELEASE  -
|  1> ! HF-3c
|  2> !TightSCF
|  3> %scf
|  4>  ConvForced true
|  5>  convergence tight
|  6>  MaxIter 500
|  7> end
|  8>
|  9> %tddft
| 10>  nroots 1
| 11> end
| 12>
| 13> # 	12713
| 14> * xyz 0 1
| 15> 		C   -1.252696  -0.358241   0.102417
| 16> 		O   -1.727931  -0.973717   0.946620
| 17> 		C    0.055685   0.510570   0.321249
| 18> 		C    1.230593  -0.018487  -0.251411
| 19> 		H   -1.632014  -0.206875  -1.043295
| 20> 		H    0.056254   1.536515   0.890453
| 21> 		H    1.192696  -1.004469  -0.869630
| 22> 		H    2.024017   0.543181  -0.117045
| 23> *
| 24>
| 25>                          ****END OF INPUT****

CARTESIAN COORDINATES (ANGSTROEM)
---------------------------------
  C     -1.252696   -0.358241    0.102417
  O     -1.727931   -0.973717    0.946620
  C      0.055685    0.510570    0.321249
  C      1.230593   -0.018487   -0.251411
  H     -1.632014   -0.206875   -1.043295
  H      0.056254    1.536515    0.890453
  H      1.192696   -1.004469   -0.869630
  H      2.024017    0.543181   -0.117045

 Total Charge           Charge          ....    0
 Multiplicity           Mult            ....    1
 Number of Electrons    NEL             ....   30
 Basis Dimension        Dim             ....   24

ORBITAL ENERGIES
----------------

  NO   OCC          E(Eh)            E(eV)
   0   2.0000     -20.403552      -555.2089
   1   2.0000     -11.317497      -307.9648
   2   2.0000     -11.171393      -303.9890
   3   2.0000     -11.160669      -303.6972
   4   2.0000      -1.458625       -39.6912
   5   2.0000      -1.037765       -28.2390
   6   2.0000      -0.853749       -23.2317
   7   2.0000      -0.743095       -20.2206
   8   2.0000      -0.667382       -18.1604
   9   2.0000      -0.642124       -17.4731
  10   2.0000      -0.597393       -16.2559
  11   2.0000      -0.557836       -15.1795
  12   2.0000      -0.523846       -14.2546
  13   2.0000      -0.392613       -10.6835
  14   2.0000      -0.370042       -10.0694
  15   0.0000       0.188615         5.1325
  16   0.0000       0.226671         6.1680
  17   0.0000       0.477295        12.9879
  18   0.0000       0.544131        14.8066
  19   0.0000       0.574634        15.6366

MULLIKEN ATOMIC CHARGES
-----------------------
   0 C :    0.211072
   1 O :   -0.360612
   2 C :   -0.137724
   3 C :   -0.272962
   4 H :    0.136771
   5 H :    0.149902
   6 H :    0.141607
   7 H :    0.131945
Sum of atomic charges:    0.0000000

LOEWDIN ATOMIC CHARGES
----------------------
   0 C :    0.161813
   1 O :   -0.237208
   2 C :   -0.104853
   3 C :   -0.181447
   4 H :    0.079889
   5 H :    0.105150
   6 H :    0.099635
   7 H :    0.077020

  Mayer bond orders larger than 0.100000
B(  0-C ,  1-O ) :   1.9740 B(  0-C ,  2-C ) :   0.9447 B(  0-C ,  4-H ) :   0.8922
B(  2-C ,  3-C ) :   1.9931 B(  2-C ,  5-H ) :   0.9527 B(  3-C ,  6-H ) :   0.9658
B(  3-C ,  7-H ) :   0.9717

-----------------------------------------------------------------------------
         ABSORPTION SPECTRUM VIA TRANSITION ELECTRIC DIPOLE MOMENTS
-----------------------------------------------------------------------------
State   Energy    Wavelength  fosc         T2        TX        TY        TZ
        (cm-1)      (nm)                 (au**2)    (au)      (au)      (au)
-----------------------------------------------------------------------------
   1   38799.5    257.7   0.000137520   0.00117  -0.02787  -0.01520  -0.01260

Dispersion correction           -0.024377293
FINAL SINGLE POINT ENERGY      -189.260904706081

DIPOLE MOMENT
-------------
                                X             Y             Z
Electronic contribution:     -2.88135      -1.15258       1.44105
Nuclear contribution   :      3.23344       1.68029      -2.13465
                        -----------------------------------------
Total Dipole Moment    :      0.35210       0.52771      -0.69361
                        -----------------------------------------
Magnitude (a.u.)       :      0.93997
Magnitude (Debye)      :      2.38921

Rotational constants in cm-1:     0.940687     0.160096     0.153638
Rotational constants in MHz : 28201.083931  4799.544227  4605.940609

                             ****ORCA TERMINATED NORMALLY****
TOTAL RUN TIME: 0 days 0 hours 0 minutes 11 seconds 120 msec
