                         Program Version 5.0.3 -  RELEASE  -
|  1> ! HF-3c
|  2> !TightSCF
|  3> %scf
|  4>  ConvForced true
|  5>  convergence tight
|  6>  MaxIter 500
|  7> end
|  8>
|  9> %tddft
| 10>  nroots 1
| 11> end
| 12>
| 13> # 	25974
| 14> * xyz 0 1
| 15> 		C   -0.594269  -0.428695  -0.014237
| 16> 		O   -0.583603  -1.635329   0.021575
| 17> 		C    0.644393   0.380619   0.044718
| 18> 		C    1.863455  -0.097923  -0.036135
| 19> 		H   -1.709815   0.301212  -0.344087
| 20> 		H    0.212771   1.404934   0.105318
| 21> 		H    2.044912  -1.178734  -0.063536
| 22> 		H    2.819055   0.463910   0.040299
| 23> *
| 24>
| 25>                          ****END OF INPUT****

CARTESIAN COORDINATES (ANGSTROEM)
---------------------------------
  C     -0.594269   -0.428695   -0.014237
  O     -0.583603   -1.635329    0.021575
  C      0.644393    0.380619    0.044718
  C      1.863455   -0.097923   -0.036135
  H     -1.709815    0.301212   -0.344087
  H      0.212771    1.404934    0.105318
  H      2.044912   -1.178734   -0.063536
  H      2.819055    0.463910    0.040299

 Total Charge           Charge          ....    0
 Multiplicity           Mult            ....    1
 Number of Electrons    NEL             ....   30
 Basis Dimension        Dim             ....   24

ORBITAL ENERGIES
----------------

  NO   OCC          E(Eh)            E(eV)
   0   2.0000     -20.358456      -553.9818
   1   2.0000     -11.284079      -307.0554
   2   2.0000     -11.194469      -304.6170
   3   2.0000     -11.188479      -304.4540
   4   2.0000      -1.396647       -38.0047
   5   2.0000      -1.075208       -29.2579
   6   2.0000      -0.883085       -24.0300
   7   2.0000      -0.711534       -19.3618
   8   2.0000      -0.675627       -18.3847
   9   2.0000      -0.624891       -17.0041
  10   2.0000      -0.580716       -15.8021
  11   2.0000      -0.535027       -14.5588
  12   2.0000      -0.506882       -13.7930
  13   2.0000      -0.399945       -10.8830
  14   2.0000      -0.384834       -10.4719
  15   0.0000       0.139302         3.7906
  16   0.0000       0.312156         8.4942
  17   0.0000       0.397288        10.8108
  18   0.0000       0.543027        14.7765
  19   0.0000       0.641188        17.4476

MULLIKEN ATOMIC CHARGES
-----------------------
   0 C :    0.194447
   1 O :   -0.364881
   2 C :   -0.178486
   3 C :   -0.222254
   4 H :    0.121225
   5 H :    0.142239
   6 H :    0.158092
   7 H :    0.149618
Sum of atomic charges:   -0.0000000

LOEWDIN ATOMIC CHARGES
----------------------
   0 C :    0.147291
   1 O :   -0.265662
   2 C :   -0.134347
   3 C :   -0.124632
   4 H :    0.079805
   5 H :    0.092974
   6 H :    0.104629
   7 H :    0.099941

  Mayer bond orders larger than 0.100000
B(  0-C ,  1-O ) :   1.9171 B(  0-C ,  2-C ) :   1.0129 B(  0-C ,  4-H ) :   0.8896
B(  2-C ,  3-C ) :   1.9600 B(  2-C ,  5-H ) :   0.9558 B(  3-C ,  6-H ) :   0.9553
B(  3-C ,  7-H ) :   0.9605

-----------------------------------------------------------------------------
         ABSORPTION SPECTRUM VIA TRANSITION ELECTRIC DIPOLE MOMENTS
-----------------------------------------------------------------------------
State   Energy    Wavelength  fosc         T2        TX        TY        TZ
        (cm-1)      (nm)                 (au**2)    (au)      (au)      (au)
-----------------------------------------------------------------------------
   1   32324.5    309.4   0.000108592   0.00111   0.02467  -0.01204   0.01878

Dispersion correction           -0.025590487
FINAL SINGLE POINT ENERGY      -189.298997223145

DIPOLE MOMENT
-------------
                                X             Y             Z
Electronic contribution:     -1.75382      -1.75648       0.18064
Nuclear contribution   :      2.00500       2.71473      -0.24637
                        -----------------------------------------
Total Dipole Moment    :      0.25117       0.95826      -0.06573
                        -----------------------------------------
Magnitude (a.u.)       :      0.99281
Magnitude (Debye)      :      2.52352

Rotational constants in cm-1:     0.747762     0.205895     0.162017
Rotational constants in MHz : 22417.331149  6172.575260  4857.155357

                             ****ORCA TERMINATED NORMALLY****
TOTAL RUN TIME: 0 days 0 hours 0 minutes 11 seconds 105 msec
