                         Program Version 5.0.3 -  RELEASE  -
|  1> ! B3LYP cc-pVDZ
|  2> !TightSCF
|  3> %scf
|  4>  ConvForced true
|  5>  convergence tight
|  6>  MaxIter 500
|  7> end
|  8>
|  9> %tddft
| 10>  nroots 1
| 11> end
| 12>
| 13> # 	12949
| 14> * xyz 0 1
| 15> 		C   -1.202210  -0.237385   0.021529
| 16> 		O   -1.671411  -0.999334   0.892409
| 17> 		C   -0.004362   0.514406   0.230242
| 18> 		C    1.127306  -0.010613  -0.143566
| 19> 		H   -1.616155  -0.308956  -0.998614
| 20> 		H   -0.139333   1.444325   0.842612
| 21> 		H    1.329651  -0.915948  -0.762073
| 22> 		H    2.149904   0.563572  -0.079640
| 23> *
| 24>
| 25>                          ****END OF INPUT****

CARTESIAN COORDINATES (ANGSTROEM)
---------------------------------
  C     -1.202210   -0.237385    0.021529
  O     -1.671411   -0.999334    0.892409
  C     -0.004362    0.514406    0.230242
  C      1.127306   -0.010613   -0.143566
  H     -1.616155   -0.308956   -0.998614
  H     -0.139333    1.444325    0.842612
  H      1.329651   -0.915948   -0.762073
  H      2.149904    0.563572   -0.079640

 Total Charge           Charge          ....    0
 Multiplicity           Mult            ....    1
 Number of Electrons    NEL             ....   30
 Basis Dimension        Dim             ....   76

ORBITAL ENERGIES
----------------

  NO   OCC          E(Eh)            E(eV)
   0   2.0000     -19.141120      -520.8564
   1   2.0000     -10.277798      -279.6731
   2   2.0000     -10.214042      -277.9382
   3   2.0000     -10.208675      -277.7922
   4   2.0000      -1.029615       -28.0172
   5   2.0000      -0.809428       -22.0257
   6   2.0000      -0.652514       -17.7558
   7   2.0000      -0.562963       -15.3190
   8   2.0000      -0.485460       -13.2100
   9   2.0000      -0.473463       -12.8836
  10   2.0000      -0.436580       -11.8799
  11   2.0000      -0.369442       -10.0530
  12   2.0000      -0.362942        -9.8762
  13   2.0000      -0.293902        -7.9975
  14   2.0000      -0.253636        -6.9018
  15   0.0000      -0.047733        -1.2989
  16   0.0000      -0.003766        -0.1025
  17   0.0000       0.073592         2.0026
  18   0.0000       0.081409         2.2153
  19   0.0000       0.103739         2.8229

MULLIKEN ATOMIC CHARGES
-----------------------
   0 C :    0.164018
   1 O :   -0.215393
   2 C :   -0.036226
   3 C :   -0.019037
   4 H :   -0.003226
   5 H :    0.034923
   6 H :    0.034004
   7 H :    0.040936
Sum of atomic charges:   -0.0000000

LOEWDIN ATOMIC CHARGES
----------------------
   0 C :   -0.001197
   1 O :   -0.027035
   2 C :   -0.068579
   3 C :   -0.033537
   4 H :   -0.000159
   5 H :    0.051572
   6 H :    0.034509
   7 H :    0.044425

  Mayer bond orders larger than 0.100000
B(  0-C ,  1-O ) :   2.1847 B(  0-C ,  2-C ) :   1.0108 B(  0-C ,  4-H ) :   0.9284
B(  2-C ,  3-C ) :   2.0203 B(  2-C ,  5-H ) :   0.9255 B(  3-C ,  6-H ) :   0.9510
B(  3-C ,  7-H ) :   0.9435

-----------------------------------------------------------------------------
         ABSORPTION SPECTRUM VIA TRANSITION ELECTRIC DIPOLE MOMENTS
-----------------------------------------------------------------------------
State   Energy    Wavelength  fosc         T2        TX        TY        TZ
        (cm-1)      (nm)                 (au**2)    (au)      (au)      (au)
-----------------------------------------------------------------------------
   1   30199.7    331.1   0.000154264   0.00168  -0.01551   0.00429   0.03772

FINAL SINGLE POINT ENERGY      -191.643436617922

DIPOLE MOMENT
-------------
                                X             Y             Z
Electronic contribution:     -2.78134      -0.91312       1.29108
Nuclear contribution   :      3.33694       1.52616      -1.90204
                        -----------------------------------------
Total Dipole Moment    :      0.55560       0.61303      -0.61097
                        -----------------------------------------
Magnitude (a.u.)       :      1.02849
Magnitude (Debye)      :      2.61421

Rotational constants in cm-1:     0.952137     0.175260     0.167778
Rotational constants in MHz : 28544.337451  5254.148046  5029.869439

                             ****ORCA TERMINATED NORMALLY****
TOTAL RUN TIME: 0 days 0 hours 3 minutes 22 seconds 311 msec
