                         Program Version 5.0.3 -  RELEASE  -
|  1> ! B3LYP cc-pVDZ
|  2> !TightSCF
|  3> %scf
|  4>  ConvForced true
|  5>  convergence tight
|  6>  MaxIter 500
|  7> end
|  8>
|  9> %tddft
| 10>  nroots 1
| 11> end
| 12>
| 13> # 	8857
| 14> * xyz 0 1
| 15> 		C   -1.196758  -0.390631   0.163053
| 16> 		O   -2.189308  -0.479442   0.801592
| 17> 		C    0.055795   0.390575   0.339596
| 18> 		C    1.154661   0.147062  -0.254455
| 19> 		H   -1.169674  -0.973349  -0.934428
| 20> 		H    0.030572   1.293151   1.083840
| 21> 		H    1.286773  -0.695502  -1.060322
| 22> 		H    2.035701   0.748366  -0.141133
| 23> *
| 24>
| 25>                          ****END OF INPUT****

CARTESIAN COORDINATES (ANGSTROEM)
---------------------------------
  C     -1.196758   -0.390631    0.163053
  O     -2.189308   -0.479442    0.801592
  C      0.055795    0.390575    0.339596
  C      1.154661    0.147062   -0.254455
  H     -1.169674   -0.973349   -0.934428
  H      0.030572    1.293151    1.083840
  H      1.286773   -0.695502   -1.060322
  H      2.035701    0.748366   -0.141133

 Total Charge           Charge          ....    0
 Multiplicity           Mult            ....    1
 Number of Electrons    NEL             ....   30
 Basis Dimension        Dim             ....   76

ORBITAL ENERGIES
----------------

  NO   OCC          E(Eh)            E(eV)
   0   2.0000     -19.149356      -521.0805
   1   2.0000     -10.288484      -279.9639
   2   2.0000     -10.217920      -278.0437
   3   2.0000     -10.213242      -277.9164
   4   2.0000      -1.067716       -29.0540
   5   2.0000      -0.815959       -22.2034
   6   2.0000      -0.645814       -17.5735
   7   2.0000      -0.546834       -14.8801
   8   2.0000      -0.484829       -13.1929
   9   2.0000      -0.470534       -12.8039
  10   2.0000      -0.433200       -11.7880
  11   2.0000      -0.407325       -11.0839
  12   2.0000      -0.372562       -10.1379
  13   2.0000      -0.309785        -8.4297
  14   2.0000      -0.254834        -6.9344
  15   0.0000      -0.059537        -1.6201
  16   0.0000       0.044712         1.2167
  17   0.0000       0.068607         1.8669
  18   0.0000       0.074511         2.0275
  19   0.0000       0.105751         2.8776

MULLIKEN ATOMIC CHARGES
-----------------------
   0 C :    0.144668
   1 O :   -0.150844
   2 C :   -0.102572
   3 C :    0.052774
   4 H :   -0.039055
   5 H :    0.022993
   6 H :    0.040667
   7 H :    0.031370
Sum of atomic charges:   -0.0000000

LOEWDIN ATOMIC CHARGES
----------------------
   0 C :   -0.056292
   1 O :    0.034809
   2 C :   -0.085085
   3 C :   -0.002966
   4 H :   -0.017032
   5 H :    0.049316
   6 H :    0.044732
   7 H :    0.032518

  Mayer bond orders larger than 0.100000
B(  0-C ,  1-O ) :   2.2346 B(  0-C ,  2-C ) :   1.0190 B(  0-C ,  4-H ) :   0.8794
B(  2-C ,  3-C ) :   1.9987 B(  2-C ,  5-H ) :   0.9251 B(  3-C ,  6-H ) :   0.9304
B(  3-C ,  7-H ) :   0.9260

-----------------------------------------------------------------------------
         ABSORPTION SPECTRUM VIA TRANSITION ELECTRIC DIPOLE MOMENTS
-----------------------------------------------------------------------------
State   Energy    Wavelength  fosc         T2        TX        TY        TZ
        (cm-1)      (nm)                 (au**2)    (au)      (au)      (au)
-----------------------------------------------------------------------------
   1   30142.3    331.8   0.000186095   0.00203  -0.00245   0.03047  -0.03314

FINAL SINGLE POINT ENERGY      -191.651951475193

DIPOLE MOMENT
-------------
                                X             Y             Z
Electronic contribution:     -3.18755      -0.43206       1.60839
Nuclear contribution   :      4.21085       0.71410      -1.96603
                        -----------------------------------------
Total Dipole Moment    :      1.02330       0.28204      -0.35764
                        -----------------------------------------
Magnitude (a.u.)       :      1.12009
Magnitude (Debye)      :      2.84704

Rotational constants in cm-1:     1.599539     0.151949     0.139904
Rotational constants in MHz : 47952.966935  4555.308232  4194.224415

                             ****ORCA TERMINATED NORMALLY****
TOTAL RUN TIME: 0 days 0 hours 3 minutes 21 seconds 408 msec
