                         Program Version 5.0.3 -  RELEASE  -
|  1> ! B3LYP cc-pVDZ
|  2> !TightSCF
|  3> %scf
|  4>  ConvForced true
|  5>  convergence tight
|  6>  MaxIter 500
|  7> end
|  8>
|  9> %tddft
| 10>  nroots 1
| 11> end
| 12>
| 13> # 	7450
| 14> * xyz 0 1
| 15> 		C   -1.202610  -0.278683   0.038990
| 16> 		O   -1.571199  -1.029266   0.937163
| 17> 		C    0.040344   0.558704   0.207957
| 18> 		C    1.233258   0.038311  -0.183120
| 19> 		H   -1.735419  -0.216510  -0.962727
| 20> 		H    0.009532   1.409611   0.767451
| 21> 		H    1.104835  -1.069996  -0.617595
| 22> 		H    2.074216   0.588435  -0.236944
| 23> *
| 24>
| 25>                          ****END OF INPUT****

CARTESIAN COORDINATES (ANGSTROEM)
---------------------------------
  C     -1.202610   -0.278683    0.038990
  O     -1.571199   -1.029266    0.937163
  C      0.040344    0.558704    0.207957
  C      1.233258    0.038311   -0.183120
  H     -1.735419   -0.216510   -0.962727
  H      0.009532    1.409611    0.767451
  H      1.104835   -1.069996   -0.617595
  H      2.074216    0.588435   -0.236944

 Total Charge           Charge          ....    0
 Multiplicity           Mult            ....    1
 Number of Electrons    NEL             ....   30
 Basis Dimension        Dim             ....   76

ORBITAL ENERGIES
----------------

  NO   OCC          E(Eh)            E(eV)
   0   2.0000     -19.148638      -521.0609
   1   2.0000     -10.287956      -279.9495
   2   2.0000     -10.207255      -277.7535
   3   2.0000     -10.202208      -277.6162
   4   2.0000      -1.044996       -28.4358
   5   2.0000      -0.791770       -21.5452
   6   2.0000      -0.646363       -17.5884
   7   2.0000      -0.565257       -15.3814
   8   2.0000      -0.499744       -13.5987
   9   2.0000      -0.458319       -12.4715
  10   2.0000      -0.434446       -11.8219
  11   2.0000      -0.388469       -10.5708
  12   2.0000      -0.373269       -10.1572
  13   2.0000      -0.284771        -7.7490
  14   2.0000      -0.254691        -6.9305
  15   0.0000      -0.043468        -1.1828
  16   0.0000      -0.012454        -0.3389
  17   0.0000       0.079949         2.1755
  18   0.0000       0.090666         2.4672
  19   0.0000       0.099837         2.7167

MULLIKEN ATOMIC CHARGES
-----------------------
   0 C :    0.154185
   1 O :   -0.189144
   2 C :   -0.042703
   3 C :    0.034499
   4 H :    0.010223
   5 H :   -0.009143
   6 H :    0.038953
   7 H :    0.003128
Sum of atomic charges:   -0.0000000

LOEWDIN ATOMIC CHARGES
----------------------
   0 C :   -0.004461
   1 O :   -0.003376
   2 C :   -0.041254
   3 C :   -0.015950
   4 H :    0.002865
   5 H :    0.012241
   6 H :    0.047332
   7 H :    0.002603

  Mayer bond orders larger than 0.100000
B(  0-C ,  1-O ) :   2.2098 B(  0-C ,  2-C ) :   0.9739 B(  0-C ,  4-H ) :   0.9106
B(  2-C ,  3-C ) :   2.0224 B(  2-C ,  5-H ) :   0.9506 B(  3-C ,  6-H ) :   0.9435
B(  3-C ,  7-H ) :   0.9484

-----------------------------------------------------------------------------
         ABSORPTION SPECTRUM VIA TRANSITION ELECTRIC DIPOLE MOMENTS
-----------------------------------------------------------------------------
State   Energy    Wavelength  fosc         T2        TX        TY        TZ
        (cm-1)      (nm)                 (au**2)    (au)      (au)      (au)
-----------------------------------------------------------------------------
   1   31522.3    317.2   0.000735819   0.00768  -0.07988   0.00938   0.03488

FINAL SINGLE POINT ENERGY      -191.630698502208

DIPOLE MOMENT
-------------
                                X             Y             Z
Electronic contribution:     -2.46467      -0.84065       1.39740
Nuclear contribution   :      2.87360       1.45379      -1.95903
                        -----------------------------------------
Total Dipole Moment    :      0.40893       0.61314      -0.56163
                        -----------------------------------------
Magnitude (a.u.)       :      0.92660
Magnitude (Debye)      :      2.35522

Rotational constants in cm-1:     0.913651     0.171163     0.162814
Rotational constants in MHz : 27390.558330  5131.334215  4881.028507

                             ****ORCA TERMINATED NORMALLY****
TOTAL RUN TIME: 0 days 0 hours 3 minutes 19 seconds 314 msec
