                         Program Version 5.0.3 -  RELEASE  -
|  1> ! HF-3c
|  2> !TightSCF
|  3> %scf
|  4>  ConvForced true
|  5>  convergence tight
|  6>  MaxIter 500
|  7> end
|  8>
|  9> %tddft
| 10>  nroots 1
| 11> end
| 12>
| 13> # 	10845
| 14> * xyz 0 1
| 15> 		C   -1.162258  -0.369443   0.022159
| 16> 		O   -1.308520  -1.551499   0.224448
| 17> 		C   -0.002500   0.459261   0.063442
| 18> 		C    1.242890  -0.005874  -0.081899
| 19> 		H   -2.164332   0.416291  -0.209623
| 20> 		H   -0.095125   1.540269   0.109157
| 21> 		H    1.497265  -1.178453  -0.137930
| 22> 		H    2.031473   0.668425  -0.041591
| 23> *
| 24>
| 25>                          ****END OF INPUT****

CARTESIAN COORDINATES (ANGSTROEM)
---------------------------------
  C     -1.162258   -0.369443    0.022159
  O     -1.308520   -1.551499    0.224448
  C     -0.002500    0.459261    0.063442
  C      1.242890   -0.005874   -0.081899
  H     -2.164332    0.416291   -0.209623
  H     -0.095125    1.540269    0.109157
  H      1.497265   -1.178453   -0.137930
  H      2.031473    0.668425   -0.041591

 Total Charge           Charge          ....    0
 Multiplicity           Mult            ....    1
 Number of Electrons    NEL             ....   30
 Basis Dimension        Dim             ....   24

ORBITAL ENERGIES
----------------

  NO   OCC          E(Eh)            E(eV)
   0   2.0000     -20.361797      -554.0727
   1   2.0000     -11.292995      -307.2980
   2   2.0000     -11.197287      -304.6937
   3   2.0000     -11.188928      -304.4662
   4   2.0000      -1.395788       -37.9813
   5   2.0000      -1.087416       -29.5901
   6   2.0000      -0.892180       -24.2775
   7   2.0000      -0.721208       -19.6251
   8   2.0000      -0.692806       -18.8522
   9   2.0000      -0.610665       -16.6170
  10   2.0000      -0.588988       -16.0272
  11   2.0000      -0.540544       -14.7089
  12   2.0000      -0.520939       -14.1755
  13   2.0000      -0.398551       -10.8451
  14   2.0000      -0.386983       -10.5303
  15   0.0000       0.127653         3.4736
  16   0.0000       0.318709         8.6725
  17   0.0000       0.468025        12.7356
  18   0.0000       0.538457        14.6522
  19   0.0000       0.622312        16.9340

MULLIKEN ATOMIC CHARGES
-----------------------
   0 C :    0.192438
   1 O :   -0.363504
   2 C :   -0.196711
   3 C :   -0.195963
   4 H :    0.112276
   5 H :    0.146734
   6 H :    0.163586
   7 H :    0.141143
Sum of atomic charges:   -0.0000000

LOEWDIN ATOMIC CHARGES
----------------------
   0 C :    0.157516
   1 O :   -0.267404
   2 C :   -0.154168
   3 C :   -0.099660
   4 H :    0.065114
   5 H :    0.094384
   6 H :    0.117495
   7 H :    0.086724

  Mayer bond orders larger than 0.100000
B(  0-C ,  1-O ) :   1.9034 B(  0-C ,  2-C ) :   1.0498 B(  0-C ,  4-H ) :   0.8971
B(  2-C ,  3-C ) :   1.9219 B(  2-C ,  5-H ) :   0.9557 B(  3-C ,  6-H ) :   0.9559
B(  3-C ,  7-H ) :   0.9670

-----------------------------------------------------------------------------
         ABSORPTION SPECTRUM VIA TRANSITION ELECTRIC DIPOLE MOMENTS
-----------------------------------------------------------------------------
State   Energy    Wavelength  fosc         T2        TX        TY        TZ
        (cm-1)      (nm)                 (au**2)    (au)      (au)      (au)
-----------------------------------------------------------------------------
   1   32235.9    310.2   0.000583692   0.00596   0.07558  -0.00874  -0.01313

Dispersion correction           -0.025437139
FINAL SINGLE POINT ENERGY      -189.308856201269

DIPOLE MOMENT
-------------
                                X             Y             Z
Electronic contribution:     -1.89805      -1.89569       0.29521
Nuclear contribution   :      2.42925       2.83648      -0.48469
                        -----------------------------------------
Total Dipole Moment    :      0.53120       0.94080      -0.18949
                        -----------------------------------------
Magnitude (a.u.)       :      1.09689
Magnitude (Debye)      :      2.78808

Rotational constants in cm-1:     0.804802     0.197217     0.159433
Rotational constants in MHz : 24127.361891  5912.431391  4779.694534

                             ****ORCA TERMINATED NORMALLY****
TOTAL RUN TIME: 0 days 0 hours 0 minutes 12 seconds 696 msec
