                         Program Version 5.0.3 -  RELEASE  -
|  1> ! B3LYP cc-pVDZ
|  2> !TightSCF
|  3> %scf
|  4>  ConvForced true
|  5>  convergence tight
|  6>  MaxIter 500
|  7> end
|  8>
|  9> %tddft
| 10>  nroots 1
| 11> end
| 12>
| 13> # 	8988
| 14> * xyz 0 1
| 15> 		C   -1.240606  -0.339835  -0.035455
| 16> 		O   -1.358995  -1.361642  -0.664967
| 17> 		C   -0.009744   0.483189  -0.254811
| 18> 		C    1.236193   0.037948   0.168725
| 19> 		H   -1.993788   0.030202   0.693008
| 20> 		H   -0.197654   1.490899  -0.456619
| 21> 		H    1.515516  -1.050950   0.452899
| 22> 		H    2.025952   0.649384   0.094538
| 23> *
| 24>
| 25>                          ****END OF INPUT****

CARTESIAN COORDINATES (ANGSTROEM)
---------------------------------
  C     -1.240606   -0.339835   -0.035455
  O     -1.358995   -1.361642   -0.664967
  C     -0.009744    0.483189   -0.254811
  C      1.236193    0.037948    0.168725
  H     -1.993788    0.030202    0.693008
  H     -0.197654    1.490899   -0.456619
  H      1.515516   -1.050950    0.452899
  H      2.025952    0.649384    0.094538

 Total Charge           Charge          ....    0
 Multiplicity           Mult            ....    1
 Number of Electrons    NEL             ....   30
 Basis Dimension        Dim             ....   76

ORBITAL ENERGIES
----------------

  NO   OCC          E(Eh)            E(eV)
   0   2.0000     -19.138858      -520.7948
   1   2.0000     -10.277907      -279.6761
   2   2.0000     -10.211497      -277.8690
   3   2.0000     -10.207614      -277.7633
   4   2.0000      -1.050392       -28.5826
   5   2.0000      -0.782940       -21.3049
   6   2.0000      -0.656101       -17.8534
   7   2.0000      -0.556566       -15.1449
   8   2.0000      -0.500312       -13.6142
   9   2.0000      -0.451281       -12.2800
  10   2.0000      -0.437988       -11.9182
  11   2.0000      -0.391022       -10.6403
  12   2.0000      -0.378039       -10.2870
  13   2.0000      -0.280889        -7.6434
  14   2.0000      -0.250398        -6.8137
  15   0.0000      -0.045462        -1.2371
  16   0.0000      -0.000951        -0.0259
  17   0.0000       0.081817         2.2264
  18   0.0000       0.087910         2.3922
  19   0.0000       0.107207         2.9173

MULLIKEN ATOMIC CHARGES
-----------------------
   0 C :    0.162230
   1 O :   -0.185093
   2 C :   -0.051830
   3 C :    0.029663
   4 H :   -0.005608
   5 H :   -0.007442
   6 H :    0.052025
   7 H :    0.006054
Sum of atomic charges:    0.0000000

LOEWDIN ATOMIC CHARGES
----------------------
   0 C :   -0.026784
   1 O :    0.007116
   2 C :   -0.043455
   3 C :    0.000542
   4 H :   -0.002609
   5 H :    0.017433
   6 H :    0.046377
   7 H :    0.001379

  Mayer bond orders larger than 0.100000
B(  0-C ,  1-O ) :   2.2075 B(  0-C ,  2-C ) :   1.0094 B(  0-C ,  4-H ) :   0.9133
B(  2-C ,  3-C ) :   1.9986 B(  2-C ,  5-H ) :   0.9344 B(  3-C ,  6-H ) :   0.9540
B(  3-C ,  7-H ) :   0.9511

-----------------------------------------------------------------------------
         ABSORPTION SPECTRUM VIA TRANSITION ELECTRIC DIPOLE MOMENTS
-----------------------------------------------------------------------------
State   Energy    Wavelength  fosc         T2        TX        TY        TZ
        (cm-1)      (nm)                 (au**2)    (au)      (au)      (au)
-----------------------------------------------------------------------------
   1   31722.3    315.2   0.000203110   0.00211   0.03798   0.01659   0.01976

FINAL SINGLE POINT ENERGY      -191.638196198585

DIPOLE MOMENT
-------------
                                X             Y             Z
Electronic contribution:     -2.29988      -1.48549      -1.02693
Nuclear contribution   :      2.62754       2.27196       1.48547
                        -----------------------------------------
Total Dipole Moment    :      0.32766       0.78647       0.45854
                        -----------------------------------------
Magnitude (a.u.)       :      0.96755
Magnitude (Debye)      :      2.45931

Rotational constants in cm-1:     0.812173     0.185769     0.162074
Rotational constants in MHz : 24348.322714  5569.211484  4858.854710

                             ****ORCA TERMINATED NORMALLY****
TOTAL RUN TIME: 0 days 0 hours 3 minutes 18 seconds 506 msec
