                         Program Version 5.0.3 -  RELEASE  -
|  1> ! HF-3c
|  2> !TightSCF
|  3> %scf
|  4>  ConvForced true
|  5>  convergence tight
|  6>  MaxIter 500
|  7> end
|  8>
|  9> %tddft
| 10>  nroots 1
| 11> end
| 12>
| 13> # 	27952
| 14> * xyz 0 1
| 15> 		C   -0.587448  -0.394813  -0.064881
| 16> 		O   -0.557233  -1.656375   0.036856
| 17> 		C    0.620225   0.409123   0.090835
| 18> 		C    1.810221  -0.122137  -0.026769
| 19> 		H   -1.395474   0.134101  -0.306126
| 20> 		H    0.617106   1.541092   0.026423
| 21> 		H    1.815022  -1.232753  -0.172796
| 22> 		H    2.820861   0.378552  -0.120205
| 23> *
| 24>
| 25>                          ****END OF INPUT****

CARTESIAN COORDINATES (ANGSTROEM)
---------------------------------
  C     -0.587448   -0.394813   -0.064881
  O     -0.557233   -1.656375    0.036856
  C      0.620225    0.409123    0.090835
  C      1.810221   -0.122137   -0.026769
  H     -1.395474    0.134101   -0.306126
  H      0.617106    1.541092    0.026423
  H      1.815022   -1.232753   -0.172796
  H      2.820861    0.378552   -0.120205

 Total Charge           Charge          ....    0
 Multiplicity           Mult            ....    1
 Number of Electrons    NEL             ....   30
 Basis Dimension        Dim             ....   24

ORBITAL ENERGIES
----------------

  NO   OCC          E(Eh)            E(eV)
   0   2.0000     -20.355944      -553.9134
   1   2.0000     -11.293651      -307.3159
   2   2.0000     -11.187821      -304.4361
   3   2.0000     -11.184434      -304.3439
   4   2.0000      -1.367333       -37.2070
   5   2.0000      -1.084907       -29.5218
   6   2.0000      -0.908686       -24.7266
   7   2.0000      -0.751436       -20.4476
   8   2.0000      -0.701769       -19.0961
   9   2.0000      -0.607570       -16.5328
  10   2.0000      -0.590096       -16.0573
  11   2.0000      -0.525308       -14.2944
  12   2.0000      -0.505096       -13.7444
  13   2.0000      -0.428320       -11.6552
  14   2.0000      -0.390536       -10.6270
  15   0.0000       0.123307         3.3553
  16   0.0000       0.301782         8.2119
  17   0.0000       0.541779        14.7426
  18   0.0000       0.591876        16.1058
  19   0.0000       0.635041        17.2804

MULLIKEN ATOMIC CHARGES
-----------------------
   0 C :    0.134262
   1 O :   -0.336871
   2 C :   -0.185699
   3 C :   -0.203534
   4 H :    0.144122
   5 H :    0.144169
   6 H :    0.154319
   7 H :    0.149231
Sum of atomic charges:   -0.0000000

LOEWDIN ATOMIC CHARGES
----------------------
   0 C :    0.142843
   1 O :   -0.260900
   2 C :   -0.145315
   3 C :   -0.108332
   4 H :    0.072129
   5 H :    0.096012
   6 H :    0.102547
   7 H :    0.101015

  Mayer bond orders larger than 0.100000
B(  0-C ,  1-O ) :   1.8929 B(  0-C ,  2-C ) :   1.0464 B(  0-C ,  4-H ) :   0.9395
B(  2-C ,  3-C ) :   1.9343 B(  2-C ,  5-H ) :   0.9542 B(  3-C ,  6-H ) :   0.9550
B(  3-C ,  7-H ) :   0.9629

-----------------------------------------------------------------------------
         ABSORPTION SPECTRUM VIA TRANSITION ELECTRIC DIPOLE MOMENTS
-----------------------------------------------------------------------------
State   Energy    Wavelength  fosc         T2        TX        TY        TZ
        (cm-1)      (nm)                 (au**2)    (au)      (au)      (au)
-----------------------------------------------------------------------------
   1   30094.0    332.3   0.000013593   0.00015   0.00891   0.00158  -0.00818

Dispersion correction           -0.026141934
FINAL SINGLE POINT ENERGY      -189.332074125416

DIPOLE MOMENT
-------------
                                X             Y             Z
Electronic contribution:     -2.08001      -1.61735       0.34406
Nuclear contribution   :      2.46104       2.55798      -0.53693
                        -----------------------------------------
Total Dipole Moment    :      0.38103       0.94062      -0.19287
                        -----------------------------------------
Magnitude (a.u.)       :      1.03303
Magnitude (Debye)      :      2.62576

Rotational constants in cm-1:     0.748443     0.214072     0.167518
Rotational constants in MHz : 22437.759944  6417.712318  5022.075946

                             ****ORCA TERMINATED NORMALLY****
TOTAL RUN TIME: 0 days 0 hours 0 minutes 14 seconds 841 msec
