                         Program Version 5.0.3 -  RELEASE  -
|  1> ! B3LYP cc-pVDZ
|  2> !TightSCF
|  3> %scf
|  4>  ConvForced true
|  5>  convergence tight
|  6>  MaxIter 500
|  7> end
|  8>
|  9> %tddft
| 10>  nroots 1
| 11> end
| 12>
| 13> # 	29856
| 14> * xyz 0 1
| 15> 		C   -0.569464  -0.411327  -0.050682
| 16> 		O   -0.605638  -1.650264   0.018549
| 17> 		C    0.644529   0.385942  -0.000859
| 18> 		C    1.858739  -0.118496   0.004237
| 19> 		H   -1.597558   0.161842   0.143431
| 20> 		H    0.450475   1.424255   0.171716
| 21> 		H    2.081178  -1.097166   0.019767
| 22> 		H    2.605341   0.690565  -0.063619
| 23> *
| 24>
| 25>                          ****END OF INPUT****

CARTESIAN COORDINATES (ANGSTROEM)
---------------------------------
  C     -0.569464   -0.411327   -0.050682
  O     -0.605638   -1.650264    0.018549
  C      0.644529    0.385942   -0.000859
  C      1.858739   -0.118496    0.004237
  H     -1.597558    0.161842    0.143431
  H      0.450475    1.424255    0.171716
  H      2.081178   -1.097166    0.019767
  H      2.605341    0.690565   -0.063619

 Total Charge           Charge          ....    0
 Multiplicity           Mult            ....    1
 Number of Electrons    NEL             ....   30
 Basis Dimension        Dim             ....   76

ORBITAL ENERGIES
----------------

  NO   OCC          E(Eh)            E(eV)
   0   2.0000     -19.137978      -520.7708
   1   2.0000     -10.278018      -279.6791
   2   2.0000     -10.208570      -277.7893
   3   2.0000     -10.202638      -277.6279
   4   2.0000      -1.028612       -27.9900
   5   2.0000      -0.808587       -22.0028
   6   2.0000      -0.665308       -18.1040
   7   2.0000      -0.545012       -14.8305
   8   2.0000      -0.506640       -13.7864
   9   2.0000      -0.456210       -12.4141
  10   2.0000      -0.414411       -11.2767
  11   2.0000      -0.395292       -10.7565
  12   2.0000      -0.386235       -10.5100
  13   2.0000      -0.291615        -7.9353
  14   2.0000      -0.252258        -6.8643
  15   0.0000      -0.077295        -2.1033
  16   0.0000       0.057413         1.5623
  17   0.0000       0.060038         1.6337
  18   0.0000       0.093892         2.5549
  19   0.0000       0.123336         3.3562

MULLIKEN ATOMIC CHARGES
-----------------------
   0 C :    0.145838
   1 O :   -0.211505
   2 C :   -0.098143
   3 C :    0.159359
   4 H :   -0.010862
   5 H :   -0.014460
   6 H :   -0.003548
   7 H :    0.033322
Sum of atomic charges:   -0.0000000

LOEWDIN ATOMIC CHARGES
----------------------
   0 C :   -0.027997
   1 O :   -0.033625
   2 C :   -0.077790
   3 C :    0.054029
   4 H :    0.002390
   5 H :    0.028218
   6 H :    0.009195
   7 H :    0.045578

  Mayer bond orders larger than 0.100000
B(  0-C ,  1-O ) :   2.1549 B(  0-C ,  2-C ) :   1.0823 B(  0-C ,  4-H ) :   0.9039
B(  2-C ,  3-C ) :   1.9663 B(  2-C ,  5-H ) :   0.9402 B(  3-C ,  6-H ) :   0.9383
B(  3-C ,  7-H ) :   0.9316

-----------------------------------------------------------------------------
         ABSORPTION SPECTRUM VIA TRANSITION ELECTRIC DIPOLE MOMENTS
-----------------------------------------------------------------------------
State   Energy    Wavelength  fosc         T2        TX        TY        TZ
        (cm-1)      (nm)                 (au**2)    (au)      (au)      (au)
-----------------------------------------------------------------------------
   1   25499.9    392.2   0.000253497   0.00327   0.00974   0.02416   0.05094

FINAL SINGLE POINT ENERGY      -191.673404891237

DIPOLE MOMENT
-------------
                                X             Y             Z
Electronic contribution:     -1.65863      -1.96811      -0.24774
Nuclear contribution   :      2.16220       2.89266       0.25466
                        -----------------------------------------
Total Dipole Moment    :      0.50357       0.92455       0.00692
                        -----------------------------------------
Magnitude (a.u.)       :      1.05281
Magnitude (Debye)      :      2.67604

Rotational constants in cm-1:     0.786045     0.205249     0.163040
Rotational constants in MHz : 23565.045934  6153.218521  4887.815879

                             ****ORCA TERMINATED NORMALLY****
TOTAL RUN TIME: 0 days 0 hours 3 minutes 12 seconds 941 msec
