                         Program Version 5.0.3 -  RELEASE  -
|  1> ! B3LYP cc-pVDZ
|  2> !TightSCF
|  3> %scf
|  4>  ConvForced true
|  5>  convergence tight
|  6>  MaxIter 500
|  7> end
|  8>
|  9> %tddft
| 10>  nroots 1
| 11> end
| 12>
| 13> # 	13161
| 14> * xyz 0 1
| 15> 		C   -1.205168  -0.313422  -0.049546
| 16> 		O   -1.286399  -1.581798   0.184108
| 17> 		C   -0.033439   0.503524   0.111932
| 18> 		C    1.183461  -0.033048  -0.017193
| 19> 		H   -2.273937   0.235196  -0.368984
| 20> 		H    0.008528   1.562663   0.279944
| 21> 		H    1.523945  -1.061769  -0.211568
| 22> 		H    2.073362   0.610428   0.003838
| 23> *
| 24>
| 25>                          ****END OF INPUT****

CARTESIAN COORDINATES (ANGSTROEM)
---------------------------------
  C     -1.205168   -0.313422   -0.049546
  O     -1.286399   -1.581798    0.184108
  C     -0.033439    0.503524    0.111932
  C      1.183461   -0.033048   -0.017193
  H     -2.273937    0.235196   -0.368984
  H      0.008528    1.562663    0.279944
  H      1.523945   -1.061769   -0.211568
  H      2.073362    0.610428    0.003838

 Total Charge           Charge          ....    0
 Multiplicity           Mult            ....    1
 Number of Electrons    NEL             ....   30
 Basis Dimension        Dim             ....   76

ORBITAL ENERGIES
----------------

  NO   OCC          E(Eh)            E(eV)
   0   2.0000     -19.138836      -520.7942
   1   2.0000     -10.289995      -280.0050
   2   2.0000     -10.221984      -278.1543
   3   2.0000     -10.213930      -277.9352
   4   2.0000      -1.002676       -27.2842
   5   2.0000      -0.808081       -21.9890
   6   2.0000      -0.661162       -17.9911
   7   2.0000      -0.551520       -15.0076
   8   2.0000      -0.501221       -13.6389
   9   2.0000      -0.446055       -12.1378
  10   2.0000      -0.410360       -11.1665
  11   2.0000      -0.382322       -10.4035
  12   2.0000      -0.372568       -10.1381
  13   2.0000      -0.290127        -7.8948
  14   2.0000      -0.253046        -6.8857
  15   0.0000      -0.079510        -2.1636
  16   0.0000       0.035033         0.9533
  17   0.0000       0.062455         1.6995
  18   0.0000       0.083415         2.2698
  19   0.0000       0.103152         2.8069

MULLIKEN ATOMIC CHARGES
-----------------------
   0 C :    0.148812
   1 O :   -0.245263
   2 C :   -0.024780
   3 C :    0.042862
   4 H :    0.008115
   5 H :   -0.001817
   6 H :    0.043216
   7 H :    0.028856
Sum of atomic charges:   -0.0000000

LOEWDIN ATOMIC CHARGES
----------------------
   0 C :    0.001951
   1 O :   -0.080048
   2 C :   -0.082184
   3 C :    0.042027
   4 H :    0.011283
   5 H :    0.037761
   6 H :    0.036169
   7 H :    0.033041

  Mayer bond orders larger than 0.100000
B(  0-C ,  1-O ) :   2.1047 B(  0-C ,  2-C ) :   1.0554 B(  0-C ,  4-H ) :   0.9059
B(  1-O ,  3-C ) :   0.1064 B(  2-C ,  3-C ) :   1.9403 B(  2-C ,  5-H ) :   0.9358
B(  3-C ,  6-H ) :   0.9575 B(  3-C ,  7-H ) :   0.9445

-----------------------------------------------------------------------------
         ABSORPTION SPECTRUM VIA TRANSITION ELECTRIC DIPOLE MOMENTS
-----------------------------------------------------------------------------
State   Energy    Wavelength  fosc         T2        TX        TY        TZ
        (cm-1)      (nm)                 (au**2)    (au)      (au)      (au)
-----------------------------------------------------------------------------
   1   25005.9    399.9   0.000172359   0.00227   0.04002  -0.01257  -0.02257

FINAL SINGLE POINT ENERGY      -191.671090073900

DIPOLE MOMENT
-------------
                                X             Y             Z
Electronic contribution:     -1.92968      -1.72002       0.33355
Nuclear contribution   :      2.56787       2.72254      -0.49001
                        -----------------------------------------
Total Dipole Moment    :      0.63819       1.00252      -0.15647
                        -----------------------------------------
Magnitude (a.u.)       :      1.19867
Magnitude (Debye)      :      3.04679

Rotational constants in cm-1:     0.741629     0.200746     0.160101
Rotational constants in MHz : 22233.486025  6018.211259  4799.696796

                             ****ORCA TERMINATED NORMALLY****
TOTAL RUN TIME: 0 days 0 hours 3 minutes 22 seconds 294 msec
