                         Program Version 5.0.3 -  RELEASE  -
|  1> ! HF-3c
|  2> !TightSCF
|  3> %scf
|  4>  ConvForced true
|  5>  convergence tight
|  6>  MaxIter 500
|  7> end
|  8>
|  9> %tddft
| 10>  nroots 1
| 11> end
| 12>
| 13> # 	5709
| 14> * xyz 0 1
| 15> 		C   -1.187298  -0.304840   0.012718
| 16> 		O   -1.482679  -1.280024  -0.668791
| 17> 		C    0.051261   0.533276  -0.173009
| 18> 		C    1.209901   0.054319   0.175162
| 19> 		H   -1.784919  -0.036043   0.873050
| 20> 		H   -0.149516   1.504151  -0.510774
| 21> 		H    1.295427  -1.072189   0.418973
| 22> 		H    1.980158   0.574920  -0.077477
| 23> *
| 24>
| 25>                          ****END OF INPUT****

CARTESIAN COORDINATES (ANGSTROEM)
---------------------------------
  C     -1.187298   -0.304840    0.012718
  O     -1.482679   -1.280024   -0.668791
  C      0.051261    0.533276   -0.173009
  C      1.209901    0.054319    0.175162
  H     -1.784919   -0.036043    0.873050
  H     -0.149516    1.504151   -0.510774
  H      1.295427   -1.072189    0.418973
  H      1.980158    0.574920   -0.077477

 Total Charge           Charge          ....    0
 Multiplicity           Mult            ....    1
 Number of Electrons    NEL             ....   30
 Basis Dimension        Dim             ....   24

ORBITAL ENERGIES
----------------

  NO   OCC          E(Eh)            E(eV)
   0   2.0000     -20.375323      -554.4407
   1   2.0000     -11.296859      -307.4032
   2   2.0000     -11.199560      -304.7555
   3   2.0000     -11.188481      -304.4540
   4   2.0000      -1.397120       -38.0176
   5   2.0000      -1.098848       -29.9012
   6   2.0000      -0.899280       -24.4707
   7   2.0000      -0.768478       -20.9113
   8   2.0000      -0.704652       -19.1746
   9   2.0000      -0.643226       -17.5031
  10   2.0000      -0.606597       -16.5063
  11   2.0000      -0.553908       -15.0726
  12   2.0000      -0.503835       -13.7101
  13   2.0000      -0.422084       -11.4855
  14   2.0000      -0.412399       -11.2219
  15   0.0000       0.173464         4.7202
  16   0.0000       0.226701         6.1689
  17   0.0000       0.529132        14.3984
  18   0.0000       0.628435        17.1006
  19   0.0000       0.720385        19.6027

MULLIKEN ATOMIC CHARGES
-----------------------
   0 C :    0.166006
   1 O :   -0.338495
   2 C :   -0.159569
   3 C :   -0.261197
   4 H :    0.139684
   5 H :    0.151109
   6 H :    0.158869
   7 H :    0.143593
Sum of atomic charges:   -0.0000000

LOEWDIN ATOMIC CHARGES
----------------------
   0 C :    0.152552
   1 O :   -0.247333
   2 C :   -0.106817
   3 C :   -0.163629
   4 H :    0.074336
   5 H :    0.094757
   6 H :    0.112114
   7 H :    0.084019

  Mayer bond orders larger than 0.100000
B(  0-C ,  1-O ) :   1.9507 B(  0-C ,  2-C ) :   0.9831 B(  0-C ,  4-H ) :   0.9242
B(  2-C ,  3-C ) :   1.9983 B(  2-C ,  5-H ) :   0.9525 B(  3-C ,  6-H ) :   0.9570
B(  3-C ,  7-H ) :   0.9655

-----------------------------------------------------------------------------
         ABSORPTION SPECTRUM VIA TRANSITION ELECTRIC DIPOLE MOMENTS
-----------------------------------------------------------------------------
State   Energy    Wavelength  fosc         T2        TX        TY        TZ
        (cm-1)      (nm)                 (au**2)    (au)      (au)      (au)
-----------------------------------------------------------------------------
   1   33583.3    297.8   0.000002903   0.00003   0.00040  -0.00013  -0.00532

Dispersion correction           -0.025676666
FINAL SINGLE POINT ENERGY      -189.309952421275

DIPOLE MOMENT
-------------
                                X             Y             Z
Electronic contribution:     -2.36248      -1.29160      -0.81592
Nuclear contribution   :      2.67992       1.97410       1.30973
                        -----------------------------------------
Total Dipole Moment    :      0.31744       0.68250       0.49381
                        -----------------------------------------
Magnitude (a.u.)       :      0.90024
Magnitude (Debye)      :      2.28822

Rotational constants in cm-1:     0.889889     0.181458     0.162866
Rotational constants in MHz : 26678.197647  5439.985564  4882.605407

                             ****ORCA TERMINATED NORMALLY****
TOTAL RUN TIME: 0 days 0 hours 0 minutes 14 seconds 836 msec
