                         Program Version 5.0.3 -  RELEASE  -
|  1> ! B3LYP cc-pVDZ
|  2> !TightSCF
|  3> %scf
|  4>  ConvForced true
|  5>  convergence tight
|  6>  MaxIter 500
|  7> end
|  8>
|  9> %tddft
| 10>  nroots 1
| 11> end
| 12>
| 13> # 	7917
| 14> * xyz 0 1
| 15> 		C   -1.169784  -0.343693  -0.062330
| 16> 		O   -2.111444  -0.432319  -0.712677
| 17> 		C    0.029093   0.475580  -0.297912
| 18> 		C    1.255766   0.064105   0.219537
| 19> 		H   -1.241726  -0.987097   0.855797
| 20> 		H   -0.034881   1.362220  -1.007758
| 21> 		H    1.210881  -0.881789   0.902058
| 22> 		H    2.038581   0.686213   0.133947
| 23> *
| 24>
| 25>                          ****END OF INPUT****

CARTESIAN COORDINATES (ANGSTROEM)
---------------------------------
  C     -1.169784   -0.343693   -0.062330
  O     -2.111444   -0.432319   -0.712677
  C      0.029093    0.475580   -0.297912
  C      1.255766    0.064105    0.219537
  H     -1.241726   -0.987097    0.855797
  H     -0.034881    1.362220   -1.007758
  H      1.210881   -0.881789    0.902058
  H      2.038581    0.686213    0.133947

 Total Charge           Charge          ....    0
 Multiplicity           Mult            ....    1
 Number of Electrons    NEL             ....   30
 Basis Dimension        Dim             ....   76

ORBITAL ENERGIES
----------------

  NO   OCC          E(Eh)            E(eV)
   0   2.0000     -19.133339      -520.6446
   1   2.0000     -10.268162      -279.4109
   2   2.0000     -10.222278      -278.1623
   3   2.0000     -10.216770      -278.0124
   4   2.0000      -1.081623       -29.4325
   5   2.0000      -0.792005       -21.5516
   6   2.0000      -0.646178       -17.5834
   7   2.0000      -0.560327       -15.2473
   8   2.0000      -0.483179       -13.1480
   9   2.0000      -0.472557       -12.8589
  10   2.0000      -0.429706       -11.6929
  11   2.0000      -0.411137       -11.1876
  12   2.0000      -0.390151       -10.6165
  13   2.0000      -0.287096        -7.8123
  14   2.0000      -0.248557        -6.7636
  15   0.0000      -0.063260        -1.7214
  16   0.0000       0.046929         1.2770
  17   0.0000       0.069342         1.8869
  18   0.0000       0.084162         2.2902
  19   0.0000       0.120523         3.2796

MULLIKEN ATOMIC CHARGES
-----------------------
   0 C :    0.160143
   1 O :   -0.138216
   2 C :   -0.123625
   3 C :    0.067661
   4 H :   -0.048454
   5 H :    0.024274
   6 H :    0.049297
   7 H :    0.008919
Sum of atomic charges:   -0.0000000

LOEWDIN ATOMIC CHARGES
----------------------
   0 C :   -0.093792
   1 O :    0.059092
   2 C :   -0.056809
   3 C :    0.014097
   4 H :   -0.014705
   5 H :    0.040619
   6 H :    0.047522
   7 H :    0.003975

  Mayer bond orders larger than 0.100000
B(  0-C ,  1-O ) :   2.2476 B(  0-C ,  2-C ) :   1.0356 B(  0-C ,  4-H ) :   0.9171
B(  2-C ,  3-C ) :   1.9402 B(  2-C ,  5-H ) :   0.9397 B(  3-C ,  6-H ) :   0.9418
B(  3-C ,  7-H ) :   0.9410

-----------------------------------------------------------------------------
         ABSORPTION SPECTRUM VIA TRANSITION ELECTRIC DIPOLE MOMENTS
-----------------------------------------------------------------------------
State   Energy    Wavelength  fosc         T2        TX        TY        TZ
        (cm-1)      (nm)                 (au**2)    (au)      (au)      (au)
-----------------------------------------------------------------------------
   1   28871.5    346.4   0.000410754   0.00468   0.06687  -0.01208   0.00817

FINAL SINGLE POINT ENERGY      -191.650581091622

DIPOLE MOMENT
-------------
                                X             Y             Z
Electronic contribution:     -2.94315      -0.23856      -1.25131
Nuclear contribution   :      3.86322       0.45650       1.63876
                        -----------------------------------------
Total Dipole Moment    :      0.92007       0.21794       0.38745
                        -----------------------------------------
Magnitude (a.u.)       :      1.02183
Magnitude (Debye)      :      2.59729

Rotational constants in cm-1:     1.439803     0.156874     0.143928
Rotational constants in MHz : 43164.222527  4702.953798  4314.853859

                             ****ORCA TERMINATED NORMALLY****
TOTAL RUN TIME: 0 days 0 hours 3 minutes 25 seconds 715 msec
