                         Program Version 5.0.3 -  RELEASE  -
|  1> ! B3LYP cc-pVDZ
|  2> !TightSCF
|  3> %scf
|  4>  ConvForced true
|  5>  convergence tight
|  6>  MaxIter 500
|  7> end
|  8>
|  9> %tddft
| 10>  nroots 1
| 11> end
| 12>
| 13> # 	26265
| 14> * xyz 0 1
| 15> 		C   -0.610575  -0.454975  -0.002447
| 16> 		O   -0.566526  -1.639637   0.001261
| 17> 		C    0.645295   0.469562  -0.010676
| 18> 		C    1.838270  -0.115162  -0.003818
| 19> 		H   -1.603466   0.024536   0.045209
| 20> 		H    0.394995   1.439929   0.055929
| 21> 		H    1.874888  -1.294816   0.041575
| 22> 		H    2.941158   0.285992   0.042590
| 23> *
| 24>
| 25>                          ****END OF INPUT****

CARTESIAN COORDINATES (ANGSTROEM)
---------------------------------
  C     -0.610575   -0.454975   -0.002447
  O     -0.566526   -1.639637    0.001261
  C      0.645295    0.469562   -0.010676
  C      1.838270   -0.115162   -0.003818
  H     -1.603466    0.024536    0.045209
  H      0.394995    1.439929    0.055929
  H      1.874888   -1.294816    0.041575
  H      2.941158    0.285992    0.042590

 Total Charge           Charge          ....    0
 Multiplicity           Mult            ....    1
 Number of Electrons    NEL             ....   30
 Basis Dimension        Dim             ....   76

ORBITAL ENERGIES
----------------

  NO   OCC          E(Eh)            E(eV)
   0   2.0000     -19.140060      -520.8275
   1   2.0000     -10.275926      -279.6222
   2   2.0000     -10.222998      -278.1819
   3   2.0000     -10.200963      -277.5823
   4   2.0000      -1.061499       -28.8849
   5   2.0000      -0.786061       -21.3898
   6   2.0000      -0.641135       -17.4462
   7   2.0000      -0.547930       -14.9099
   8   2.0000      -0.501390       -13.6435
   9   2.0000      -0.450614       -12.2618
  10   2.0000      -0.432639       -11.7727
  11   2.0000      -0.404043       -10.9946
  12   2.0000      -0.360942        -9.8217
  13   2.0000      -0.288460        -7.8494
  14   2.0000      -0.255270        -6.9462
  15   0.0000      -0.059900        -1.6300
  16   0.0000       0.055696         1.5156
  17   0.0000       0.070399         1.9156
  18   0.0000       0.080944         2.2026
  19   0.0000       0.125573         3.4170

MULLIKEN ATOMIC CHARGES
-----------------------
   0 C :    0.166500
   1 O :   -0.165574
   2 C :   -0.042228
   3 C :   -0.002709
   4 H :   -0.019429
   5 H :   -0.050005
   6 H :    0.058481
   7 H :    0.054964
Sum of atomic charges:    0.0000000

LOEWDIN ATOMIC CHARGES
----------------------
   0 C :   -0.031136
   1 O :    0.021481
   2 C :   -0.072459
   3 C :   -0.001558
   4 H :   -0.007881
   5 H :   -0.000240
   6 H :    0.047453
   7 H :    0.044339

  Mayer bond orders larger than 0.100000
B(  0-C ,  1-O ) :   2.2215 B(  0-C ,  2-C ) :   1.0035 B(  0-C ,  4-H ) :   0.9163
B(  2-C ,  3-C ) :   1.9508 B(  2-C ,  5-H ) :   0.9646 B(  3-C ,  6-H ) :   0.9188
B(  3-C ,  7-H ) :   0.9526

-----------------------------------------------------------------------------
         ABSORPTION SPECTRUM VIA TRANSITION ELECTRIC DIPOLE MOMENTS
-----------------------------------------------------------------------------
State   Energy    Wavelength  fosc         T2        TX        TY        TZ
        (cm-1)      (nm)                 (au**2)    (au)      (au)      (au)
-----------------------------------------------------------------------------
   1   29969.3    333.7   0.000050144   0.00055  -0.00681  -0.00675  -0.02142

FINAL SINGLE POINT ENERGY      -191.651512876883

DIPOLE MOMENT
-------------
                                X             Y             Z
Electronic contribution:     -1.95795      -1.40959      -0.13446
Nuclear contribution   :      2.22912       2.21636       0.17363
                        -----------------------------------------
Total Dipole Moment    :      0.27118       0.80677       0.03918
                        -----------------------------------------
Magnitude (a.u.)       :      0.85203
Magnitude (Debye)      :      2.16568

Rotational constants in cm-1:     0.743249     0.206739     0.161780
Rotational constants in MHz : 22282.044420  6197.876034  4850.045113

                             ****ORCA TERMINATED NORMALLY****
TOTAL RUN TIME: 0 days 0 hours 3 minutes 12 seconds 623 msec
