                         Program Version 5.0.3 -  RELEASE  -
|  1> ! B3LYP cc-pVDZ
|  2> !TightSCF
|  3> %scf
|  4>  ConvForced true
|  5>  convergence tight
|  6>  MaxIter 500
|  7> end
|  8>
|  9> %tddft
| 10>  nroots 1
| 11> end
| 12>
| 13> # 	5440
| 14> * xyz 0 1
| 15> 		C   -1.188256  -0.389575   0.041765
| 16> 		O   -1.291210  -1.559518  -0.036137
| 17> 		C    0.070121   0.533990   0.018987
| 18> 		C    1.286909   0.093944   0.035217
| 19> 		H   -2.275739   0.089421   0.005707
| 20> 		H   -0.240718   1.535762  -0.133188
| 21> 		H    1.419748  -0.912928   0.150588
| 22> 		H    2.241089   0.623678  -0.077695
| 23> *
| 24>
| 25>                          ****END OF INPUT****

CARTESIAN COORDINATES (ANGSTROEM)
---------------------------------
  C     -1.188256   -0.389575    0.041765
  O     -1.291210   -1.559518   -0.036137
  C      0.070121    0.533990    0.018987
  C      1.286909    0.093944    0.035217
  H     -2.275739    0.089421    0.005707
  H     -0.240718    1.535762   -0.133188
  H      1.419748   -0.912928    0.150588
  H      2.241089    0.623678   -0.077695

 Total Charge           Charge          ....    0
 Multiplicity           Mult            ....    1
 Number of Electrons    NEL             ....   30
 Basis Dimension        Dim             ....   76

ORBITAL ENERGIES
----------------

  NO   OCC          E(Eh)            E(eV)
   0   2.0000     -19.142068      -520.8821
   1   2.0000     -10.282244      -279.7941
   2   2.0000     -10.207422      -277.7581
   3   2.0000     -10.203879      -277.6617
   4   2.0000      -1.067794       -29.0562
   5   2.0000      -0.802018       -21.8240
   6   2.0000      -0.647101       -17.6085
   7   2.0000      -0.544163       -14.8074
   8   2.0000      -0.504647       -13.7321
   9   2.0000      -0.461006       -12.5446
  10   2.0000      -0.436289       -11.8720
  11   2.0000      -0.407328       -11.0840
  12   2.0000      -0.381337       -10.3767
  13   2.0000      -0.299995        -8.1633
  14   2.0000      -0.248662        -6.7664
  15   0.0000      -0.058512        -1.5922
  16   0.0000       0.059601         1.6218
  17   0.0000       0.066060         1.7976
  18   0.0000       0.096296         2.6203
  19   0.0000       0.118831         3.2336

MULLIKEN ATOMIC CHARGES
-----------------------
   0 C :    0.126425
   1 O :   -0.149012
   2 C :   -0.112367
   3 C :    0.136841
   4 H :   -0.023172
   5 H :   -0.019305
   6 H :    0.004068
   7 H :    0.036523
Sum of atomic charges:    0.0000000

LOEWDIN ATOMIC CHARGES
----------------------
   0 C :   -0.049873
   1 O :    0.028715
   2 C :   -0.070495
   3 C :    0.021727
   4 H :   -0.007641
   5 H :    0.021522
   6 H :    0.017623
   7 H :    0.038422

  Mayer bond orders larger than 0.100000
B(  0-C ,  1-O ) :   2.2436 B(  0-C ,  2-C ) :   0.9768 B(  0-C ,  4-H ) :   0.9013
B(  2-C ,  3-C ) :   1.9906 B(  2-C ,  5-H ) :   0.9560 B(  3-C ,  6-H ) :   0.9194
B(  3-C ,  7-H ) :   0.9497

-----------------------------------------------------------------------------
         ABSORPTION SPECTRUM VIA TRANSITION ELECTRIC DIPOLE MOMENTS
-----------------------------------------------------------------------------
State   Energy    Wavelength  fosc         T2        TX        TY        TZ
        (cm-1)      (nm)                 (au**2)    (au)      (au)      (au)
-----------------------------------------------------------------------------
   1   29017.4    344.6   0.000143162   0.00162   0.00282  -0.00757   0.03948

FINAL SINGLE POINT ENERGY      -191.653642084574

DIPOLE MOMENT
-------------
                                X             Y             Z
Electronic contribution:     -1.74553      -1.84290       0.09364
Nuclear contribution   :      2.22901       2.62408      -0.08666
                        -----------------------------------------
Total Dipole Moment    :      0.48349       0.78118       0.00698
                        -----------------------------------------
Magnitude (a.u.)       :      0.91872
Magnitude (Debye)      :      2.33521

Rotational constants in cm-1:     0.870074     0.184167     0.152238
Rotational constants in MHz : 26084.159552  5521.181605  4563.969491

                             ****ORCA TERMINATED NORMALLY****
TOTAL RUN TIME: 0 days 0 hours 3 minutes 19 seconds 319 msec
