                         Program Version 5.0.3 -  RELEASE  -
|  1> ! HF-3c
|  2> !TightSCF
|  3> %scf
|  4>  ConvForced true
|  5>  convergence tight
|  6>  MaxIter 500
|  7> end
|  8>
|  9> %tddft
| 10>  nroots 1
| 11> end
| 12>
| 13> # 	8861
| 14> * xyz 0 1
| 15> 		C   -1.250355  -0.377699  -0.087340
| 16> 		O   -1.185068  -1.462168   0.114921
| 17> 		C   -0.046531   0.524507   0.075020
| 18> 		C    1.170084  -0.034555  -0.055223
| 19> 		H   -2.184080   0.447628  -0.051166
| 20> 		H   -0.088727   1.553628   0.048130
| 21> 		H    1.491213  -1.198726  -0.174782
| 22> 		H    2.083170   0.565057   0.192418
| 23> *
| 24>
| 25>                          ****END OF INPUT****

CARTESIAN COORDINATES (ANGSTROEM)
---------------------------------
  C     -1.250355   -0.377699   -0.087340
  O     -1.185068   -1.462168    0.114921
  C     -0.046531    0.524507    0.075020
  C      1.170084   -0.034555   -0.055223
  H     -2.184080    0.447628   -0.051166
  H     -0.088727    1.553628    0.048130
  H      1.491213   -1.198726   -0.174782
  H      2.083170    0.565057    0.192418

 Total Charge           Charge          ....    0
 Multiplicity           Mult            ....    1
 Number of Electrons    NEL             ....   30
 Basis Dimension        Dim             ....   24

ORBITAL ENERGIES
----------------

  NO   OCC          E(Eh)            E(eV)
   0   2.0000     -20.406613      -555.2922
   1   2.0000     -11.322932      -308.1126
   2   2.0000     -11.176493      -304.1278
   3   2.0000     -11.161654      -303.7241
   4   2.0000      -1.489827       -40.5402
   5   2.0000      -1.060037       -28.8451
   6   2.0000      -0.860238       -23.4083
   7   2.0000      -0.727592       -19.7988
   8   2.0000      -0.710942       -19.3457
   9   2.0000      -0.629798       -17.1377
  10   2.0000      -0.595182       -16.1957
  11   2.0000      -0.583860       -15.8876
  12   2.0000      -0.513979       -13.9861
  13   2.0000      -0.388149       -10.5621
  14   2.0000      -0.378896       -10.3103
  15   0.0000       0.155135         4.2214
  16   0.0000       0.312061         8.4916
  17   0.0000       0.493639        13.4326
  18   0.0000       0.536320        14.5940
  19   0.0000       0.617253        16.7963

MULLIKEN ATOMIC CHARGES
-----------------------
   0 C :    0.231523
   1 O :   -0.377140
   2 C :   -0.207675
   3 C :   -0.189759
   4 H :    0.123746
   5 H :    0.136764
   6 H :    0.152911
   7 H :    0.129630
Sum of atomic charges:   -0.0000000

LOEWDIN ATOMIC CHARGES
----------------------
   0 C :    0.165666
   1 O :   -0.237473
   2 C :   -0.171978
   3 C :   -0.100658
   4 H :    0.068386
   5 H :    0.083524
   6 H :    0.109149
   7 H :    0.083384

  Mayer bond orders larger than 0.100000
B(  0-C ,  1-O ) :   1.9449 B(  0-C ,  2-C ) :   0.9756 B(  0-C ,  4-H ) :   0.8845
B(  2-C ,  3-C ) :   1.9529 B(  2-C ,  5-H ) :   0.9636 B(  3-C ,  6-H ) :   0.9580
B(  3-C ,  7-H ) :   0.9665

-----------------------------------------------------------------------------
         ABSORPTION SPECTRUM VIA TRANSITION ELECTRIC DIPOLE MOMENTS
-----------------------------------------------------------------------------
State   Energy    Wavelength  fosc         T2        TX        TY        TZ
        (cm-1)      (nm)                 (au**2)    (au)      (au)      (au)
-----------------------------------------------------------------------------
   1   37589.6    266.0   0.002555611   0.02238   0.14678  -0.02892  -0.00144

Dispersion correction           -0.025652013
FINAL SINGLE POINT ENERGY      -189.253350729258

DIPOLE MOMENT
-------------
                                X             Y             Z
Electronic contribution:     -2.19379      -1.86973      -0.08708
Nuclear contribution   :      2.49187       2.65020      -0.05463
                        -----------------------------------------
Total Dipole Moment    :      0.29808       0.78047      -0.14171
                        -----------------------------------------
Magnitude (a.u.)       :      0.84739
Magnitude (Debye)      :      2.15388

Rotational constants in cm-1:     0.749998     0.218848     0.170881
Rotational constants in MHz : 22484.370522  6560.903499  5122.891368

                             ****ORCA TERMINATED NORMALLY****
TOTAL RUN TIME: 0 days 0 hours 0 minutes 10 seconds 514 msec
