                         Program Version 5.0.3 -  RELEASE  -
|  1> ! B3LYP cc-pVDZ
|  2> !TightSCF
|  3> %scf
|  4>  ConvForced true
|  5>  convergence tight
|  6>  MaxIter 500
|  7> end
|  8>
|  9> %tddft
| 10>  nroots 1
| 11> end
| 12>
| 13> # 	10854
| 14> * xyz 0 1
| 15> 		C   -1.165983  -0.344048   0.036418
| 16> 		O   -1.735272  -1.042788   0.951356
| 17> 		C    0.014373   0.459264   0.224694
| 18> 		C    1.202222   0.103075  -0.234426
| 19> 		H   -1.621031  -0.273798  -0.997750
| 20> 		H    0.045007   1.379484   0.826929
| 21> 		H    1.335960  -1.010709  -0.741167
| 22> 		H    1.847506   0.740418  -0.046623
| 23> *
| 24>
| 25>                          ****END OF INPUT****

CARTESIAN COORDINATES (ANGSTROEM)
---------------------------------
  C     -1.165983   -0.344048    0.036418
  O     -1.735272   -1.042788    0.951356
  C      0.014373    0.459264    0.224694
  C      1.202222    0.103075   -0.234426
  H     -1.621031   -0.273798   -0.997750
  H      0.045007    1.379484    0.826929
  H      1.335960   -1.010709   -0.741167
  H      1.847506    0.740418   -0.046623

 Total Charge           Charge          ....    0
 Multiplicity           Mult            ....    1
 Number of Electrons    NEL             ....   30
 Basis Dimension        Dim             ....   76

ORBITAL ENERGIES
----------------

  NO   OCC          E(Eh)            E(eV)
   0   2.0000     -19.146445      -521.0013
   1   2.0000     -10.287479      -279.9365
   2   2.0000     -10.206951      -277.7453
   3   2.0000     -10.203046      -277.6390
   4   2.0000      -1.012404       -27.5489
   5   2.0000      -0.814706       -22.1693
   6   2.0000      -0.670454       -18.2440
   7   2.0000      -0.553048       -15.0492
   8   2.0000      -0.502068       -13.6620
   9   2.0000      -0.458104       -12.4656
  10   2.0000      -0.428440       -11.6585
  11   2.0000      -0.392686       -10.6855
  12   2.0000      -0.354247        -9.6395
  13   2.0000      -0.291083        -7.9208
  14   2.0000      -0.258609        -7.0371
  15   0.0000      -0.059805        -1.6274
  16   0.0000      -0.005194        -0.1413
  17   0.0000       0.069593         1.8937
  18   0.0000       0.086274         2.3476
  19   0.0000       0.096229         2.6185

MULLIKEN ATOMIC CHARGES
-----------------------
   0 C :    0.176412
   1 O :   -0.234012
   2 C :   -0.085415
   3 C :    0.101997
   4 H :    0.017557
   5 H :    0.022628
   6 H :    0.049672
   7 H :   -0.048839
Sum of atomic charges:    0.0000000

LOEWDIN ATOMIC CHARGES
----------------------
   0 C :    0.016099
   1 O :   -0.055439
   2 C :   -0.056422
   3 C :    0.004131
   4 H :    0.010607
   5 H :    0.048766
   6 H :    0.057647
   7 H :   -0.025389

  Mayer bond orders larger than 0.100000
B(  0-C ,  1-O ) :   2.1544 B(  0-C ,  2-C ) :   1.0100 B(  0-C ,  4-H ) :   0.9188
B(  2-C ,  3-C ) :   2.0296 B(  2-C ,  5-H ) :   0.9317 B(  3-C ,  6-H ) :   0.9453
B(  3-C ,  7-H ) :   0.9195

-----------------------------------------------------------------------------
         ABSORPTION SPECTRUM VIA TRANSITION ELECTRIC DIPOLE MOMENTS
-----------------------------------------------------------------------------
State   Energy    Wavelength  fosc         T2        TX        TY        TZ
        (cm-1)      (nm)                 (au**2)    (au)      (au)      (au)
-----------------------------------------------------------------------------
   1   28536.4    350.4   0.000736813   0.00850   0.09101   0.01205  -0.00853

FINAL SINGLE POINT ENERGY      -191.618189848250

DIPOLE MOMENT
-------------
                                X             Y             Z
Electronic contribution:     -2.55274      -1.01639       1.28629
Nuclear contribution   :      3.19831       1.65668      -1.86471
                        -----------------------------------------
Total Dipole Moment    :      0.64557       0.64029      -0.57842
                        -----------------------------------------
Magnitude (a.u.)       :      1.07764
Magnitude (Debye)      :      2.73914

Rotational constants in cm-1:     1.060855     0.160291     0.156787
Rotational constants in MHz : 31803.638122  4805.392892  4700.364528

                             ****ORCA TERMINATED NORMALLY****
TOTAL RUN TIME: 0 days 0 hours 3 minutes 15 seconds 221 msec
