                         Program Version 5.0.3 -  RELEASE  -
|  1> ! B3LYP cc-pVDZ
|  2> !TightSCF
|  3> %scf
|  4>  ConvForced true
|  5>  convergence tight
|  6>  MaxIter 500
|  7> end
|  8>
|  9> %tddft
| 10>  nroots 1
| 11> end
| 12>
| 13> # 	2643
| 14> * xyz 0 1
| 15> 		C   -1.200181  -0.319776  -0.000828
| 16> 		O   -1.351387  -1.522980   0.351117
| 17> 		C   -0.020394   0.523824   0.146303
| 18> 		C    1.161529   0.039201  -0.043528
| 19> 		H   -1.950038   0.253125  -0.559618
| 20> 		H   -0.169360   1.567655   0.266106
| 21> 		H    1.379072  -1.074175  -0.077613
| 22> 		H    2.127250   0.613603  -0.081440
| 23> *
| 24>
| 25>                          ****END OF INPUT****

CARTESIAN COORDINATES (ANGSTROEM)
---------------------------------
  C     -1.200181   -0.319776   -0.000828
  O     -1.351387   -1.522980    0.351117
  C     -0.020394    0.523824    0.146303
  C      1.161529    0.039201   -0.043528
  H     -1.950038    0.253125   -0.559618
  H     -0.169360    1.567655    0.266106
  H      1.379072   -1.074175   -0.077613
  H      2.127250    0.613603   -0.081440

 Total Charge           Charge          ....    0
 Multiplicity           Mult            ....    1
 Number of Electrons    NEL             ....   30
 Basis Dimension        Dim             ....   76

ORBITAL ENERGIES
----------------

  NO   OCC          E(Eh)            E(eV)
   0   2.0000     -19.141915      -520.8780
   1   2.0000     -10.279431      -279.7175
   2   2.0000     -10.214919      -277.9621
   3   2.0000     -10.201496      -277.5968
   4   2.0000      -1.018413       -27.7124
   5   2.0000      -0.811781       -22.0897
   6   2.0000      -0.665896       -18.1199
   7   2.0000      -0.549307       -14.9474
   8   2.0000      -0.506429       -13.7806
   9   2.0000      -0.450068       -12.2470
  10   2.0000      -0.431380       -11.7385
  11   2.0000      -0.377025       -10.2594
  12   2.0000      -0.371418       -10.1068
  13   2.0000      -0.295328        -8.0363
  14   2.0000      -0.256834        -6.9888
  15   0.0000      -0.064776        -1.7626
  16   0.0000       0.032033         0.8717
  17   0.0000       0.071054         1.9335
  18   0.0000       0.085975         2.3395
  19   0.0000       0.119853         3.2614

MULLIKEN ATOMIC CHARGES
-----------------------
   0 C :    0.193415
   1 O :   -0.229125
   2 C :   -0.052761
   3 C :    0.025071
   4 H :   -0.007299
   5 H :   -0.012125
   6 H :    0.046460
   7 H :    0.036364
Sum of atomic charges:   -0.0000000

LOEWDIN ATOMIC CHARGES
----------------------
   0 C :    0.006762
   1 O :   -0.048367
   2 C :   -0.078438
   3 C :    0.009130
   4 H :    0.000119
   5 H :    0.030243
   6 H :    0.043304
   7 H :    0.037247

  Mayer bond orders larger than 0.100000
B(  0-C ,  1-O ) :   2.1563 B(  0-C ,  2-C ) :   1.0562 B(  0-C ,  4-H ) :   0.9128
B(  2-C ,  3-C ) :   1.9825 B(  2-C ,  5-H ) :   0.9369 B(  3-C ,  6-H ) :   0.9366
B(  3-C ,  7-H ) :   0.9451

-----------------------------------------------------------------------------
         ABSORPTION SPECTRUM VIA TRANSITION ELECTRIC DIPOLE MOMENTS
-----------------------------------------------------------------------------
State   Energy    Wavelength  fosc         T2        TX        TY        TZ
        (cm-1)      (nm)                 (au**2)    (au)      (au)      (au)
-----------------------------------------------------------------------------
   1   28364.8    352.6   0.000152066   0.00176   0.03716   0.00547  -0.01881

FINAL SINGLE POINT ENERGY      -191.664203925476

DIPOLE MOMENT
-------------
                                X             Y             Z
Electronic contribution:     -2.18609      -1.63593       0.58743
Nuclear contribution   :      2.68782       2.60252      -0.84852
                        -----------------------------------------
Total Dipole Moment    :      0.50174       0.96660      -0.26109
                        -----------------------------------------
Magnitude (a.u.)       :      1.11992
Magnitude (Debye)      :      2.84661

Rotational constants in cm-1:     0.809022     0.195785     0.161294
Rotational constants in MHz : 24253.855754  5869.488014  4835.462846

                             ****ORCA TERMINATED NORMALLY****
TOTAL RUN TIME: 0 days 0 hours 2 minutes 46 seconds 852 msec
