                         Program Version 5.0.3 -  RELEASE  -
|  1> ! HF-3c
|  2> !TightSCF
|  3> %scf
|  4>  ConvForced true
|  5>  convergence tight
|  6>  MaxIter 500
|  7> end
|  8>
|  9> %tddft
| 10>  nroots 1
| 11> end
| 12>
| 13> # 	10012
| 14> * xyz 0 1
| 15> 		C   -1.196256  -0.502739  -0.019371
| 16> 		O   -1.875907  -1.104735   0.708026
| 17> 		C    0.002824   0.243585   0.375410
| 18> 		C    1.236289   0.087492  -0.083405
| 19> 		H   -1.395584  -0.193414  -1.185039
| 20> 		H   -0.291218   1.230000   0.957544
| 21> 		H    1.560097  -0.628649  -0.846897
| 22> 		H    1.935563   0.884789   0.143919
| 23> *
| 24>
| 25>                          ****END OF INPUT****

CARTESIAN COORDINATES (ANGSTROEM)
---------------------------------
  C     -1.196256   -0.502739   -0.019371
  O     -1.875907   -1.104735    0.708026
  C      0.002824    0.243585    0.375410
  C      1.236289    0.087492   -0.083405
  H     -1.395584   -0.193414   -1.185039
  H     -0.291218    1.230000    0.957544
  H      1.560097   -0.628649   -0.846897
  H      1.935563    0.884789    0.143919

 Total Charge           Charge          ....    0
 Multiplicity           Mult            ....    1
 Number of Electrons    NEL             ....   30
 Basis Dimension        Dim             ....   24

ORBITAL ENERGIES
----------------

  NO   OCC          E(Eh)            E(eV)
   0   2.0000     -20.393892      -554.9460
   1   2.0000     -11.313312      -307.8509
   2   2.0000     -11.185600      -304.3757
   3   2.0000     -11.174226      -304.0662
   4   2.0000      -1.444232       -39.2996
   5   2.0000      -1.075836       -29.2750
   6   2.0000      -0.884361       -24.0647
   7   2.0000      -0.739392       -20.1199
   8   2.0000      -0.672445       -18.2982
   9   2.0000      -0.642932       -17.4951
  10   2.0000      -0.616763       -16.7830
  11   2.0000      -0.551587       -15.0095
  12   2.0000      -0.510831       -13.9004
  13   2.0000      -0.411198       -11.1893
  14   2.0000      -0.384888       -10.4733
  15   0.0000       0.180975         4.9246
  16   0.0000       0.242511         6.5991
  17   0.0000       0.521723        14.1968
  18   0.0000       0.543140        14.7796
  19   0.0000       0.645093        17.5539

MULLIKEN ATOMIC CHARGES
-----------------------
   0 C :    0.199029
   1 O :   -0.354679
   2 C :   -0.153260
   3 C :   -0.256150
   4 H :    0.133397
   5 H :    0.153002
   6 H :    0.140461
   7 H :    0.138200
Sum of atomic charges:   -0.0000000

LOEWDIN ATOMIC CHARGES
----------------------
   0 C :    0.157701
   1 O :   -0.240782
   2 C :   -0.117466
   3 C :   -0.167504
   4 H :    0.078077
   5 H :    0.108662
   6 H :    0.091975
   7 H :    0.089337

  Mayer bond orders larger than 0.100000
B(  0-C ,  1-O ) :   1.9544 B(  0-C ,  2-C ) :   0.9889 B(  0-C ,  4-H ) :   0.8901
B(  2-C ,  3-C ) :   1.9961 B(  2-C ,  5-H ) :   0.9391 B(  3-C ,  6-H ) :   0.9644
B(  3-C ,  7-H ) :   0.9635

-----------------------------------------------------------------------------
         ABSORPTION SPECTRUM VIA TRANSITION ELECTRIC DIPOLE MOMENTS
-----------------------------------------------------------------------------
State   Energy    Wavelength  fosc         T2        TX        TY        TZ
        (cm-1)      (nm)                 (au**2)    (au)      (au)      (au)
-----------------------------------------------------------------------------
   1   37074.2    269.7   0.000041464   0.00037  -0.00942  -0.01358  -0.00975

Dispersion correction           -0.025048108
FINAL SINGLE POINT ENERGY      -189.289418143844

DIPOLE MOMENT
-------------
                                X             Y             Z
Electronic contribution:     -2.96038      -1.75844       1.14105
Nuclear contribution   :      3.52901       2.43519      -1.78072
                        -----------------------------------------
Total Dipole Moment    :      0.56863       0.67675      -0.63968
                        -----------------------------------------
Magnitude (a.u.)       :      1.09111
Magnitude (Debye)      :      2.77337

Rotational constants in cm-1:     1.281287     0.155892     0.152069
Rotational constants in MHz : 38412.008863  4673.520406  4558.917297

                             ****ORCA TERMINATED NORMALLY****
TOTAL RUN TIME: 0 days 0 hours 0 minutes 10 seconds 996 msec
