                         Program Version 5.0.3 -  RELEASE  -
|  1> ! B3LYP cc-pVDZ
|  2> !TightSCF
|  3> %scf
|  4>  ConvForced true
|  5>  convergence tight
|  6>  MaxIter 500
|  7> end
|  8>
|  9> %tddft
| 10>  nroots 1
| 11> end
| 12>
| 13> # 	32474
| 14> * xyz 0 1
| 15> 		C   -0.611319  -0.411348   0.046671
| 16> 		O   -0.533027  -1.644620  -0.021500
| 17> 		C    0.614871   0.430786  -0.051036
| 18> 		C    1.842466  -0.140638   0.018001
| 19> 		H   -1.627088   0.203217   0.051327
| 20> 		H    0.501323   1.546659   0.043211
| 21> 		H    1.757715  -1.390988   0.099561
| 22> 		H    2.790520   0.444609  -0.017150
| 23> *
| 24>
| 25>                          ****END OF INPUT****

CARTESIAN COORDINATES (ANGSTROEM)
---------------------------------
  C     -0.611319   -0.411348    0.046671
  O     -0.533027   -1.644620   -0.021500
  C      0.614871    0.430786   -0.051036
  C      1.842466   -0.140638    0.018001
  H     -1.627088    0.203217    0.051327
  H      0.501323    1.546659    0.043211
  H      1.757715   -1.390988    0.099561
  H      2.790520    0.444609   -0.017150

 Total Charge           Charge          ....    0
 Multiplicity           Mult            ....    1
 Number of Electrons    NEL             ....   30
 Basis Dimension        Dim             ....   76

ORBITAL ENERGIES
----------------

  NO   OCC          E(Eh)            E(eV)
   0   2.0000     -19.143848      -520.9306
   1   2.0000     -10.286940      -279.9219
   2   2.0000     -10.228219      -278.3240
   3   2.0000     -10.209264      -277.8082
   4   2.0000      -1.036106       -28.1939
   5   2.0000      -0.785199       -21.3664
   6   2.0000      -0.646332       -17.5876
   7   2.0000      -0.525109       -14.2889
   8   2.0000      -0.499614       -13.5952
   9   2.0000      -0.438874       -11.9424
  10   2.0000      -0.419587       -11.4175
  11   2.0000      -0.394453       -10.7336
  12   2.0000      -0.361124        -9.8267
  13   2.0000      -0.283716        -7.7203
  14   2.0000      -0.261383        -7.1126
  15   0.0000      -0.075181        -2.0458
  16   0.0000       0.050019         1.3611
  17   0.0000       0.061864         1.6834
  18   0.0000       0.070388         1.9154
  19   0.0000       0.109244         2.9727

MULLIKEN ATOMIC CHARGES
-----------------------
   0 C :    0.169252
   1 O :   -0.211181
   2 C :   -0.104550
   3 C :    0.002770
   4 H :    0.008590
   5 H :    0.003596
   6 H :    0.083589
   7 H :    0.047935
Sum of atomic charges:    0.0000000

LOEWDIN ATOMIC CHARGES
----------------------
   0 C :   -0.021349
   1 O :   -0.027846
   2 C :   -0.100007
   3 C :    0.006318
   4 H :    0.008894
   5 H :    0.030871
   6 H :    0.066943
   7 H :    0.036177

  Mayer bond orders larger than 0.100000
B(  0-C ,  1-O ) :   2.1321 B(  0-C ,  2-C ) :   1.0526 B(  0-C ,  4-H ) :   0.9048
B(  2-C ,  3-C ) :   1.9399 B(  2-C ,  5-H ) :   0.9429 B(  3-C ,  6-H ) :   0.9081
B(  3-C ,  7-H ) :   0.9388

-----------------------------------------------------------------------------
         ABSORPTION SPECTRUM VIA TRANSITION ELECTRIC DIPOLE MOMENTS
-----------------------------------------------------------------------------
State   Energy    Wavelength  fosc         T2        TX        TY        TZ
        (cm-1)      (nm)                 (au**2)    (au)      (au)      (au)
-----------------------------------------------------------------------------
   1   27842.9    359.2   0.000294818   0.00349  -0.03785  -0.00236  -0.04525

FINAL SINGLE POINT ENERGY      -191.662496775450

DIPOLE MOMENT
-------------
                                X             Y             Z
Electronic contribution:     -1.71099      -1.63937      -0.09282
Nuclear contribution   :      2.05425       2.54108       0.16581
                        -----------------------------------------
Total Dipole Moment    :      0.34326       0.90171       0.07299
                        -----------------------------------------
Magnitude (a.u.)       :      0.96759
Magnitude (Debye)      :      2.45942

Rotational constants in cm-1:     0.701145     0.214588     0.164570
Rotational constants in MHz : 21019.795484  6433.171500  4933.687150

                             ****ORCA TERMINATED NORMALLY****
TOTAL RUN TIME: 0 days 0 hours 3 minutes 23 seconds 382 msec
