                         Program Version 5.0.3 -  RELEASE  -
|  1> ! HF-3c
|  2> !TightSCF
|  3> %scf
|  4>  ConvForced true
|  5>  convergence tight
|  6>  MaxIter 500
|  7> end
|  8>
|  9> %tddft
| 10>  nroots 1
| 11> end
| 12>
| 13> # 	20832
| 14> * xyz 0 1
| 15> 		C   -0.622629  -0.415733  -0.033333
| 16> 		O   -0.507809  -1.565745   0.018575
| 17> 		C    0.658737   0.372145   0.039422
| 18> 		C    1.786732  -0.165074  -0.024325
| 19> 		H   -1.574924   0.018019  -0.110987
| 20> 		H    0.597427   1.501414   0.045513
| 21> 		H    1.609596  -1.317251  -0.016835
| 22> 		H    2.654767   0.359844   0.009588
| 23> *
| 24>
| 25>                          ****END OF INPUT****

CARTESIAN COORDINATES (ANGSTROEM)
---------------------------------
  C     -0.622629   -0.415733   -0.033333
  O     -0.507809   -1.565745    0.018575
  C      0.658737    0.372145    0.039422
  C      1.786732   -0.165074   -0.024325
  H     -1.574924    0.018019   -0.110987
  H      0.597427    1.501414    0.045513
  H      1.609596   -1.317251   -0.016835
  H      2.654767    0.359844    0.009588

 Total Charge           Charge          ....    0
 Multiplicity           Mult            ....    1
 Number of Electrons    NEL             ....   30
 Basis Dimension        Dim             ....   24

ORBITAL ENERGIES
----------------

  NO   OCC          E(Eh)            E(eV)
   0   2.0000     -20.386841      -554.7542
   1   2.0000     -11.316622      -307.9409
   2   2.0000     -11.181212      -304.2562
   3   2.0000     -11.178843      -304.1918
   4   2.0000      -1.458028       -39.6750
   5   2.0000      -1.098285       -29.8858
   6   2.0000      -0.887850       -24.1596
   7   2.0000      -0.768470       -20.9111
   8   2.0000      -0.709209       -19.2986
   9   2.0000      -0.630529       -17.1576
  10   2.0000      -0.622587       -16.9415
  11   2.0000      -0.575174       -15.6513
  12   2.0000      -0.499037       -13.5795
  13   2.0000      -0.424128       -11.5411
  14   2.0000      -0.416780       -11.3412
  15   0.0000       0.156986         4.2718
  16   0.0000       0.331055         9.0085
  17   0.0000       0.528968        14.3940
  18   0.0000       0.608779        16.5657
  19   0.0000       0.622831        16.9481

MULLIKEN ATOMIC CHARGES
-----------------------
   0 C :    0.172512
   1 O :   -0.359734
   2 C :   -0.165182
   3 C :   -0.256487
   4 H :    0.147511
   5 H :    0.133636
   6 H :    0.177824
   7 H :    0.149922
Sum of atomic charges:    0.0000000

LOEWDIN ATOMIC CHARGES
----------------------
   0 C :    0.146876
   1 O :   -0.246286
   2 C :   -0.126237
   3 C :   -0.157606
   4 H :    0.076241
   5 H :    0.085340
   6 H :    0.127825
   7 H :    0.093847

  Mayer bond orders larger than 0.100000
B(  0-C ,  1-O ) :   1.9229 B(  0-C ,  2-C ) :   0.9872 B(  0-C ,  4-H ) :   0.9271
B(  2-C ,  3-C ) :   1.9879 B(  2-C ,  5-H ) :   0.9549 B(  3-C ,  6-H ) :   0.9335
B(  3-C ,  7-H ) :   0.9631

-----------------------------------------------------------------------------
         ABSORPTION SPECTRUM VIA TRANSITION ELECTRIC DIPOLE MOMENTS
-----------------------------------------------------------------------------
State   Energy    Wavelength  fosc         T2        TX        TY        TZ
        (cm-1)      (nm)                 (au**2)    (au)      (au)      (au)
-----------------------------------------------------------------------------
   1   36621.4    273.1   0.000026221   0.00024   0.00729   0.00149  -0.01343

Dispersion correction           -0.026966100
FINAL SINGLE POINT ENERGY      -189.293183252957

DIPOLE MOMENT
-------------
                                X             Y             Z
Electronic contribution:     -1.87676      -1.54312       0.02911
Nuclear contribution   :      1.92818       2.31785      -0.06828
                        -----------------------------------------
Total Dipole Moment    :      0.05142       0.77473      -0.03916
                        -----------------------------------------
Magnitude (a.u.)       :      0.77742
Magnitude (Debye)      :      1.97606

Rotational constants in cm-1:     0.812020     0.229309     0.179039
Rotational constants in MHz : 24343.754360  6874.502228  5367.445173

                             ****ORCA TERMINATED NORMALLY****
TOTAL RUN TIME: 0 days 0 hours 0 minutes 16 seconds 19 msec
