                         Program Version 5.0.3 -  RELEASE  -
|  1> ! B3LYP cc-pVDZ
|  2> !TightSCF
|  3> %scf
|  4>  ConvForced true
|  5>  convergence tight
|  6>  MaxIter 500
|  7> end
|  8>
|  9> %tddft
| 10>  nroots 1
| 11> end
| 12>
| 13> # 	6631
| 14> * xyz 0 1
| 15> 		C   -1.216284  -0.278046   0.022708
| 16> 		O   -1.865027  -0.816135   0.885426
| 17> 		C    0.045718   0.474355   0.328467
| 18> 		C    1.239561   0.049130  -0.197294
| 19> 		H   -1.516305  -0.513755  -1.038947
| 20> 		H   -0.146659   1.348842   0.805376
| 21> 		H    1.341013  -0.883654  -0.815964
| 22> 		H    2.123472   0.617181  -0.004140
| 23> *
| 24>
| 25>                          ****END OF INPUT****

CARTESIAN COORDINATES (ANGSTROEM)
---------------------------------
  C     -1.216284   -0.278046    0.022708
  O     -1.865027   -0.816135    0.885426
  C      0.045718    0.474355    0.328467
  C      1.239561    0.049130   -0.197294
  H     -1.516305   -0.513755   -1.038947
  H     -0.146659    1.348842    0.805376
  H      1.341013   -0.883654   -0.815964
  H      2.123472    0.617181   -0.004140

 Total Charge           Charge          ....    0
 Multiplicity           Mult            ....    1
 Number of Electrons    NEL             ....   30
 Basis Dimension        Dim             ....   76

ORBITAL ENERGIES
----------------

  NO   OCC          E(Eh)            E(eV)
   0   2.0000     -19.140652      -520.8436
   1   2.0000     -10.278064      -279.6803
   2   2.0000     -10.215401      -277.9752
   3   2.0000     -10.207601      -277.7629
   4   2.0000      -1.051643       -28.6166
   5   2.0000      -0.790485       -21.5102
   6   2.0000      -0.646033       -17.5794
   7   2.0000      -0.568751       -15.4765
   8   2.0000      -0.486267       -13.2320
   9   2.0000      -0.466121       -12.6838
  10   2.0000      -0.435286       -11.8447
  11   2.0000      -0.397963       -10.8291
  12   2.0000      -0.379895       -10.3375
  13   2.0000      -0.282973        -7.7001
  14   2.0000      -0.252118        -6.8605
  15   0.0000      -0.049754        -1.3539
  16   0.0000       0.003317         0.0903
  17   0.0000       0.083265         2.2658
  18   0.0000       0.094247         2.5646
  19   0.0000       0.104189         2.8351

MULLIKEN ATOMIC CHARGES
-----------------------
   0 C :    0.139808
   1 O :   -0.182321
   2 C :   -0.021244
   3 C :    0.016115
   4 H :   -0.010731
   5 H :   -0.011217
   6 H :    0.038774
   7 H :    0.030816
Sum of atomic charges:   -0.0000000

LOEWDIN ATOMIC CHARGES
----------------------
   0 C :   -0.026989
   1 O :    0.008376
   2 C :   -0.036121
   3 C :   -0.015286
   4 H :   -0.004625
   5 H :    0.012976
   6 H :    0.036872
   7 H :    0.024797

  Mayer bond orders larger than 0.100000
B(  0-C ,  1-O ) :   2.2044 B(  0-C ,  2-C ) :   0.9959 B(  0-C ,  4-H ) :   0.9214
B(  2-C ,  3-C ) :   1.9983 B(  2-C ,  5-H ) :   0.9501 B(  3-C ,  6-H ) :   0.9490
B(  3-C ,  7-H ) :   0.9472

-----------------------------------------------------------------------------
         ABSORPTION SPECTRUM VIA TRANSITION ELECTRIC DIPOLE MOMENTS
-----------------------------------------------------------------------------
State   Energy    Wavelength  fosc         T2        TX        TY        TZ
        (cm-1)      (nm)                 (au**2)    (au)      (au)      (au)
-----------------------------------------------------------------------------
   1   30968.5    322.9   0.000758437   0.00806  -0.04928   0.02034   0.07225

FINAL SINGLE POINT ENERGY      -191.648045230710

DIPOLE MOMENT
-------------
                                X             Y             Z
Electronic contribution:     -2.82757      -0.69712       1.41048
Nuclear contribution   :      3.48999       1.16222      -1.98022
                        -----------------------------------------
Total Dipole Moment    :      0.66242       0.46510      -0.56973
                        -----------------------------------------
Magnitude (a.u.)       :      0.98981
Magnitude (Debye)      :      2.51589

Rotational constants in cm-1:     1.132957     0.157904     0.152449
Rotational constants in MHz : 33965.205230  4733.834294  4570.313871

                             ****ORCA TERMINATED NORMALLY****
TOTAL RUN TIME: 0 days 0 hours 3 minutes 24 seconds 405 msec
