                         Program Version 5.0.3 -  RELEASE  -
|  1> ! B3LYP cc-pVDZ
|  2> !TightSCF
|  3> %scf
|  4>  ConvForced true
|  5>  convergence tight
|  6>  MaxIter 500
|  7> end
|  8>
|  9> %tddft
| 10>  nroots 1
| 11> end
| 12>
| 13> # 	11971
| 14> * xyz 0 1
| 15> 		C   -1.214955  -0.269080  -0.017640
| 16> 		O   -1.649203  -1.065980  -0.800863
| 17> 		C   -0.009059   0.505357  -0.252400
| 18> 		C    1.191081   0.016866   0.167509
| 19> 		H   -1.600012  -0.179313   0.901236
| 20> 		H   -0.061404   1.364149  -0.727649
| 21> 		H    1.213828  -0.954606   0.604167
| 22> 		H    2.118243   0.576653   0.070734
| 23> *
| 24>
| 25>                          ****END OF INPUT****

CARTESIAN COORDINATES (ANGSTROEM)
---------------------------------
  C     -1.214955   -0.269080   -0.017640
  O     -1.649203   -1.065980   -0.800863
  C     -0.009059    0.505357   -0.252400
  C      1.191081    0.016866    0.167509
  H     -1.600012   -0.179313    0.901236
  H     -0.061404    1.364149   -0.727649
  H      1.213828   -0.954606    0.604167
  H      2.118243    0.576653    0.070734

 Total Charge           Charge          ....    0
 Multiplicity           Mult            ....    1
 Number of Electrons    NEL             ....   30
 Basis Dimension        Dim             ....   76

ORBITAL ENERGIES
----------------

  NO   OCC          E(Eh)            E(eV)
   0   2.0000     -19.140611      -520.8425
   1   2.0000     -10.266932      -279.3774
   2   2.0000     -10.203329      -277.6467
   3   2.0000     -10.193589      -277.3816
   4   2.0000      -1.056318       -28.7439
   5   2.0000      -0.798809       -21.7367
   6   2.0000      -0.659675       -17.9507
   7   2.0000      -0.584807       -15.9134
   8   2.0000      -0.507630       -13.8133
   9   2.0000      -0.460880       -12.5412
  10   2.0000      -0.440128       -11.9765
  11   2.0000      -0.400618       -10.9014
  12   2.0000      -0.377039       -10.2598
  13   2.0000      -0.280992        -7.6462
  14   2.0000      -0.254597        -6.9279
  15   0.0000      -0.033976        -0.9245
  16   0.0000      -0.010531        -0.2866
  17   0.0000       0.088118         2.3978
  18   0.0000       0.109097         2.9687
  19   0.0000       0.116865         3.1801

MULLIKEN ATOMIC CHARGES
-----------------------
   0 C :    0.219754
   1 O :   -0.181082
   2 C :   -0.033009
   3 C :    0.027998
   4 H :   -0.037025
   5 H :   -0.037634
   6 H :    0.011378
   7 H :    0.029620
Sum of atomic charges:   -0.0000000

LOEWDIN ATOMIC CHARGES
----------------------
   0 C :   -0.016714
   1 O :    0.024691
   2 C :   -0.026419
   3 C :   -0.011550
   4 H :   -0.021585
   5 H :    0.002421
   6 H :    0.019766
   7 H :    0.029390

  Mayer bond orders larger than 0.100000
B(  0-C ,  1-O ) :   2.2451 B(  0-C ,  2-C ) :   0.9973 B(  0-C ,  4-H ) :   0.9338
B(  2-C ,  3-C ) :   2.0385 B(  2-C ,  5-H ) :   0.9475 B(  3-C ,  6-H ) :   0.9466
B(  3-C ,  7-H ) :   0.9507

-----------------------------------------------------------------------------
         ABSORPTION SPECTRUM VIA TRANSITION ELECTRIC DIPOLE MOMENTS
-----------------------------------------------------------------------------
State   Energy    Wavelength  fosc         T2        TX        TY        TZ
        (cm-1)      (nm)                 (au**2)    (au)      (au)      (au)
-----------------------------------------------------------------------------
   1   33070.6    302.4   0.000178692   0.00178   0.02008  -0.01004   0.03570

FINAL SINGLE POINT ENERGY      -191.622710556076

DIPOLE MOMENT
-------------
                                X             Y             Z
Electronic contribution:     -2.76977      -1.00193      -1.14563
Nuclear contribution   :      3.22950       1.62832       1.67050
                        -----------------------------------------
Total Dipole Moment    :      0.45973       0.62639       0.52487
                        -----------------------------------------
Magnitude (a.u.)       :      0.93766
Magnitude (Debye)      :      2.38334

Rotational constants in cm-1:     1.004736     0.174505     0.164894
Rotational constants in MHz : 30121.235863  5231.513971  4943.397618

                             ****ORCA TERMINATED NORMALLY****
TOTAL RUN TIME: 0 days 0 hours 3 minutes 16 seconds 832 msec
