                         Program Version 5.0.3 -  RELEASE  -
|  1> ! B3LYP cc-pVDZ
|  2> !TightSCF
|  3> %scf
|  4>  ConvForced true
|  5>  convergence tight
|  6>  MaxIter 500
|  7> end
|  8>
|  9> %tddft
| 10>  nroots 1
| 11> end
| 12>
| 13> # 	14764
| 14> * xyz 0 1
| 15> 		C   -1.183843  -0.355147  -0.000728
| 16> 		O   -1.434034  -1.498794  -0.448968
| 17> 		C    0.050223   0.482386  -0.130918
| 18> 		C    1.217807   0.023035   0.089192
| 19> 		H   -1.960689   0.123930   0.712217
| 20> 		H   -0.185159   1.506565  -0.555461
| 21> 		H    1.417446  -0.931391   0.306742
| 22> 		H    2.072876   0.652615   0.071601
| 23> *
| 24>
| 25>                          ****END OF INPUT****

CARTESIAN COORDINATES (ANGSTROEM)
---------------------------------
  C     -1.183843   -0.355147   -0.000728
  O     -1.434034   -1.498794   -0.448968
  C      0.050223    0.482386   -0.130918
  C      1.217807    0.023035    0.089192
  H     -1.960689    0.123930    0.712217
  H     -0.185159    1.506565   -0.555461
  H      1.417446   -0.931391    0.306742
  H      2.072876    0.652615    0.071601

 Total Charge           Charge          ....    0
 Multiplicity           Mult            ....    1
 Number of Electrons    NEL             ....   30
 Basis Dimension        Dim             ....   76

ORBITAL ENERGIES
----------------

  NO   OCC          E(Eh)            E(eV)
   0   2.0000     -19.145672      -520.9802
   1   2.0000     -10.286139      -279.9001
   2   2.0000     -10.209702      -277.8201
   3   2.0000     -10.193580      -277.3814
   4   2.0000      -1.025601       -27.9080
   5   2.0000      -0.812846       -22.1187
   6   2.0000      -0.662893       -18.0382
   7   2.0000      -0.551741       -15.0136
   8   2.0000      -0.500262       -13.6128
   9   2.0000      -0.460862       -12.5407
  10   2.0000      -0.437429       -11.9031
  11   2.0000      -0.389774       -10.6063
  12   2.0000      -0.367566       -10.0020
  13   2.0000      -0.299876        -8.1601
  14   2.0000      -0.254412        -6.9229
  15   0.0000      -0.053808        -1.4642
  16   0.0000       0.014085         0.3833
  17   0.0000       0.073492         1.9998
  18   0.0000       0.097276         2.6470
  19   0.0000       0.106463         2.8970

MULLIKEN ATOMIC CHARGES
-----------------------
   0 C :    0.155330
   1 O :   -0.212310
   2 C :   -0.132335
   3 C :    0.159925
   4 H :    0.000945
   5 H :    0.023475
   6 H :   -0.010990
   7 H :    0.015960
Sum of atomic charges:   -0.0000000

LOEWDIN ATOMIC CHARGES
----------------------
   0 C :    0.001998
   1 O :   -0.037325
   2 C :   -0.070497
   3 C :    0.012939
   4 H :    0.001953
   5 H :    0.047631
   6 H :    0.011249
   7 H :    0.032052

  Mayer bond orders larger than 0.100000
B(  0-C ,  1-O ) :   2.1881 B(  0-C ,  2-C ) :   1.0046 B(  0-C ,  4-H ) :   0.9028
B(  2-C ,  3-C ) :   2.0415 B(  2-C ,  5-H ) :   0.9285 B(  3-C ,  6-H ) :   0.9334
B(  3-C ,  7-H ) :   0.9367

-----------------------------------------------------------------------------
         ABSORPTION SPECTRUM VIA TRANSITION ELECTRIC DIPOLE MOMENTS
-----------------------------------------------------------------------------
State   Energy    Wavelength  fosc         T2        TX        TY        TZ
        (cm-1)      (nm)                 (au**2)    (au)      (au)      (au)
-----------------------------------------------------------------------------
   1   29632.4    337.5   0.000107493   0.00119  -0.02022  -0.00488  -0.02760

FINAL SINGLE POINT ENERGY      -191.648175231015

DIPOLE MOMENT
-------------
                                X             Y             Z
Electronic contribution:     -2.09644      -1.77689      -0.69768
Nuclear contribution   :      2.62290       2.64453       0.97610
                        -----------------------------------------
Total Dipole Moment    :      0.52645       0.86764       0.27842
                        -----------------------------------------
Magnitude (a.u.)       :      1.05236
Magnitude (Debye)      :      2.67489

Rotational constants in cm-1:     0.872678     0.181544     0.156442
Rotational constants in MHz : 26162.215853  5442.558928  4690.025142

                             ****ORCA TERMINATED NORMALLY****
TOTAL RUN TIME: 0 days 0 hours 3 minutes 27 seconds 800 msec
