                         Program Version 5.0.3 -  RELEASE  -
|  1> ! HF-3c
|  2> !TightSCF
|  3> %scf
|  4>  ConvForced true
|  5>  convergence tight
|  6>  MaxIter 500
|  7> end
|  8>
|  9> %tddft
| 10>  nroots 1
| 11> end
| 12>
| 13> # 	30965
| 14> * xyz 0 1
| 15> 		C   -0.636825  -0.450804  -0.000158
| 16> 		O   -0.535496  -1.581276  -0.007692
| 17> 		C    0.661680   0.432762  -0.068328
| 18> 		C    1.810094  -0.186893   0.027830
| 19> 		H   -1.538341  -0.063060   0.251643
| 20> 		H    0.442582   1.627869   0.280353
| 21> 		H    2.014735  -1.188648   0.209583
| 22> 		H    2.677399   0.427164  -0.137314
| 23> *
| 24>
| 25>                          ****END OF INPUT****

CARTESIAN COORDINATES (ANGSTROEM)
---------------------------------
  C     -0.636825   -0.450804   -0.000158
  O     -0.535496   -1.581276   -0.007692
  C      0.661680    0.432762   -0.068328
  C      1.810094   -0.186893    0.027830
  H     -1.538341   -0.063060    0.251643
  H      0.442582    1.627869    0.280353
  H      2.014735   -1.188648    0.209583
  H      2.677399    0.427164   -0.137314

 Total Charge           Charge          ....    0
 Multiplicity           Mult            ....    1
 Number of Electrons    NEL             ....   30
 Basis Dimension        Dim             ....   24

ORBITAL ENERGIES
----------------

  NO   OCC          E(Eh)            E(eV)
   0   2.0000     -20.390071      -554.8420
   1   2.0000     -11.311709      -307.8072
   2   2.0000     -11.181027      -304.2512
   3   2.0000     -11.178481      -304.1819
   4   2.0000      -1.466614       -39.9086
   5   2.0000      -1.066441       -29.0193
   6   2.0000      -0.878350       -23.9011
   7   2.0000      -0.772025       -21.0079
   8   2.0000      -0.695882       -18.9359
   9   2.0000      -0.628375       -17.0990
  10   2.0000      -0.594008       -16.1638
  11   2.0000      -0.571421       -15.5492
  12   2.0000      -0.529398       -14.4056
  13   2.0000      -0.414285       -11.2733
  14   2.0000      -0.381154       -10.3717
  15   0.0000       0.154417         4.2019
  16   0.0000       0.292877         7.9696
  17   0.0000       0.484496        13.1838
  18   0.0000       0.532765        14.4973
  19   0.0000       0.720000        19.5922

MULLIKEN ATOMIC CHARGES
-----------------------
   0 C :    0.168882
   1 O :   -0.359380
   2 C :   -0.135551
   3 C :   -0.259272
   4 H :    0.136132
   5 H :    0.148944
   6 H :    0.158543
   7 H :    0.141703
Sum of atomic charges:   -0.0000000

LOEWDIN ATOMIC CHARGES
----------------------
   0 C :    0.135443
   1 O :   -0.236223
   2 C :   -0.110017
   3 C :   -0.155720
   4 H :    0.063130
   5 H :    0.110298
   6 H :    0.100974
   7 H :    0.092114

  Mayer bond orders larger than 0.100000
B(  0-C ,  1-O ) :   1.9356 B(  0-C ,  2-C ) :   0.9612 B(  0-C ,  4-H ) :   0.9291
B(  2-C ,  3-C ) :   1.9862 B(  2-C ,  5-H ) :   0.9518 B(  3-C ,  6-H ) :   0.9592
B(  3-C ,  7-H ) :   0.9618

-----------------------------------------------------------------------------
         ABSORPTION SPECTRUM VIA TRANSITION ELECTRIC DIPOLE MOMENTS
-----------------------------------------------------------------------------
State   Energy    Wavelength  fosc         T2        TX        TY        TZ
        (cm-1)      (nm)                 (au**2)    (au)      (au)      (au)
-----------------------------------------------------------------------------
   1   36059.1    277.3   0.000031759   0.00029  -0.01431   0.00153  -0.00910

Dispersion correction           -0.025624394
FINAL SINGLE POINT ENERGY      -189.267051311152

DIPOLE MOMENT
-------------
                                X             Y             Z
Electronic contribution:     -2.07541      -1.64382      -0.41843
Nuclear contribution   :      2.21718       2.54135       0.56695
                        -----------------------------------------
Total Dipole Moment    :      0.14177       0.89753       0.14851
                        -----------------------------------------
Magnitude (a.u.)       :      0.92071
Magnitude (Debye)      :      2.34026

Rotational constants in cm-1:     0.753667     0.217864     0.169937
Rotational constants in MHz : 22594.368913  6531.397170  5094.573785

                             ****ORCA TERMINATED NORMALLY****
TOTAL RUN TIME: 0 days 0 hours 0 minutes 12 seconds 333 msec
