                         Program Version 5.0.3 -  RELEASE  -
|  1> ! B3LYP cc-pVDZ
|  2> !TightSCF
|  3> %scf
|  4>  ConvForced true
|  5>  convergence tight
|  6>  MaxIter 500
|  7> end
|  8>
|  9> %tddft
| 10>  nroots 1
| 11> end
| 12>
| 13> # 	392
| 14> * xyz 0 1
| 15> 		C   -1.208136  -0.360950  -0.050488
| 16> 		O   -1.882385  -0.851327   0.802989
| 17> 		C   -0.080373   0.523939   0.231059
| 18> 		C    1.155639   0.043761  -0.090867
| 19> 		H   -1.269596  -0.622374  -1.103631
| 20> 		H   -0.189168   1.489114   0.924135
| 21> 		H    1.375206  -0.898418  -0.723578
| 22> 		H    2.137566   0.685505   0.028968
| 23> *
| 24>
| 25>                          ****END OF INPUT****

CARTESIAN COORDINATES (ANGSTROEM)
---------------------------------
  C     -1.208136   -0.360950   -0.050488
  O     -1.882385   -0.851327    0.802989
  C     -0.080373    0.523939    0.231059
  C      1.155639    0.043761   -0.090867
  H     -1.269596   -0.622374   -1.103631
  H     -0.189168    1.489114    0.924135
  H      1.375206   -0.898418   -0.723578
  H      2.137566    0.685505    0.028968

 Total Charge           Charge          ....    0
 Multiplicity           Mult            ....    1
 Number of Electrons    NEL             ....   30
 Basis Dimension        Dim             ....   76

ORBITAL ENERGIES
----------------

  NO   OCC          E(Eh)            E(eV)
   0   2.0000     -19.143083      -520.9098
   1   2.0000     -10.276540      -279.6389
   2   2.0000     -10.225731      -278.2563
   3   2.0000     -10.217645      -278.0363
   4   2.0000      -1.060518       -28.8582
   5   2.0000      -0.792849       -21.5745
   6   2.0000      -0.641488       -17.4558
   7   2.0000      -0.560055       -15.2399
   8   2.0000      -0.477130       -12.9834
   9   2.0000      -0.462045       -12.5729
  10   2.0000      -0.438587       -11.9345
  11   2.0000      -0.383964       -10.4482
  12   2.0000      -0.374263       -10.1842
  13   2.0000      -0.284715        -7.7475
  14   2.0000      -0.257345        -7.0027
  15   0.0000      -0.054268        -1.4767
  16   0.0000       0.010481         0.2852
  17   0.0000       0.067222         1.8292
  18   0.0000       0.075552         2.0559
  19   0.0000       0.111394         3.0312

MULLIKEN ATOMIC CHARGES
-----------------------
   0 C :    0.195224
   1 O :   -0.170820
   2 C :   -0.099781
   3 C :   -0.058276
   4 H :   -0.019028
   5 H :    0.051933
   6 H :    0.046724
   7 H :    0.054024
Sum of atomic charges:   -0.0000000

LOEWDIN ATOMIC CHARGES
----------------------
   0 C :   -0.045738
   1 O :    0.026798
   2 C :   -0.071656
   3 C :   -0.041492
   4 H :   -0.008084
   5 H :    0.057747
   6 H :    0.037656
   7 H :    0.044769

  Mayer bond orders larger than 0.100000
B(  0-C ,  1-O ) :   2.2282 B(  0-C ,  2-C ) :   1.0113 B(  0-C ,  4-H ) :   0.9163
B(  2-C ,  3-C ) :   1.9682 B(  2-C ,  5-H ) :   0.9283 B(  3-C ,  6-H ) :   0.9493
B(  3-C ,  7-H ) :   0.9464

-----------------------------------------------------------------------------
         ABSORPTION SPECTRUM VIA TRANSITION ELECTRIC DIPOLE MOMENTS
-----------------------------------------------------------------------------
State   Energy    Wavelength  fosc         T2        TX        TY        TZ
        (cm-1)      (nm)                 (au**2)    (au)      (au)      (au)
-----------------------------------------------------------------------------
   1   31516.0    317.3   0.000841354   0.00879   0.08927   0.02351  -0.01633

FINAL SINGLE POINT ENERGY      -191.639811791367

DIPOLE MOMENT
-------------
                                X             Y             Z
Electronic contribution:     -3.20924      -0.87489       1.14255
Nuclear contribution   :      3.89110       1.30494      -1.68470
                        -----------------------------------------
Total Dipole Moment    :      0.68186       0.43005      -0.54215
                        -----------------------------------------
Magnitude (a.u.)       :      0.97150
Magnitude (Debye)      :      2.46935

Rotational constants in cm-1:     1.056077     0.165847     0.158611
Rotational constants in MHz : 31660.386028  4971.968216  4755.039032

                             ****ORCA TERMINATED NORMALLY****
TOTAL RUN TIME: 0 days 0 hours 3 minutes 13 seconds 577 msec
