                         Program Version 5.0.3 -  RELEASE  -
|  1> ! HF-3c
|  2> !TightSCF
|  3> %scf
|  4>  ConvForced true
|  5>  convergence tight
|  6>  MaxIter 500
|  7> end
|  8>
|  9> %tddft
| 10>  nroots 1
| 11> end
| 12>
| 13> # 	6487
| 14> * xyz 0 1
| 15> 		C   -1.175278  -0.258473   0.017542
| 16> 		O   -1.461230  -1.259603   0.691280
| 17> 		C    0.057188   0.492146   0.187040
| 18> 		C    1.194113   0.070555  -0.151148
| 19> 		H   -1.870942  -0.076818  -0.811151
| 20> 		H    0.020208   1.595271   0.568381
| 21> 		H    1.126418  -1.150943  -0.363080
| 22> 		H    2.158202   0.556429  -0.112821
| 23> *
| 24>
| 25>                          ****END OF INPUT****

CARTESIAN COORDINATES (ANGSTROEM)
---------------------------------
  C     -1.175278   -0.258473    0.017542
  O     -1.461230   -1.259603    0.691280
  C      0.057188    0.492146    0.187040
  C      1.194113    0.070555   -0.151148
  H     -1.870942   -0.076818   -0.811151
  H      0.020208    1.595271    0.568381
  H      1.126418   -1.150943   -0.363080
  H      2.158202    0.556429   -0.112821

 Total Charge           Charge          ....    0
 Multiplicity           Mult            ....    1
 Number of Electrons    NEL             ....   30
 Basis Dimension        Dim             ....   24

ORBITAL ENERGIES
----------------

  NO   OCC          E(Eh)            E(eV)
   0   2.0000     -20.362388      -554.0887
   1   2.0000     -11.292855      -307.2942
   2   2.0000     -11.193653      -304.5948
   3   2.0000     -11.182031      -304.2785
   4   2.0000      -1.385935       -37.7132
   5   2.0000      -1.098518       -29.8922
   6   2.0000      -0.883646       -24.0452
   7   2.0000      -0.744734       -20.2652
   8   2.0000      -0.686967       -18.6933
   9   2.0000      -0.639737       -17.4081
  10   2.0000      -0.595599       -16.2071
  11   2.0000      -0.509069       -13.8525
  12   2.0000      -0.477957       -13.0059
  13   2.0000      -0.421982       -11.4827
  14   2.0000      -0.413252       -11.2452
  15   0.0000       0.173384         4.7180
  16   0.0000       0.244999         6.6668
  17   0.0000       0.492112        13.3910
  18   0.0000       0.585198        15.9240
  19   0.0000       0.604088        16.4381

MULLIKEN ATOMIC CHARGES
-----------------------
   0 C :    0.149016
   1 O :   -0.336140
   2 C :   -0.177694
   3 C :   -0.226537
   4 H :    0.148143
   5 H :    0.150446
   6 H :    0.144184
   7 H :    0.148582
Sum of atomic charges:    0.0000000

LOEWDIN ATOMIC CHARGES
----------------------
   0 C :    0.141326
   1 O :   -0.251471
   2 C :   -0.133339
   3 C :   -0.145914
   4 H :    0.083665
   5 H :    0.103784
   6 H :    0.105112
   7 H :    0.096837

  Mayer bond orders larger than 0.100000
B(  0-C ,  1-O ) :   1.9309 B(  0-C ,  2-C ) :   1.0084 B(  0-C ,  4-H ) :   0.9264
B(  2-C ,  3-C ) :   2.0013 B(  2-C ,  5-H ) :   0.9353 B(  3-C ,  6-H ) :   0.9502
B(  3-C ,  7-H ) :   0.9607

-----------------------------------------------------------------------------
         ABSORPTION SPECTRUM VIA TRANSITION ELECTRIC DIPOLE MOMENTS
-----------------------------------------------------------------------------
State   Energy    Wavelength  fosc         T2        TX        TY        TZ
        (cm-1)      (nm)                 (au**2)    (au)      (au)      (au)
-----------------------------------------------------------------------------
   1   32055.3    312.0   0.000017978   0.00018  -0.00978   0.00781  -0.00528

Dispersion correction           -0.025629430
FINAL SINGLE POINT ENERGY      -189.301644172411

DIPOLE MOMENT
-------------
                                X             Y             Z
Electronic contribution:     -2.32725      -1.17667       0.88326
Nuclear contribution   :      2.73615       1.89429      -1.40168
                        -----------------------------------------
Total Dipole Moment    :      0.40891       0.71762      -0.51842
                        -----------------------------------------
Magnitude (a.u.)       :      0.97516
Magnitude (Debye)      :      2.47866

Rotational constants in cm-1:     0.918409     0.184165     0.165354
Rotational constants in MHz : 27533.209741  5521.119365  4957.181765

                             ****ORCA TERMINATED NORMALLY****
TOTAL RUN TIME: 0 days 0 hours 0 minutes 16 seconds 75 msec
