                         Program Version 5.0.3 -  RELEASE  -
|  1> ! B3LYP cc-pVDZ
|  2> !TightSCF
|  3> %scf
|  4>  ConvForced true
|  5>  convergence tight
|  6>  MaxIter 500
|  7> end
|  8>
|  9> %tddft
| 10>  nroots 1
| 11> end
| 12>
| 13> # 	17206
| 14> * xyz 0 1
| 15> 		C   -1.169834  -0.362396  -0.001139
| 16> 		O   -1.341984  -1.446082  -0.375379
| 17> 		C   -0.006090   0.499922  -0.159966
| 18> 		C    1.210517  -0.008249   0.111521
| 19> 		H   -2.044965   0.224834   0.396299
| 20> 		H   -0.068846   1.563433  -0.199067
| 21> 		H    1.329667  -1.024452   0.172016
| 22> 		H    2.023714   0.553656   0.061397
| 23> *
| 24>
| 25>                          ****END OF INPUT****

CARTESIAN COORDINATES (ANGSTROEM)
---------------------------------
  C     -1.169834   -0.362396   -0.001139
  O     -1.341984   -1.446082   -0.375379
  C     -0.006090    0.499922   -0.159966
  C      1.210517   -0.008249    0.111521
  H     -2.044965    0.224834    0.396299
  H     -0.068846    1.563433   -0.199067
  H      1.329667   -1.024452    0.172016
  H      2.023714    0.553656    0.061397

 Total Charge           Charge          ....    0
 Multiplicity           Mult            ....    1
 Number of Electrons    NEL             ....   30
 Basis Dimension        Dim             ....   76

ORBITAL ENERGIES
----------------

  NO   OCC          E(Eh)            E(eV)
   0   2.0000     -19.139076      -520.8007
   1   2.0000     -10.270776      -279.4820
   2   2.0000     -10.200389      -277.5667
   3   2.0000     -10.196369      -277.4573
   4   2.0000      -1.076538       -29.2941
   5   2.0000      -0.804274       -21.8854
   6   2.0000      -0.664490       -18.0817
   7   2.0000      -0.549731       -14.9589
   8   2.0000      -0.521476       -14.1901
   9   2.0000      -0.452196       -12.3049
  10   2.0000      -0.442346       -12.0368
  11   2.0000      -0.407147       -11.0790
  12   2.0000      -0.395624       -10.7655
  13   2.0000      -0.289899        -7.8886
  14   2.0000      -0.252418        -6.8687
  15   0.0000      -0.056598        -1.5401
  16   0.0000       0.040754         1.1090
  17   0.0000       0.078627         2.1395
  18   0.0000       0.103541         2.8175
  19   0.0000       0.128640         3.5005

MULLIKEN ATOMIC CHARGES
-----------------------
   0 C :    0.173626
   1 O :   -0.146088
   2 C :   -0.106793
   3 C :    0.140032
   4 H :   -0.045198
   5 H :   -0.011251
   6 H :    0.006052
   7 H :   -0.010379
Sum of atomic charges:   -0.0000000

LOEWDIN ATOMIC CHARGES
----------------------
   0 C :   -0.072804
   1 O :    0.050612
   2 C :   -0.056603
   3 C :    0.046872
   4 H :   -0.015976
   5 H :    0.028453
   6 H :    0.016048
   7 H :    0.003399

  Mayer bond orders larger than 0.100000
B(  0-C ,  1-O ) :   2.2539 B(  0-C ,  2-C ) :   1.0371 B(  0-C ,  4-H ) :   0.8999
B(  2-C ,  3-C ) :   1.9861 B(  2-C ,  5-H ) :   0.9384 B(  3-C ,  6-H ) :   0.9483
B(  3-C ,  7-H ) :   0.9468

-----------------------------------------------------------------------------
         ABSORPTION SPECTRUM VIA TRANSITION ELECTRIC DIPOLE MOMENTS
-----------------------------------------------------------------------------
State   Energy    Wavelength  fosc         T2        TX        TY        TZ
        (cm-1)      (nm)                 (au**2)    (au)      (au)      (au)
-----------------------------------------------------------------------------
   1   30703.8    325.7   0.002769036   0.02969   0.17213   0.00622   0.00463

FINAL SINGLE POINT ENERGY      -191.642901446627

DIPOLE MOMENT
-------------
                                X             Y             Z
Electronic contribution:     -1.95943      -1.78522      -0.57684
Nuclear contribution   :      2.47401       2.57577       0.81290
                        -----------------------------------------
Total Dipole Moment    :      0.51458       0.79056       0.23606
                        -----------------------------------------
Magnitude (a.u.)       :      0.97237
Magnitude (Debye)      :      2.47157

Rotational constants in cm-1:     0.863833     0.199205     0.165987
Rotational constants in MHz : 25897.068906  5972.028349  4976.164896

                             ****ORCA TERMINATED NORMALLY****
TOTAL RUN TIME: 0 days 0 hours 3 minutes 21 seconds 877 msec
