                         Program Version 5.0.3 -  RELEASE  -
|  1> ! B3LYP cc-pVDZ
|  2> !TightSCF
|  3> %scf
|  4>  ConvForced true
|  5>  convergence tight
|  6>  MaxIter 500
|  7> end
|  8>
|  9> %tddft
| 10>  nroots 1
| 11> end
| 12>
| 13> # 	15251
| 14> * xyz 0 1
| 15> 		C   -1.150366  -0.338850  -0.111250
| 16> 		O   -1.680937  -1.122134  -0.892312
| 17> 		C    0.029373   0.455893  -0.321409
| 18> 		C    1.138461   0.043672   0.212431
| 19> 		H   -1.560248  -0.268869   1.031452
| 20> 		H   -0.003310   1.430754  -0.785208
| 21> 		H    1.263336  -0.891681   0.800582
| 22> 		H    1.995492   0.704548   0.070600
| 23> *
| 24>
| 25>                          ****END OF INPUT****

CARTESIAN COORDINATES (ANGSTROEM)
---------------------------------
  C     -1.150366   -0.338850   -0.111250
  O     -1.680937   -1.122134   -0.892312
  C      0.029373    0.455893   -0.321409
  C      1.138461    0.043672    0.212431
  H     -1.560248   -0.268869    1.031452
  H     -0.003310    1.430754   -0.785208
  H      1.263336   -0.891681    0.800582
  H      1.995492    0.704548    0.070600

 Total Charge           Charge          ....    0
 Multiplicity           Mult            ....    1
 Number of Electrons    NEL             ....   30
 Basis Dimension        Dim             ....   76

ORBITAL ENERGIES
----------------

  NO   OCC          E(Eh)            E(eV)
   0   2.0000     -19.147700      -521.0354
   1   2.0000     -10.287950      -279.9493
   2   2.0000     -10.205247      -277.6989
   3   2.0000     -10.203162      -277.6421
   4   2.0000      -1.043321       -28.3902
   5   2.0000      -0.817069       -22.2336
   6   2.0000      -0.650828       -17.7099
   7   2.0000      -0.555727       -15.1221
   8   2.0000      -0.490622       -13.3505
   9   2.0000      -0.461534       -12.5590
  10   2.0000      -0.442478       -12.0405
  11   2.0000      -0.391833       -10.6623
  12   2.0000      -0.372268       -10.1299
  13   2.0000      -0.294350        -8.0097
  14   2.0000      -0.256125        -6.9695
  15   0.0000      -0.042839        -1.1657
  16   0.0000      -0.004457        -0.1213
  17   0.0000       0.080501         2.1905
  18   0.0000       0.087327         2.3763
  19   0.0000       0.094679         2.5763

MULLIKEN ATOMIC CHARGES
-----------------------
   0 C :    0.138111
   1 O :   -0.186552
   2 C :   -0.037104
   3 C :    0.024901
   4 H :   -0.004644
   5 H :    0.011493
   6 H :    0.028580
   7 H :    0.025214
Sum of atomic charges:    0.0000000

LOEWDIN ATOMIC CHARGES
----------------------
   0 C :   -0.022136
   1 O :   -0.004255
   2 C :   -0.064031
   3 C :   -0.019426
   4 H :    0.000434
   5 H :    0.040805
   6 H :    0.034505
   7 H :    0.034103

  Mayer bond orders larger than 0.100000
B(  0-C ,  1-O ) :   2.2185 B(  0-C ,  2-C ) :   0.9928 B(  0-C ,  4-H ) :   0.8944
B(  2-C ,  3-C ) :   2.0447 B(  2-C ,  5-H ) :   0.9306 B(  3-C ,  6-H ) :   0.9474
B(  3-C ,  7-H ) :   0.9345

-----------------------------------------------------------------------------
         ABSORPTION SPECTRUM VIA TRANSITION ELECTRIC DIPOLE MOMENTS
-----------------------------------------------------------------------------
State   Energy    Wavelength  fosc         T2        TX        TY        TZ
        (cm-1)      (nm)                 (au**2)    (au)      (au)      (au)
-----------------------------------------------------------------------------
   1   32037.5    312.1   0.000175031   0.00180  -0.01326  -0.02402   0.03234

FINAL SINGLE POINT ENERGY      -191.640444235380

DIPOLE MOMENT
-------------
                                X             Y             Z
Electronic contribution:     -2.60972      -1.23071      -1.61338
Nuclear contribution   :      3.24390       1.90859       2.09656
                        -----------------------------------------
Total Dipole Moment    :      0.63418       0.67788       0.48318
                        -----------------------------------------
Magnitude (a.u.)       :      1.04650
Magnitude (Debye)      :      2.65999

Rotational constants in cm-1:     1.050289     0.169175     0.162739
Rotational constants in MHz : 31486.861058  5071.725341  4878.778469

                             ****ORCA TERMINATED NORMALLY****
TOTAL RUN TIME: 0 days 0 hours 3 minutes 21 seconds 510 msec
