                         Program Version 5.0.3 -  RELEASE  -
|  1> ! B3LYP cc-pVDZ
|  2> !TightSCF
|  3> %scf
|  4>  ConvForced true
|  5>  convergence tight
|  6>  MaxIter 500
|  7> end
|  8>
|  9> %tddft
| 10>  nroots 1
| 11> end
| 12>
| 13> # 	8844
| 14> * xyz 0 1
| 15> 		C   -1.186183  -0.387043   0.068274
| 16> 		O   -1.384114  -1.450986   0.465727
| 17> 		C   -0.010606   0.445738   0.143651
| 18> 		C    1.191315  -0.000663  -0.088849
| 19> 		H   -2.092739   0.033340  -0.607593
| 20> 		H    0.009790   1.530702   0.292336
| 21> 		H    1.413204  -1.017042  -0.205186
| 22> 		H    2.038302   0.800659  -0.034532
| 23> *
| 24>
| 25>                          ****END OF INPUT****

CARTESIAN COORDINATES (ANGSTROEM)
---------------------------------
  C     -1.186183   -0.387043    0.068274
  O     -1.384114   -1.450986    0.465727
  C     -0.010606    0.445738    0.143651
  C      1.191315   -0.000663   -0.088849
  H     -2.092739    0.033340   -0.607593
  H      0.009790    1.530702    0.292336
  H      1.413204   -1.017042   -0.205186
  H      2.038302    0.800659   -0.034532

 Total Charge           Charge          ....    0
 Multiplicity           Mult            ....    1
 Number of Electrons    NEL             ....   30
 Basis Dimension        Dim             ....   76

ORBITAL ENERGIES
----------------

  NO   OCC          E(Eh)            E(eV)
   0   2.0000     -19.142241      -520.8869
   1   2.0000     -10.279218      -279.7118
   2   2.0000     -10.210162      -277.8326
   3   2.0000     -10.201858      -277.6067
   4   2.0000      -1.084345       -29.5065
   5   2.0000      -0.811530       -22.0829
   6   2.0000      -0.651047       -17.7159
   7   2.0000      -0.546317       -14.8660
   8   2.0000      -0.511155       -13.9092
   9   2.0000      -0.454901       -12.3785
  10   2.0000      -0.444865       -12.1054
  11   2.0000      -0.401849       -10.9349
  12   2.0000      -0.383152       -10.4261
  13   2.0000      -0.298523        -8.1232
  14   2.0000      -0.250748        -6.8232
  15   0.0000      -0.048219        -1.3121
  16   0.0000       0.029589         0.8052
  17   0.0000       0.067987         1.8500
  18   0.0000       0.095726         2.6048
  19   0.0000       0.112378         3.0580

MULLIKEN ATOMIC CHARGES
-----------------------
   0 C :    0.140776
   1 O :   -0.127781
   2 C :   -0.063020
   3 C :    0.040911
   4 H :   -0.042860
   5 H :    0.000584
   6 H :    0.010048
   7 H :    0.041342
Sum of atomic charges:    0.0000000

LOEWDIN ATOMIC CHARGES
----------------------
   0 C :   -0.077434
   1 O :    0.059289
   2 C :   -0.080738
   3 C :    0.007178
   4 H :   -0.016957
   5 H :    0.042318
   6 H :    0.016444
   7 H :    0.049899

  Mayer bond orders larger than 0.100000
B(  0-C ,  1-O ) :   2.2853 B(  0-C ,  2-C ) :   0.9917 B(  0-C ,  4-H ) :   0.8905
B(  2-C ,  3-C ) :   2.0147 B(  2-C ,  5-H ) :   0.9299 B(  3-C ,  6-H ) :   0.9464
B(  3-C ,  7-H ) :   0.9369

-----------------------------------------------------------------------------
         ABSORPTION SPECTRUM VIA TRANSITION ELECTRIC DIPOLE MOMENTS
-----------------------------------------------------------------------------
State   Energy    Wavelength  fosc         T2        TX        TY        TZ
        (cm-1)      (nm)                 (au**2)    (au)      (au)      (au)
-----------------------------------------------------------------------------
   1   31701.5    315.4   0.002040503   0.02119   0.14245  -0.00286  -0.02984

FINAL SINGLE POINT ENERGY      -191.636135187488

DIPOLE MOMENT
-------------
                                X             Y             Z
Electronic contribution:     -2.12003      -1.92575       0.87489
Nuclear contribution   :      2.66330       2.66476      -1.07624
                        -----------------------------------------
Total Dipole Moment    :      0.54326       0.73901      -0.20135
                        -----------------------------------------
Magnitude (a.u.)       :      0.93905
Magnitude (Debye)      :      2.38686

Rotational constants in cm-1:     0.926054     0.191678     0.163809
Rotational constants in MHz : 27762.389282  5746.367407  4910.875591

                             ****ORCA TERMINATED NORMALLY****
TOTAL RUN TIME: 0 days 0 hours 3 minutes 27 seconds 971 msec
