                         Program Version 5.0.3 -  RELEASE  -
|  1> ! HF-3c
|  2> !TightSCF
|  3> %scf
|  4>  ConvForced true
|  5>  convergence tight
|  6>  MaxIter 500
|  7> end
|  8>
|  9> %tddft
| 10>  nroots 1
| 11> end
| 12>
| 13> # 	7857
| 14> * xyz 0 1
| 15> 		C   -1.128824  -0.385050   0.053270
| 16> 		O   -2.024007  -0.402091   0.966037
| 17> 		C    0.038233   0.401657   0.236164
| 18> 		C    1.166216   0.152793  -0.379005
| 19> 		H   -1.265041  -0.869145  -0.824133
| 20> 		H   -0.010618   1.241156   1.035145
| 21> 		H    1.262558  -0.777053  -0.983245
| 22> 		H    1.983020   0.661887  -0.125967
| 23> *
| 24>
| 25>                          ****END OF INPUT****

CARTESIAN COORDINATES (ANGSTROEM)
---------------------------------
  C     -1.128824   -0.385050    0.053270
  O     -2.024007   -0.402091    0.966037
  C      0.038233    0.401657    0.236164
  C      1.166216    0.152793   -0.379005
  H     -1.265041   -0.869145   -0.824133
  H     -0.010618    1.241156    1.035145
  H      1.262558   -0.777053   -0.983245
  H      1.983020    0.661887   -0.125967

 Total Charge           Charge          ....    0
 Multiplicity           Mult            ....    1
 Number of Electrons    NEL             ....   30
 Basis Dimension        Dim             ....   24

ORBITAL ENERGIES
----------------

  NO   OCC          E(Eh)            E(eV)
   0   2.0000     -20.354705      -553.8797
   1   2.0000     -11.288610      -307.1787
   2   2.0000     -11.200969      -304.7939
   3   2.0000     -11.194851      -304.6274
   4   2.0000      -1.361231       -37.0410
   5   2.0000      -1.105722       -30.0882
   6   2.0000      -0.909702       -24.7542
   7   2.0000      -0.789207       -21.4754
   8   2.0000      -0.672481       -18.2991
   9   2.0000      -0.664661       -18.0863
  10   2.0000      -0.573711       -15.6115
  11   2.0000      -0.540257       -14.7012
  12   2.0000      -0.516999       -14.0683
  13   2.0000      -0.429977       -11.7003
  14   2.0000      -0.394412       -10.7325
  15   0.0000       0.115514         3.1433
  16   0.0000       0.293547         7.9878
  17   0.0000       0.542868        14.7722
  18   0.0000       0.629201        17.1214
  19   0.0000       0.680741        18.5239

MULLIKEN ATOMIC CHARGES
-----------------------
   0 C :    0.121713
   1 O :   -0.324893
   2 C :   -0.152936
   3 C :   -0.247844
   4 H :    0.145683
   5 H :    0.164645
   6 H :    0.147873
   7 H :    0.145760
Sum of atomic charges:   -0.0000000

LOEWDIN ATOMIC CHARGES
----------------------
   0 C :    0.129715
   1 O :   -0.251671
   2 C :   -0.107633
   3 C :   -0.146652
   4 H :    0.075549
   5 H :    0.113692
   6 H :    0.099293
   7 H :    0.087706

  Mayer bond orders larger than 0.100000
B(  0-C ,  1-O ) :   1.8826 B(  0-C ,  2-C ) :   1.0660 B(  0-C ,  4-H ) :   0.9398
B(  2-C ,  3-C ) :   1.9352 B(  2-C ,  5-H ) :   0.9454 B(  3-C ,  6-H ) :   0.9613
B(  3-C ,  7-H ) :   0.9663

-----------------------------------------------------------------------------
         ABSORPTION SPECTRUM VIA TRANSITION ELECTRIC DIPOLE MOMENTS
-----------------------------------------------------------------------------
State   Energy    Wavelength  fosc         T2        TX        TY        TZ
        (cm-1)      (nm)                 (au**2)    (au)      (au)      (au)
-----------------------------------------------------------------------------
   1   28282.4    353.6   0.000089442   0.00104   0.02973   0.00952  -0.00817

Dispersion correction           -0.025992547
FINAL SINGLE POINT ENERGY      -189.332748333949

DIPOLE MOMENT
-------------
                                X             Y             Z
Electronic contribution:     -2.94012      -0.44620       1.12847
Nuclear contribution   :      3.79979       0.51319      -1.73386
                        -----------------------------------------
Total Dipole Moment    :      0.85968       0.06699      -0.60539
                        -----------------------------------------
Magnitude (a.u.)       :      1.05358
Magnitude (Debye)      :      2.67798

Rotational constants in cm-1:     1.493033     0.160263     0.147471
Rotational constants in MHz : 44759.997155  4804.574045  4421.057791

                             ****ORCA TERMINATED NORMALLY****
TOTAL RUN TIME: 0 days 0 hours 0 minutes 13 seconds 872 msec
