                         Program Version 5.0.3 -  RELEASE  -
|  1> ! HF-3c
|  2> !TightSCF
|  3> %scf
|  4>  ConvForced true
|  5>  convergence tight
|  6>  MaxIter 500
|  7> end
|  8>
|  9> %tddft
| 10>  nroots 1
| 11> end
| 12>
| 13> # 	12852
| 14> * xyz 0 1
| 15> 		C   -1.198349  -0.257112  -0.073140
| 16> 		O   -1.824490  -0.906294  -0.962234
| 17> 		C    0.058525   0.444428  -0.266462
| 18> 		C    1.200464   0.017312   0.126825
| 19> 		H   -1.629442  -0.436960   1.104334
| 20> 		H    0.108649   1.193241  -0.940877
| 21> 		H    1.195957  -0.640135   1.013534
| 22> 		H    2.035494   0.592733  -0.052289
| 23> *
| 24>
| 25>                          ****END OF INPUT****

CARTESIAN COORDINATES (ANGSTROEM)
---------------------------------
  C     -1.198349   -0.257112   -0.073140
  O     -1.824490   -0.906294   -0.962234
  C      0.058525    0.444428   -0.266462
  C      1.200464    0.017312    0.126825
  H     -1.629442   -0.436960    1.104334
  H      0.108649    1.193241   -0.940877
  H      1.195957   -0.640135    1.013534
  H      2.035494    0.592733   -0.052289

 Total Charge           Charge          ....    0
 Multiplicity           Mult            ....    1
 Number of Electrons    NEL             ....   30
 Basis Dimension        Dim             ....   24

ORBITAL ENERGIES
----------------

  NO   OCC          E(Eh)            E(eV)
   0   2.0000     -20.356680      -553.9334
   1   2.0000     -11.288082      -307.1643
   2   2.0000     -11.208360      -304.9950
   3   2.0000     -11.196588      -304.6747
   4   2.0000      -1.363431       -37.1008
   5   2.0000      -1.118489       -30.4356
   6   2.0000      -0.890887       -24.2423
   7   2.0000      -0.769717       -20.9451
   8   2.0000      -0.677306       -18.4304
   9   2.0000      -0.645641       -17.5688
  10   2.0000      -0.588341       -16.0096
  11   2.0000      -0.550678       -14.9847
  12   2.0000      -0.486675       -13.2431
  13   2.0000      -0.423653       -11.5282
  14   2.0000      -0.404056       -10.9949
  15   0.0000       0.151835         4.1316
  16   0.0000       0.231502         6.2995
  17   0.0000       0.480560        13.0767
  18   0.0000       0.618553        16.8317
  19   0.0000       0.681978        18.5576

MULLIKEN ATOMIC CHARGES
-----------------------
   0 C :    0.172896
   1 O :   -0.338411
   2 C :   -0.190033
   3 C :   -0.239205
   4 H :    0.137738
   5 H :    0.159664
   6 H :    0.147531
   7 H :    0.149820
Sum of atomic charges:   -0.0000000

LOEWDIN ATOMIC CHARGES
----------------------
   0 C :    0.152743
   1 O :   -0.260160
   2 C :   -0.126624
   3 C :   -0.143559
   4 H :    0.088489
   5 H :    0.097696
   6 H :    0.097864
   7 H :    0.093551

  Mayer bond orders larger than 0.100000
B(  0-C ,  1-O ) :   1.9333 B(  0-C ,  2-C ) :   1.0126 B(  0-C ,  4-H ) :   0.9095
B(  2-C ,  3-C ) :   1.9783 B(  2-C ,  5-H ) :   0.9466 B(  3-C ,  6-H ) :   0.9610
B(  3-C ,  7-H ) :   0.9616

-----------------------------------------------------------------------------
         ABSORPTION SPECTRUM VIA TRANSITION ELECTRIC DIPOLE MOMENTS
-----------------------------------------------------------------------------
State   Energy    Wavelength  fosc         T2        TX        TY        TZ
        (cm-1)      (nm)                 (au**2)    (au)      (au)      (au)
-----------------------------------------------------------------------------
   1   30957.1    323.0   0.000118496   0.00126  -0.00644  -0.02105   0.02785

Dispersion correction           -0.025534432
FINAL SINGLE POINT ENERGY      -189.300699542515

DIPOLE MOMENT
-------------
                                X             Y             Z
Electronic contribution:     -2.72765      -0.90185      -1.40040
Nuclear contribution   :      3.37466       1.41285       2.17102
                        -----------------------------------------
Total Dipole Moment    :      0.64701       0.51100       0.77062
                        -----------------------------------------
Magnitude (a.u.)       :      1.12854
Magnitude (Debye)      :      2.86852

Rotational constants in cm-1:     1.130722     0.159341     0.157504
Rotational constants in MHz : 33898.188195  4776.935236  4721.858674

                             ****ORCA TERMINATED NORMALLY****
TOTAL RUN TIME: 0 days 0 hours 0 minutes 12 seconds 800 msec
