                         Program Version 5.0.3 -  RELEASE  -
|  1> ! HF-3c
|  2> !TightSCF
|  3> %scf
|  4>  ConvForced true
|  5>  convergence tight
|  6>  MaxIter 500
|  7> end
|  8>
|  9> %tddft
| 10>  nroots 1
| 11> end
| 12>
| 13> # 	27997
| 14> * xyz 0 1
| 15> 		C   -0.574613  -0.421023  -0.062823
| 16> 		O   -0.583507  -1.640586   0.031861
| 17> 		C    0.644051   0.390451   0.042261
| 18> 		C    1.804832  -0.104945  -0.010896
| 19> 		H   -1.452894   0.171861  -0.035096
| 20> 		H    0.490154   1.444517   0.060668
| 21> 		H    1.917412  -1.190477  -0.169772
| 22> 		H    2.932920   0.484676   0.020800
| 23> *
| 24>
| 25>                          ****END OF INPUT****

CARTESIAN COORDINATES (ANGSTROEM)
---------------------------------
  C     -0.574613   -0.421023   -0.062823
  O     -0.583507   -1.640586    0.031861
  C      0.644051    0.390451    0.042261
  C      1.804832   -0.104945   -0.010896
  H     -1.452894    0.171861   -0.035096
  H      0.490154    1.444517    0.060668
  H      1.917412   -1.190477   -0.169772
  H      2.932920    0.484676    0.020800

 Total Charge           Charge          ....    0
 Multiplicity           Mult            ....    1
 Number of Electrons    NEL             ....   30
 Basis Dimension        Dim             ....   24

ORBITAL ENERGIES
----------------

  NO   OCC          E(Eh)            E(eV)
   0   2.0000     -20.363911      -554.1302
   1   2.0000     -11.294630      -307.3425
   2   2.0000     -11.191581      -304.5384
   3   2.0000     -11.186115      -304.3897
   4   2.0000      -1.393727       -37.9253
   5   2.0000      -1.095909       -29.8212
   6   2.0000      -0.895462       -24.3668
   7   2.0000      -0.741694       -20.1825
   8   2.0000      -0.704463       -19.1694
   9   2.0000      -0.618416       -16.8280
  10   2.0000      -0.583058       -15.8658
  11   2.0000      -0.542384       -14.7590
  12   2.0000      -0.504268       -13.7218
  13   2.0000      -0.416134       -11.3236
  14   2.0000      -0.406866       -11.0714
  15   0.0000       0.138975         3.7817
  16   0.0000       0.325553         8.8587
  17   0.0000       0.450019        12.2456
  18   0.0000       0.612752        16.6738
  19   0.0000       0.665191        18.1008

MULLIKEN ATOMIC CHARGES
-----------------------
   0 C :    0.161938
   1 O :   -0.347725
   2 C :   -0.209264
   3 C :   -0.191178
   4 H :    0.138468
   5 H :    0.142526
   6 H :    0.151825
   7 H :    0.153410
Sum of atomic charges:    0.0000000

LOEWDIN ATOMIC CHARGES
----------------------
   0 C :    0.151079
   1 O :   -0.257556
   2 C :   -0.161566
   3 C :   -0.105882
   4 H :    0.071268
   5 H :    0.089200
   6 H :    0.098917
   7 H :    0.114539

  Mayer bond orders larger than 0.100000
B(  0-C ,  1-O ) :   1.9081 B(  0-C ,  2-C ) :   1.0200 B(  0-C ,  4-H ) :   0.9306
B(  2-C ,  3-C ) :   1.9587 B(  2-C ,  5-H ) :   0.9541 B(  3-C ,  6-H ) :   0.9543
B(  3-C ,  7-H ) :   0.9534

-----------------------------------------------------------------------------
         ABSORPTION SPECTRUM VIA TRANSITION ELECTRIC DIPOLE MOMENTS
-----------------------------------------------------------------------------
State   Energy    Wavelength  fosc         T2        TX        TY        TZ
        (cm-1)      (nm)                 (au**2)    (au)      (au)      (au)
-----------------------------------------------------------------------------
   1   32136.4    311.2   0.000073368   0.00075   0.02637   0.00101  -0.00743

Dispersion correction           -0.026045236
FINAL SINGLE POINT ENERGY      -189.318229268444

DIPOLE MOMENT
-------------
                                X             Y             Z
Electronic contribution:     -2.06105      -1.71640       0.03170
Nuclear contribution   :      2.48983       2.64156      -0.11580
                        -----------------------------------------
Total Dipole Moment    :      0.42878       0.92516      -0.08411
                        -----------------------------------------
Magnitude (a.u.)       :      1.02316
Magnitude (Debye)      :      2.60066

Rotational constants in cm-1:     0.799874     0.210166     0.166834
Rotational constants in MHz : 23979.620834  6300.611949  5001.542970

                             ****ORCA TERMINATED NORMALLY****
TOTAL RUN TIME: 0 days 0 hours 0 minutes 11 seconds 320 msec
