                         Program Version 5.0.3 -  RELEASE  -
|  1> ! HF-3c
|  2> !TightSCF
|  3> %scf
|  4>  ConvForced true
|  5>  convergence tight
|  6>  MaxIter 500
|  7> end
|  8>
|  9> %tddft
| 10>  nroots 1
| 11> end
| 12>
| 13> # 	9217
| 14> * xyz 0 1
| 15> 		C   -1.153435  -0.434599  -0.002572
| 16> 		O   -2.130897  -0.521629  -0.874273
| 17> 		C    0.061944   0.222532  -0.371290
| 18> 		C    1.172177   0.077176   0.226634
| 19> 		H   -1.226111  -0.719260   1.074498
| 20> 		H    0.011688   0.923130  -1.250178
| 21> 		H    1.286368  -0.353893   1.042163
| 22> 		H    1.971998   0.781585   0.109286
| 23> *
| 24>
| 25>                          ****END OF INPUT****

CARTESIAN COORDINATES (ANGSTROEM)
---------------------------------
  C     -1.153435   -0.434599   -0.002572
  O     -2.130897   -0.521629   -0.874273
  C      0.061944    0.222532   -0.371290
  C      1.172177    0.077176    0.226634
  H     -1.226111   -0.719260    1.074498
  H      0.011688    0.923130   -1.250178
  H      1.286368   -0.353893    1.042163
  H      1.971998    0.781585    0.109286

 Total Charge           Charge          ....    0
 Multiplicity           Mult            ....    1
 Number of Electrons    NEL             ....   30
 Basis Dimension        Dim             ....   24

ORBITAL ENERGIES
----------------

  NO   OCC          E(Eh)            E(eV)
   0   2.0000     -20.353523      -553.8475
   1   2.0000     -11.283792      -307.0476
   2   2.0000     -11.211990      -305.0938
   3   2.0000     -11.200096      -304.7701
   4   2.0000      -1.340187       -36.4683
   5   2.0000      -1.123942       -30.5840
   6   2.0000      -0.913234       -24.8504
   7   2.0000      -0.794176       -21.6106
   8   2.0000      -0.681925       -18.5561
   9   2.0000      -0.662457       -18.0264
  10   2.0000      -0.572470       -15.5777
  11   2.0000      -0.542762       -14.7693
  12   2.0000      -0.508388       -13.8339
  13   2.0000      -0.427632       -11.6364
  14   2.0000      -0.404417       -11.0047
  15   0.0000       0.107590         2.9277
  16   0.0000       0.293072         7.9749
  17   0.0000       0.547774        14.9057
  18   0.0000       0.587407        15.9842
  19   0.0000       0.676489        18.4082

MULLIKEN ATOMIC CHARGES
-----------------------
   0 C :    0.136135
   1 O :   -0.319447
   2 C :   -0.154025
   3 C :   -0.274450
   4 H :    0.149471
   5 H :    0.167164
   6 H :    0.139371
   7 H :    0.155781
Sum of atomic charges:    0.0000000

LOEWDIN ATOMIC CHARGES
----------------------
   0 C :    0.138669
   1 O :   -0.253387
   2 C :   -0.099449
   3 C :   -0.166731
   4 H :    0.088448
   5 H :    0.112305
   6 H :    0.077804
   7 H :    0.102341

  Mayer bond orders larger than 0.100000
B(  0-C ,  1-O ) :   1.8921 B(  0-C ,  2-C ) :   1.0567 B(  0-C ,  4-H ) :   0.9301
B(  2-C ,  3-C ) :   1.9487 B(  2-C ,  5-H ) :   0.9430 B(  3-C ,  6-H ) :   0.9663
B(  3-C ,  7-H ) :   0.9579

-----------------------------------------------------------------------------
         ABSORPTION SPECTRUM VIA TRANSITION ELECTRIC DIPOLE MOMENTS
-----------------------------------------------------------------------------
State   Energy    Wavelength  fosc         T2        TX        TY        TZ
        (cm-1)      (nm)                 (au**2)    (au)      (au)      (au)
-----------------------------------------------------------------------------
   1   26727.2    374.2   0.000083724   0.00103   0.03170   0.00352   0.00378

Dispersion correction           -0.025955303
FINAL SINGLE POINT ENERGY      -189.314205687550

DIPOLE MOMENT
-------------
                                X             Y             Z
Electronic contribution:     -3.13276      -0.94017      -1.24390
Nuclear contribution   :      3.97348       1.21172       1.89521
                        -----------------------------------------
Total Dipole Moment    :      0.84072       0.27155       0.65131
                        -----------------------------------------
Magnitude (a.u.)       :      1.09761
Magnitude (Debye)      :      2.78991

Rotational constants in cm-1:     1.591662     0.156855     0.144452
Rotational constants in MHz : 47716.816146  4702.398474  4330.568896

                             ****ORCA TERMINATED NORMALLY****
TOTAL RUN TIME: 0 days 0 hours 0 minutes 13 seconds 505 msec
