                         Program Version 5.0.3 -  RELEASE  -
|  1> ! B3LYP cc-pVDZ
|  2> !TightSCF
|  3> %scf
|  4>  ConvForced true
|  5>  convergence tight
|  6>  MaxIter 500
|  7> end
|  8>
|  9> %tddft
| 10>  nroots 1
| 11> end
| 12>
| 13> # 	6247
| 14> * xyz 0 1
| 15> 		C   -1.200017  -0.377090   0.037975
| 16> 		O   -1.592234  -1.328449  -0.698423
| 17> 		C    0.022528   0.480986  -0.229525
| 18> 		C    1.207430   0.029245   0.096389
| 19> 		H   -1.691811  -0.013247   0.880120
| 20> 		H   -0.114235   1.415470  -0.659634
| 21> 		H    1.288787  -0.839250   0.599106
| 22> 		H    2.090444   0.593739   0.033667
| 23> *
| 24>
| 25>                          ****END OF INPUT****

CARTESIAN COORDINATES (ANGSTROEM)
---------------------------------
  C     -1.200017   -0.377090    0.037975
  O     -1.592234   -1.328449   -0.698423
  C      0.022528    0.480986   -0.229525
  C      1.207430    0.029245    0.096389
  H     -1.691811   -0.013247    0.880120
  H     -0.114235    1.415470   -0.659634
  H      1.288787   -0.839250    0.599106
  H      2.090444    0.593739    0.033667

 Total Charge           Charge          ....    0
 Multiplicity           Mult            ....    1
 Number of Electrons    NEL             ....   30
 Basis Dimension        Dim             ....   76

ORBITAL ENERGIES
----------------

  NO   OCC          E(Eh)            E(eV)
   0   2.0000     -19.149991      -521.0978
   1   2.0000     -10.283713      -279.8340
   2   2.0000     -10.199624      -277.5459
   3   2.0000     -10.188407      -277.2406
   4   2.0000      -1.022619       -27.8269
   5   2.0000      -0.804383       -21.8884
   6   2.0000      -0.665253       -18.1025
   7   2.0000      -0.575250       -15.6533
   8   2.0000      -0.501848       -13.6560
   9   2.0000      -0.455268       -12.3885
  10   2.0000      -0.442250       -12.0342
  11   2.0000      -0.393167       -10.6986
  12   2.0000      -0.364832        -9.9276
  13   2.0000      -0.290313        -7.8998
  14   2.0000      -0.258294        -7.0285
  15   0.0000      -0.048319        -1.3148
  16   0.0000      -0.004824        -0.1313
  17   0.0000       0.086111         2.3432
  18   0.0000       0.106884         2.9085
  19   0.0000       0.112219         3.0536

MULLIKEN ATOMIC CHARGES
-----------------------
   0 C :    0.210909
   1 O :   -0.219468
   2 C :   -0.089601
   3 C :    0.113719
   4 H :   -0.000253
   5 H :   -0.010010
   6 H :   -0.015411
   7 H :    0.010115
Sum of atomic charges:   -0.0000000

LOEWDIN ATOMIC CHARGES
----------------------
   0 C :    0.036172
   1 O :   -0.034979
   2 C :   -0.039475
   3 C :   -0.004146
   4 H :   -0.009916
   5 H :    0.021976
   6 H :    0.007522
   7 H :    0.022845

  Mayer bond orders larger than 0.100000
B(  0-C ,  1-O ) :   2.1881 B(  0-C ,  2-C ) :   0.9846 B(  0-C ,  4-H ) :   0.9238
B(  2-C ,  3-C ) :   2.0575 B(  2-C ,  5-H ) :   0.9422 B(  3-C ,  6-H ) :   0.9400
B(  3-C ,  7-H ) :   0.9494

-----------------------------------------------------------------------------
         ABSORPTION SPECTRUM VIA TRANSITION ELECTRIC DIPOLE MOMENTS
-----------------------------------------------------------------------------
State   Energy    Wavelength  fosc         T2        TX        TY        TZ
        (cm-1)      (nm)                 (au**2)    (au)      (au)      (au)
-----------------------------------------------------------------------------
   1   30184.5    331.3   0.000039472   0.00043  -0.02002   0.00048   0.00545

FINAL SINGLE POINT ENERGY      -191.639364778264

DIPOLE MOMENT
-------------
                                X             Y             Z
Electronic contribution:     -2.58503      -1.50964      -1.01142
Nuclear contribution   :      3.03351       2.30799       1.56009
                        -----------------------------------------
Total Dipole Moment    :      0.44848       0.79835       0.54867
                        -----------------------------------------
Magnitude (a.u.)       :      1.06749
Magnitude (Debye)      :      2.71334

Rotational constants in cm-1:     0.936416     0.170492     0.157360
Rotational constants in MHz : 28073.059831  5111.226048  4717.530436

                             ****ORCA TERMINATED NORMALLY****
TOTAL RUN TIME: 0 days 0 hours 3 minutes 18 seconds 160 msec
