                         Program Version 5.0.3 -  RELEASE  -
|  1> ! HF-3c
|  2> !TightSCF
|  3> %scf
|  4>  ConvForced true
|  5>  convergence tight
|  6>  MaxIter 500
|  7> end
|  8>
|  9> %tddft
| 10>  nroots 1
| 11> end
| 12>
| 13> # 	13461
| 14> * xyz 0 1
| 15> 		C   -1.169115  -0.228593   0.152462
| 16> 		O   -1.190165  -1.438743  -0.089150
| 17> 		C    0.009382   0.678692  -0.004136
| 18> 		C    1.215743   0.035367   0.084029
| 19> 		H   -2.223961   0.067820   0.045999
| 20> 		H   -0.121364   1.664169  -0.289535
| 21> 		H    1.286827  -1.136871   0.258594
| 22> 		H    2.221273   0.440045  -0.179545
| 23> *
| 24>
| 25>                          ****END OF INPUT****

CARTESIAN COORDINATES (ANGSTROEM)
---------------------------------
  C     -1.169115   -0.228593    0.152462
  O     -1.190165   -1.438743   -0.089150
  C      0.009382    0.678692   -0.004136
  C      1.215743    0.035367    0.084029
  H     -2.223961    0.067820    0.045999
  H     -0.121364    1.664169   -0.289535
  H      1.286827   -1.136871    0.258594
  H      2.221273    0.440045   -0.179545

 Total Charge           Charge          ....    0
 Multiplicity           Mult            ....    1
 Number of Electrons    NEL             ....   30
 Basis Dimension        Dim             ....   24

ORBITAL ENERGIES
----------------

  NO   OCC          E(Eh)            E(eV)
   0   2.0000     -20.339953      -553.4783
   1   2.0000     -11.276459      -306.8480
   2   2.0000     -11.192484      -304.5630
   3   2.0000     -11.190974      -304.5219
   4   2.0000      -1.379469       -37.5373
   5   2.0000      -1.064375       -28.9631
   6   2.0000      -0.868933       -23.6449
   7   2.0000      -0.749915       -20.4062
   8   2.0000      -0.700826       -19.0704
   9   2.0000      -0.606551       -16.5051
  10   2.0000      -0.571861       -15.5611
  11   2.0000      -0.521664       -14.1952
  12   2.0000      -0.519053       -14.1241
  13   2.0000      -0.403020       -10.9667
  14   2.0000      -0.380955       -10.3663
  15   0.0000       0.131781         3.5859
  16   0.0000       0.278731         7.5847
  17   0.0000       0.507810        13.8182
  18   0.0000       0.580464        15.7952
  19   0.0000       0.632265        17.2048

MULLIKEN ATOMIC CHARGES
-----------------------
   0 C :    0.139688
   1 O :   -0.355066
   2 C :   -0.197668
   3 C :   -0.183749
   4 H :    0.144125
   5 H :    0.150481
   6 H :    0.160252
   7 H :    0.141938
Sum of atomic charges:   -0.0000000

LOEWDIN ATOMIC CHARGES
----------------------
   0 C :    0.129760
   1 O :   -0.270612
   2 C :   -0.147506
   3 C :   -0.092120
   4 H :    0.080686
   5 H :    0.093627
   6 H :    0.113156
   7 H :    0.093011

  Mayer bond orders larger than 0.100000
B(  0-C ,  1-O ) :   1.8908 B(  0-C ,  2-C ) :   1.0281 B(  0-C ,  4-H ) :   0.9393
B(  2-C ,  3-C ) :   1.9339 B(  2-C ,  5-H ) :   0.9599 B(  3-C ,  6-H ) :   0.9558
B(  3-C ,  7-H ) :   0.9652

-----------------------------------------------------------------------------
         ABSORPTION SPECTRUM VIA TRANSITION ELECTRIC DIPOLE MOMENTS
-----------------------------------------------------------------------------
State   Energy    Wavelength  fosc         T2        TX        TY        TZ
        (cm-1)      (nm)                 (au**2)    (au)      (au)      (au)
-----------------------------------------------------------------------------
   1   29329.0    341.0   0.000214866   0.00241   0.04107   0.01267   0.02376

Dispersion correction           -0.025436963
FINAL SINGLE POINT ENERGY      -189.324586007215

DIPOLE MOMENT
-------------
                                X             Y             Z
Electronic contribution:     -1.78488      -1.25011       0.27700
Nuclear contribution   :      2.22890       2.03477      -0.23619
                        -----------------------------------------
Total Dipole Moment    :      0.44402       0.78466       0.04081
                        -----------------------------------------
Magnitude (a.u.)       :      0.90250
Magnitude (Debye)      :      2.29398

Rotational constants in cm-1:     0.715973     0.211077     0.164989
Rotational constants in MHz : 21464.344334  6327.941844  4946.250647

                             ****ORCA TERMINATED NORMALLY****
TOTAL RUN TIME: 0 days 0 hours 0 minutes 16 seconds 40 msec
