                         Program Version 5.0.3 -  RELEASE  -
|  1> ! B3LYP cc-pVDZ
|  2> !TightSCF
|  3> %scf
|  4>  ConvForced true
|  5>  convergence tight
|  6>  MaxIter 500
|  7> end
|  8>
|  9> %tddft
| 10>  nroots 1
| 11> end
| 12>
| 13> # 	6812
| 14> * xyz 0 1
| 15> 		C   -1.222812  -0.267203  -0.091514
| 16> 		O   -1.642120  -0.993669  -0.933274
| 17> 		C    0.062611   0.542046  -0.128574
| 18> 		C    1.215599   0.006682   0.257478
| 19> 		H   -1.710785  -0.360001   0.925091
| 20> 		H   -0.101324   1.496508  -0.630022
| 21> 		H    1.304719  -1.026851   0.520410
| 22> 		H    2.093777   0.562371   0.127944
| 23> *
| 24>
| 25>                          ****END OF INPUT****

CARTESIAN COORDINATES (ANGSTROEM)
---------------------------------
  C     -1.222812   -0.267203   -0.091514
  O     -1.642120   -0.993669   -0.933274
  C      0.062611    0.542046   -0.128574
  C      1.215599    0.006682    0.257478
  H     -1.710785   -0.360001    0.925091
  H     -0.101324    1.496508   -0.630022
  H      1.304719   -1.026851    0.520410
  H      2.093777    0.562371    0.127944

 Total Charge           Charge          ....    0
 Multiplicity           Mult            ....    1
 Number of Electrons    NEL             ....   30
 Basis Dimension        Dim             ....   76

ORBITAL ENERGIES
----------------

  NO   OCC          E(Eh)            E(eV)
   0   2.0000     -19.145228      -520.9681
   1   2.0000     -10.279518      -279.7199
   2   2.0000     -10.208788      -277.7952
   3   2.0000     -10.200499      -277.5697
   4   2.0000      -1.063684       -28.9443
   5   2.0000      -0.795994       -21.6601
   6   2.0000      -0.648878       -17.6569
   7   2.0000      -0.557027       -15.1575
   8   2.0000      -0.490676       -13.3520
   9   2.0000      -0.467017       -12.7082
  10   2.0000      -0.444849       -12.1050
  11   2.0000      -0.397703       -10.8220
  12   2.0000      -0.383462       -10.4345
  13   2.0000      -0.288042        -7.8380
  14   2.0000      -0.251032        -6.8309
  15   0.0000      -0.030729        -0.8362
  16   0.0000      -0.010040        -0.2732
  17   0.0000       0.085081         2.3152
  18   0.0000       0.095685         2.6037
  19   0.0000       0.103414         2.8140

MULLIKEN ATOMIC CHARGES
-----------------------
   0 C :    0.140353
   1 O :   -0.159351
   2 C :   -0.100329
   3 C :    0.077668
   4 H :   -0.015612
   5 H :    0.018367
   6 H :    0.019981
   7 H :    0.018923
Sum of atomic charges:    0.0000000

LOEWDIN ATOMIC CHARGES
----------------------
   0 C :   -0.035155
   1 O :    0.028666
   2 C :   -0.052584
   3 C :   -0.016414
   4 H :   -0.009788
   5 H :    0.034734
   6 H :    0.027702
   7 H :    0.022839

  Mayer bond orders larger than 0.100000
B(  0-C ,  1-O ) :   2.2571 B(  0-C ,  2-C ) :   0.9622 B(  0-C ,  4-H ) :   0.9097
B(  2-C ,  3-C ) :   2.0464 B(  2-C ,  5-H ) :   0.9385 B(  3-C ,  6-H ) :   0.9443
B(  3-C ,  7-H ) :   0.9449

-----------------------------------------------------------------------------
         ABSORPTION SPECTRUM VIA TRANSITION ELECTRIC DIPOLE MOMENTS
-----------------------------------------------------------------------------
State   Energy    Wavelength  fosc         T2        TX        TY        TZ
        (cm-1)      (nm)                 (au**2)    (au)      (au)      (au)
-----------------------------------------------------------------------------
   1   33398.5    299.4   0.000467930   0.00461   0.02925   0.02192  -0.05724

FINAL SINGLE POINT ENERGY      -191.636865457644

DIPOLE MOMENT
-------------
                                X             Y             Z
Electronic contribution:     -2.56867      -0.89373      -1.32612
Nuclear contribution   :      3.07735       1.41136       1.78060
                        -----------------------------------------
Total Dipole Moment    :      0.50868       0.51763       0.45448
                        -----------------------------------------
Magnitude (a.u.)       :      0.85630
Magnitude (Debye)      :      2.17654

Rotational constants in cm-1:     0.987163     0.166936     0.157686
Rotational constants in MHz : 29594.391532  5004.609722  4727.311915

                             ****ORCA TERMINATED NORMALLY****
TOTAL RUN TIME: 0 days 0 hours 3 minutes 8 seconds 748 msec
