                         Program Version 5.0.3 -  RELEASE  -
|  1> ! B3LYP cc-pVDZ
|  2> !TightSCF
|  3> %scf
|  4>  ConvForced true
|  5>  convergence tight
|  6>  MaxIter 500
|  7> end
|  8>
|  9> %tddft
| 10>  nroots 1
| 11> end
| 12>
| 13> # 	6653
| 14> * xyz 0 1
| 15> 		C   -1.160922  -0.289229   0.036125
| 16> 		O   -1.702416  -0.886018   0.968611
| 17> 		C    0.090372   0.415927   0.233091
| 18> 		C    1.216119   0.083278  -0.210392
| 19> 		H   -1.664864  -0.283502  -1.088607
| 20> 		H   -0.025738   1.224030   0.961860
| 21> 		H    1.257525  -0.799406  -0.864857
| 22> 		H    2.038985   0.547968  -0.067290
| 23> *
| 24>
| 25>                          ****END OF INPUT****

CARTESIAN COORDINATES (ANGSTROEM)
---------------------------------
  C     -1.160922   -0.289229    0.036125
  O     -1.702416   -0.886018    0.968611
  C      0.090372    0.415927    0.233091
  C      1.216119    0.083278   -0.210392
  H     -1.664864   -0.283502   -1.088607
  H     -0.025738    1.224030    0.961860
  H      1.257525   -0.799406   -0.864857
  H      2.038985    0.547968   -0.067290

 Total Charge           Charge          ....    0
 Multiplicity           Mult            ....    1
 Number of Electrons    NEL             ....   30
 Basis Dimension        Dim             ....   76

ORBITAL ENERGIES
----------------

  NO   OCC          E(Eh)            E(eV)
   0   2.0000     -19.147523      -521.0306
   1   2.0000     -10.289757      -279.9985
   2   2.0000     -10.197975      -277.5010
   3   2.0000     -10.186528      -277.1895
   4   2.0000      -1.042299       -28.3624
   5   2.0000      -0.819807       -22.3081
   6   2.0000      -0.662170       -18.0185
   7   2.0000      -0.553949       -15.0737
   8   2.0000      -0.502894       -13.6844
   9   2.0000      -0.475335       -12.9345
  10   2.0000      -0.439112       -11.9488
  11   2.0000      -0.392676       -10.6853
  12   2.0000      -0.365219        -9.9381
  13   2.0000      -0.301884        -8.2147
  14   2.0000      -0.258015        -7.0209
  15   0.0000      -0.048711        -1.3255
  16   0.0000       0.015408         0.4193
  17   0.0000       0.078899         2.1469
  18   0.0000       0.092212         2.5092
  19   0.0000       0.099153         2.6981

MULLIKEN ATOMIC CHARGES
-----------------------
   0 C :    0.118556
   1 O :   -0.195201
   2 C :   -0.082525
   3 C :    0.169896
   4 H :    0.003691
   5 H :    0.012744
   6 H :    0.006970
   7 H :   -0.034132
Sum of atomic charges:   -0.0000000

LOEWDIN ATOMIC CHARGES
----------------------
   0 C :   -0.010987
   1 O :   -0.010655
   2 C :   -0.061579
   3 C :    0.003429
   4 H :    0.004236
   5 H :    0.044700
   6 H :    0.036393
   7 H :   -0.005537

  Mayer bond orders larger than 0.100000
B(  0-C ,  1-O ) :   2.1854 B(  0-C ,  2-C ) :   1.0046 B(  0-C ,  4-H ) :   0.8931
B(  2-C ,  3-C ) :   2.0631 B(  2-C ,  5-H ) :   0.9274 B(  3-C ,  6-H ) :   0.9306
B(  3-C ,  7-H ) :   0.9222

-----------------------------------------------------------------------------
         ABSORPTION SPECTRUM VIA TRANSITION ELECTRIC DIPOLE MOMENTS
-----------------------------------------------------------------------------
State   Energy    Wavelength  fosc         T2        TX        TY        TZ
        (cm-1)      (nm)                 (au**2)    (au)      (au)      (au)
-----------------------------------------------------------------------------
   1   31436.0    318.1   0.001701535   0.01782  -0.12745  -0.00745   0.03900

FINAL SINGLE POINT ENERGY      -191.624067056437

DIPOLE MOMENT
-------------
                                X             Y             Z
Electronic contribution:     -2.44291      -0.85748       1.45600
Nuclear contribution   :      3.08549       1.36981      -1.99624
                        -----------------------------------------
Total Dipole Moment    :      0.64258       0.51233      -0.54024
                        -----------------------------------------
Magnitude (a.u.)       :      0.98349
Magnitude (Debye)      :      2.49984

Rotational constants in cm-1:     1.142652     0.165202     0.163451
Rotational constants in MHz : 34255.839951  4952.621061  4900.147497

                             ****ORCA TERMINATED NORMALLY****
TOTAL RUN TIME: 0 days 0 hours 3 minutes 27 seconds 262 msec
