                         Program Version 5.0.3 -  RELEASE  -
|  1> ! B3LYP cc-pVDZ
|  2> !TightSCF
|  3> %scf
|  4>  ConvForced true
|  5>  convergence tight
|  6>  MaxIter 500
|  7> end
|  8>
|  9> %tddft
| 10>  nroots 1
| 11> end
| 12>
| 13> # 	5881
| 14> * xyz 0 1
| 15> 		C   -1.240828  -0.366426  -0.039715
| 16> 		O   -1.297776  -1.555179  -0.159130
| 17> 		C   -0.027299   0.515369  -0.049868
| 18> 		C    1.198451  -0.006837   0.040068
| 19> 		H   -2.163087   0.271734   0.354007
| 20> 		H    0.011571   1.590005  -0.106839
| 21> 		H    1.378232  -1.070041   0.094729
| 22> 		H    2.095243   0.563410  -0.096009
| 23> *
| 24>
| 25>                          ****END OF INPUT****

CARTESIAN COORDINATES (ANGSTROEM)
---------------------------------
  C     -1.240828   -0.366426   -0.039715
  O     -1.297776   -1.555179   -0.159130
  C     -0.027299    0.515369   -0.049868
  C      1.198451   -0.006837    0.040068
  H     -2.163087    0.271734    0.354007
  H      0.011571    1.590005   -0.106839
  H      1.378232   -1.070041    0.094729
  H      2.095243    0.563410   -0.096009

 Total Charge           Charge          ....    0
 Multiplicity           Mult            ....    1
 Number of Electrons    NEL             ....   30
 Basis Dimension        Dim             ....   76

ORBITAL ENERGIES
----------------

  NO   OCC          E(Eh)            E(eV)
   0   2.0000     -19.148185      -521.0486
   1   2.0000     -10.286800      -279.9181
   2   2.0000     -10.208392      -277.7845
   3   2.0000     -10.205230      -277.6984
   4   2.0000      -1.059765       -28.8377
   5   2.0000      -0.797408       -21.6986
   6   2.0000      -0.651820       -17.7369
   7   2.0000      -0.547524       -14.8989
   8   2.0000      -0.505012       -13.7421
   9   2.0000      -0.451774       -12.2934
  10   2.0000      -0.428915       -11.6714
  11   2.0000      -0.399060       -10.8590
  12   2.0000      -0.382697       -10.4137
  13   2.0000      -0.291543        -7.9333
  14   2.0000      -0.258501        -7.0342
  15   0.0000      -0.068601        -1.8667
  16   0.0000       0.051637         1.4051
  17   0.0000       0.071234         1.9384
  18   0.0000       0.090475         2.4619
  19   0.0000       0.117286         3.1915

MULLIKEN ATOMIC CHARGES
-----------------------
   0 C :    0.173693
   1 O :   -0.164897
   2 C :   -0.102899
   3 C :    0.069738
   4 H :   -0.017915
   5 H :   -0.009916
   6 H :    0.027937
   7 H :    0.024259
Sum of atomic charges:   -0.0000000

LOEWDIN ATOMIC CHARGES
----------------------
   0 C :   -0.042626
   1 O :    0.018699
   2 C :   -0.082943
   3 C :    0.030209
   4 H :   -0.008032
   5 H :    0.031305
   6 H :    0.026589
   7 H :    0.026799

  Mayer bond orders larger than 0.100000
B(  0-C ,  1-O ) :   2.2238 B(  0-C ,  2-C ) :   1.0065 B(  0-C ,  4-H ) :   0.8961
B(  2-C ,  3-C ) :   1.9815 B(  2-C ,  5-H ) :   0.9419 B(  3-C ,  6-H ) :   0.9473
B(  3-C ,  7-H ) :   0.9461

-----------------------------------------------------------------------------
         ABSORPTION SPECTRUM VIA TRANSITION ELECTRIC DIPOLE MOMENTS
-----------------------------------------------------------------------------
State   Energy    Wavelength  fosc         T2        TX        TY        TZ
        (cm-1)      (nm)                 (au**2)    (au)      (au)      (au)
-----------------------------------------------------------------------------
   1   28966.5    345.2   0.000256111   0.00291  -0.02918  -0.00908  -0.04446

FINAL SINGLE POINT ENERGY      -191.665836983484

DIPOLE MOMENT
-------------
                                X             Y             Z
Electronic contribution:     -2.07229      -1.87495      -0.35857
Nuclear contribution   :      2.58301       2.71386       0.42273
                        -----------------------------------------
Total Dipole Moment    :      0.51072       0.83891       0.06416
                        -----------------------------------------
Magnitude (a.u.)       :      0.98424
Magnitude (Debye)      :      2.50174

Rotational constants in cm-1:     0.791709     0.198237     0.159470
Rotational constants in MHz : 23734.844254  5943.000670  4780.796525

                             ****ORCA TERMINATED NORMALLY****
TOTAL RUN TIME: 0 days 0 hours 3 minutes 23 seconds 289 msec
