                         Program Version 5.0.3 -  RELEASE  -
|  1> ! B3LYP cc-pVDZ
|  2> !TightSCF
|  3> %scf
|  4>  ConvForced true
|  5>  convergence tight
|  6>  MaxIter 500
|  7> end
|  8>
|  9> %tddft
| 10>  nroots 1
| 11> end
| 12>
| 13> # 	22759
| 14> * xyz 0 1
| 15> 		C   -0.555690  -0.412860   0.040498
| 16> 		O   -0.591793  -1.651324  -0.017020
| 17> 		C    0.638603   0.413698  -0.041019
| 18> 		C    1.816510  -0.113156   0.010581
| 19> 		H   -1.547733   0.230632   0.095764
| 20> 		H    0.407807   1.363931  -0.079886
| 21> 		H    2.108514  -1.167244  -0.022429
| 22> 		H    2.736329   0.406312   0.160477
| 23> *
| 24>
| 25>                          ****END OF INPUT****

CARTESIAN COORDINATES (ANGSTROEM)
---------------------------------
  C     -0.555690   -0.412860    0.040498
  O     -0.591793   -1.651324   -0.017020
  C      0.638603    0.413698   -0.041019
  C      1.816510   -0.113156    0.010581
  H     -1.547733    0.230632    0.095764
  H      0.407807    1.363931   -0.079886
  H      2.108514   -1.167244   -0.022429
  H      2.736329    0.406312    0.160477

 Total Charge           Charge          ....    0
 Multiplicity           Mult            ....    1
 Number of Electrons    NEL             ....   30
 Basis Dimension        Dim             ....   76

ORBITAL ENERGIES
----------------

  NO   OCC          E(Eh)            E(eV)
   0   2.0000     -19.137456      -520.7566
   1   2.0000     -10.277574      -279.6670
   2   2.0000     -10.210868      -277.8518
   3   2.0000     -10.193885      -277.3897
   4   2.0000      -1.027583       -27.9620
   5   2.0000      -0.813234       -22.1292
   6   2.0000      -0.669395       -18.2152
   7   2.0000      -0.550398       -14.9771
   8   2.0000      -0.513486       -13.9727
   9   2.0000      -0.459397       -12.5008
  10   2.0000      -0.418445       -11.3865
  11   2.0000      -0.393651       -10.7118
  12   2.0000      -0.376521       -10.2457
  13   2.0000      -0.293903        -7.9975
  14   2.0000      -0.253486        -6.8977
  15   0.0000      -0.073123        -1.9898
  16   0.0000       0.059769         1.6264
  17   0.0000       0.070236         1.9112
  18   0.0000       0.089161         2.4262
  19   0.0000       0.127162         3.4602

MULLIKEN ATOMIC CHARGES
-----------------------
   0 C :    0.142246
   1 O :   -0.209745
   2 C :   -0.000208
   3 C :    0.096283
   4 H :   -0.016276
   5 H :   -0.067313
   6 H :    0.035486
   7 H :    0.019527
Sum of atomic charges:   -0.0000000

LOEWDIN ATOMIC CHARGES
----------------------
   0 C :   -0.017236
   1 O :   -0.032760
   2 C :   -0.067593
   3 C :    0.047208
   4 H :   -0.000691
   5 H :    0.003268
   6 H :    0.039650
   7 H :    0.028155

  Mayer bond orders larger than 0.100000
B(  0-C ,  1-O ) :   2.1722 B(  0-C ,  2-C ) :   1.0871 B(  0-C ,  4-H ) :   0.8998
B(  2-C ,  3-C ) :   1.9523 B(  2-C ,  5-H ) :   0.9474 B(  3-C ,  6-H ) :   0.9397
B(  3-C ,  7-H ) :   0.9462

-----------------------------------------------------------------------------
         ABSORPTION SPECTRUM VIA TRANSITION ELECTRIC DIPOLE MOMENTS
-----------------------------------------------------------------------------
State   Energy    Wavelength  fosc         T2        TX        TY        TZ
        (cm-1)      (nm)                 (au**2)    (au)      (au)      (au)
-----------------------------------------------------------------------------
   1   26633.9    375.5   0.000142747   0.00176  -0.02673   0.00946  -0.03099

FINAL SINGLE POINT ENERGY      -191.663389305761

DIPOLE MOMENT
-------------
                                X             Y             Z
Electronic contribution:     -1.77964      -1.64437      -0.09893
Nuclear contribution   :      2.31931       2.56725       0.14391
                        -----------------------------------------
Total Dipole Moment    :      0.53967       0.92288       0.04498
                        -----------------------------------------
Magnitude (a.u.)       :      1.07003
Magnitude (Debye)      :      2.71981

Rotational constants in cm-1:     0.766809     0.211088     0.165809
Rotational constants in MHz : 22988.369541  6328.250289  4970.831358

                             ****ORCA TERMINATED NORMALLY****
TOTAL RUN TIME: 0 days 0 hours 3 minutes 10 seconds 183 msec
