                         Program Version 5.0.3 -  RELEASE  -
|  1> ! B3LYP cc-pVDZ
|  2> !TightSCF
|  3> %scf
|  4>  ConvForced true
|  5>  convergence tight
|  6>  MaxIter 500
|  7> end
|  8>
|  9> %tddft
| 10>  nroots 1
| 11> end
| 12>
| 13> # 	21946
| 14> * xyz 0 1
| 15> 		C   -0.579878  -0.420331  -0.048734
| 16> 		O   -0.556657  -1.656761   0.022364
| 17> 		C    0.641769   0.475324  -0.011724
| 18> 		C    1.811599  -0.140616   0.008786
| 19> 		H   -1.465752   0.150956   0.147298
| 20> 		H    0.312702   1.495440   0.178769
| 21> 		H    1.839011  -1.392496  -0.087612
| 22> 		H    2.777096   0.322918   0.031243
| 23> *
| 24>
| 25>                          ****END OF INPUT****

CARTESIAN COORDINATES (ANGSTROEM)
---------------------------------
  C     -0.579878   -0.420331   -0.048734
  O     -0.556657   -1.656761    0.022364
  C      0.641769    0.475324   -0.011724
  C      1.811599   -0.140616    0.008786
  H     -1.465752    0.150956    0.147298
  H      0.312702    1.495440    0.178769
  H      1.839011   -1.392496   -0.087612
  H      2.777096    0.322918    0.031243

 Total Charge           Charge          ....    0
 Multiplicity           Mult            ....    1
 Number of Electrons    NEL             ....   30
 Basis Dimension        Dim             ....   76

ORBITAL ENERGIES
----------------

  NO   OCC          E(Eh)            E(eV)
   0   2.0000     -19.139993      -520.8257
   1   2.0000     -10.273161      -279.5469
   2   2.0000     -10.221708      -278.1468
   3   2.0000     -10.206164      -277.7239
   4   2.0000      -1.030250       -28.0345
   5   2.0000      -0.793068       -21.5805
   6   2.0000      -0.657966       -17.9042
   7   2.0000      -0.540606       -14.7106
   8   2.0000      -0.500526       -13.6200
   9   2.0000      -0.443804       -12.0765
  10   2.0000      -0.424999       -11.5648
  11   2.0000      -0.389813       -10.6074
  12   2.0000      -0.361154        -9.8275
  13   2.0000      -0.289038        -7.8651
  14   2.0000      -0.255441        -6.9509
  15   0.0000      -0.070966        -1.9311
  16   0.0000       0.049031         1.3342
  17   0.0000       0.058855         1.6015
  18   0.0000       0.082178         2.2362
  19   0.0000       0.128406         3.4941

MULLIKEN ATOMIC CHARGES
-----------------------
   0 C :    0.198477
   1 O :   -0.214173
   2 C :   -0.101604
   3 C :    0.035748
   4 H :   -0.019022
   5 H :   -0.007229
   6 H :    0.079165
   7 H :    0.028638
Sum of atomic charges:   -0.0000000

LOEWDIN ATOMIC CHARGES
----------------------
   0 C :   -0.006173
   1 O :   -0.028117
   2 C :   -0.087107
   3 C :    0.013979
   4 H :   -0.008401
   5 H :    0.028472
   6 H :    0.066262
   7 H :    0.021085

  Mayer bond orders larger than 0.100000
B(  0-C ,  1-O ) :   2.1540 B(  0-C ,  2-C ) :   1.0600 B(  0-C ,  4-H ) :   0.9239
B(  2-C ,  3-C ) :   1.9460 B(  2-C ,  5-H ) :   0.9551 B(  3-C ,  6-H ) :   0.9132
B(  3-C ,  7-H ) :   0.9467

-----------------------------------------------------------------------------
         ABSORPTION SPECTRUM VIA TRANSITION ELECTRIC DIPOLE MOMENTS
-----------------------------------------------------------------------------
State   Energy    Wavelength  fosc         T2        TX        TY        TZ
        (cm-1)      (nm)                 (au**2)    (au)      (au)      (au)
-----------------------------------------------------------------------------
   1   27303.1    366.3   0.000117082   0.00141   0.01215   0.00934   0.03431

FINAL SINGLE POINT ENERGY      -191.660762499401

DIPOLE MOMENT
-------------
                                X             Y             Z
Electronic contribution:     -1.76057      -1.41176      -0.23275
Nuclear contribution   :      2.09246       2.32793       0.25275
                        -----------------------------------------
Total Dipole Moment    :      0.33190       0.91617       0.02000
                        -----------------------------------------
Magnitude (a.u.)       :      0.97464
Magnitude (Debye)      :      2.47733

Rotational constants in cm-1:     0.706586     0.215257     0.165323
Rotational constants in MHz : 21182.913750  6453.234886  4956.246283

                             ****ORCA TERMINATED NORMALLY****
TOTAL RUN TIME: 0 days 0 hours 3 minutes 21 seconds 802 msec
