                         Program Version 5.0.3 -  RELEASE  -
|  1> ! B3LYP cc-pVDZ
|  2> !TightSCF
|  3> %scf
|  4>  ConvForced true
|  5>  convergence tight
|  6>  MaxIter 500
|  7> end
|  8>
|  9> %tddft
| 10>  nroots 1
| 11> end
| 12>
| 13> # 	4529
| 14> * xyz 0 1
| 15> 		C   -1.189360  -0.340696   0.011289
| 16> 		O   -1.427971  -1.261662   0.666606
| 17> 		C    0.077675   0.491378   0.213428
| 18> 		C    1.205654   0.042338  -0.168473
| 19> 		H   -1.922284   0.016517  -0.747891
| 20> 		H   -0.223691   1.445979   0.551042
| 21> 		H    1.340879  -1.047281  -0.520335
| 22> 		H    2.146900   0.660498  -0.049417
| 23> *
| 24>
| 25>                          ****END OF INPUT****

CARTESIAN COORDINATES (ANGSTROEM)
---------------------------------
  C     -1.189360   -0.340696    0.011289
  O     -1.427971   -1.261662    0.666606
  C      0.077675    0.491378    0.213428
  C      1.205654    0.042338   -0.168473
  H     -1.922284    0.016517   -0.747891
  H     -0.223691    1.445979    0.551042
  H      1.340879   -1.047281   -0.520335
  H      2.146900    0.660498   -0.049417

 Total Charge           Charge          ....    0
 Multiplicity           Mult            ....    1
 Number of Electrons    NEL             ....   30
 Basis Dimension        Dim             ....   76

ORBITAL ENERGIES
----------------

  NO   OCC          E(Eh)            E(eV)
   0   2.0000     -19.141175      -520.8579
   1   2.0000     -10.273092      -279.5450
   2   2.0000     -10.204498      -277.6785
   3   2.0000     -10.193344      -277.3750
   4   2.0000      -1.081586       -29.4314
   5   2.0000      -0.799605       -21.7584
   6   2.0000      -0.640605       -17.4317
   7   2.0000      -0.549572       -14.9546
   8   2.0000      -0.501578       -13.6486
   9   2.0000      -0.459200       -12.4955
  10   2.0000      -0.448551       -12.2057
  11   2.0000      -0.397488       -10.8162
  12   2.0000      -0.377746       -10.2790
  13   2.0000      -0.296491        -8.0679
  14   2.0000      -0.247383        -6.7316
  15   0.0000      -0.019330        -0.5260
  16   0.0000       0.013140         0.3576
  17   0.0000       0.076952         2.0940
  18   0.0000       0.084154         2.2899
  19   0.0000       0.108886         2.9629

MULLIKEN ATOMIC CHARGES
-----------------------
   0 C :    0.133017
   1 O :   -0.137302
   2 C :   -0.041689
   3 C :    0.009505
   4 H :   -0.026209
   5 H :   -0.011285
   6 H :    0.039645
   7 H :    0.034318
Sum of atomic charges:   -0.0000000

LOEWDIN ATOMIC CHARGES
----------------------
   0 C :   -0.048122
   1 O :    0.057852
   2 C :   -0.062316
   3 C :   -0.039745
   4 H :   -0.013450
   5 H :    0.023937
   6 H :    0.043772
   7 H :    0.038073

  Mayer bond orders larger than 0.100000
B(  0-C ,  1-O ) :   2.2807 B(  0-C ,  2-C ) :   0.9710 B(  0-C ,  4-H ) :   0.9026
B(  2-C ,  3-C ) :   2.0506 B(  2-C ,  5-H ) :   0.9394 B(  3-C ,  6-H ) :   0.9287
B(  3-C ,  7-H ) :   0.9384

-----------------------------------------------------------------------------
         ABSORPTION SPECTRUM VIA TRANSITION ELECTRIC DIPOLE MOMENTS
-----------------------------------------------------------------------------
State   Energy    Wavelength  fosc         T2        TX        TY        TZ
        (cm-1)      (nm)                 (au**2)    (au)      (au)      (au)
-----------------------------------------------------------------------------
   1   35462.0    282.0   0.000087434   0.00081  -0.02414   0.01460   0.00399

FINAL SINGLE POINT ENERGY      -191.620714446580

DIPOLE MOMENT
-------------
                                X             Y             Z
Electronic contribution:     -2.30708      -1.46128       1.03749
Nuclear contribution   :      2.60625       2.11834      -1.41951
                        -----------------------------------------
Total Dipole Moment    :      0.29917       0.65706      -0.38202
                        -----------------------------------------
Magnitude (a.u.)       :      0.81680
Magnitude (Debye)      :      2.07614

Rotational constants in cm-1:     0.923182     0.184475     0.166166
Rotational constants in MHz : 27676.312604  5530.424672  4981.539542

                             ****ORCA TERMINATED NORMALLY****
TOTAL RUN TIME: 0 days 0 hours 3 minutes 6 seconds 793 msec
