                         Program Version 5.0.3 -  RELEASE  -
|  1> ! B3LYP cc-pVDZ
|  2> !TightSCF
|  3> %scf
|  4>  ConvForced true
|  5>  convergence tight
|  6>  MaxIter 500
|  7> end
|  8>
|  9> %tddft
| 10>  nroots 1
| 11> end
| 12>
| 13> # 	9728
| 14> * xyz 0 1
| 15> 		C   -1.200800  -0.266689   0.008920
| 16> 		O   -1.514970  -1.159018  -0.741113
| 17> 		C   -0.018426   0.584816  -0.204720
| 18> 		C    1.256209   0.003091   0.184569
| 19> 		H   -1.737642  -0.044170   0.936425
| 20> 		H   -0.156279   1.412398  -0.663734
| 21> 		H    1.192091  -0.971531   0.450354
| 22> 		H    2.207076   0.503229   0.027676
| 23> *
| 24>
| 25>                          ****END OF INPUT****

CARTESIAN COORDINATES (ANGSTROEM)
---------------------------------
  C     -1.200800   -0.266689    0.008920
  O     -1.514970   -1.159018   -0.741113
  C     -0.018426    0.584816   -0.204720
  C      1.256209    0.003091    0.184569
  H     -1.737642   -0.044170    0.936425
  H     -0.156279    1.412398   -0.663734
  H      1.192091   -0.971531    0.450354
  H      2.207076    0.503229    0.027676

 Total Charge           Charge          ....    0
 Multiplicity           Mult            ....    1
 Number of Electrons    NEL             ....   30
 Basis Dimension        Dim             ....   76

ORBITAL ENERGIES
----------------

  NO   OCC          E(Eh)            E(eV)
   0   2.0000     -19.145148      -520.9660
   1   2.0000     -10.278353      -279.6882
   2   2.0000     -10.211199      -277.8609
   3   2.0000     -10.205351      -277.7017
   4   2.0000      -1.053561       -28.6688
   5   2.0000      -0.785107       -21.3638
   6   2.0000      -0.659425       -17.9439
   7   2.0000      -0.577699       -15.7200
   8   2.0000      -0.500619       -13.6225
   9   2.0000      -0.453343       -12.3361
  10   2.0000      -0.436802       -11.8860
  11   2.0000      -0.414930       -11.2908
  12   2.0000      -0.376110       -10.2345
  13   2.0000      -0.269815        -7.3420
  14   2.0000      -0.254698        -6.9307
  15   0.0000      -0.037280        -1.0144
  16   0.0000      -0.029930        -0.8144
  17   0.0000       0.089976         2.4484
  18   0.0000       0.102995         2.8026
  19   0.0000       0.117093         3.1863

MULLIKEN ATOMIC CHARGES
-----------------------
   0 C :    0.167946
   1 O :   -0.180440
   2 C :   -0.021657
   3 C :    0.046193
   4 H :   -0.009604
   5 H :   -0.046895
   6 H :    0.004924
   7 H :    0.039533
Sum of atomic charges:   -0.0000000

LOEWDIN ATOMIC CHARGES
----------------------
   0 C :   -0.022731
   1 O :    0.013632
   2 C :   -0.006088
   3 C :    0.004929
   4 H :   -0.006736
   5 H :   -0.015461
   6 H :    0.004207
   7 H :    0.028249

  Mayer bond orders larger than 0.100000
B(  0-C ,  1-O ) :   2.2288 B(  0-C ,  2-C ) :   0.9997 B(  0-C ,  4-H ) :   0.9149
B(  2-C ,  3-C ) :   1.9939 B(  2-C ,  5-H ) :   0.9592 B(  3-C ,  6-H ) :   0.9502
B(  3-C ,  7-H ) :   0.9623

-----------------------------------------------------------------------------
         ABSORPTION SPECTRUM VIA TRANSITION ELECTRIC DIPOLE MOMENTS
-----------------------------------------------------------------------------
State   Energy    Wavelength  fosc         T2        TX        TY        TZ
        (cm-1)      (nm)                 (au**2)    (au)      (au)      (au)
-----------------------------------------------------------------------------
   1   33325.9    300.1   0.000172818   0.00171  -0.01639  -0.03487   0.01492

FINAL SINGLE POINT ENERGY      -191.607969364651

DIPOLE MOMENT
-------------
                                X             Y             Z
Electronic contribution:     -2.48893      -1.09111      -1.02347
Nuclear contribution   :      2.88676       1.75302       1.44835
                        -----------------------------------------
Total Dipole Moment    :      0.39783       0.66191       0.42488
                        -----------------------------------------
Magnitude (a.u.)       :      0.88143
Magnitude (Debye)      :      2.24042

Rotational constants in cm-1:     0.846812     0.179269     0.162546
Rotational constants in MHz : 25386.796301  5374.343775  4872.991783

                             ****ORCA TERMINATED NORMALLY****
TOTAL RUN TIME: 0 days 0 hours 3 minutes 3 seconds 875 msec
