                         Program Version 5.0.3 -  RELEASE  -
|  1> ! B3LYP cc-pVDZ
|  2> !TightSCF
|  3> %scf
|  4>  ConvForced true
|  5>  convergence tight
|  6>  MaxIter 500
|  7> end
|  8>
|  9> %tddft
| 10>  nroots 1
| 11> end
| 12>
| 13> # 	7594
| 14> * xyz 0 1
| 15> 		C   -1.214111  -0.371972   0.011072
| 16> 		O   -2.058124  -0.583831  -0.789902
| 17> 		C    0.017273   0.420736  -0.368742
| 18> 		C    1.208825   0.130960   0.235521
| 19> 		H   -1.203653  -0.704470   0.997420
| 20> 		H   -0.125405   1.140781  -1.185208
| 21> 		H    1.295318  -0.620430   1.119073
| 22> 		H    2.119718   0.631388  -0.008003
| 23> *
| 24>
| 25>                          ****END OF INPUT****

CARTESIAN COORDINATES (ANGSTROEM)
---------------------------------
  C     -1.214111   -0.371972    0.011072
  O     -2.058124   -0.583831   -0.789902
  C      0.017273    0.420736   -0.368742
  C      1.208825    0.130960    0.235521
  H     -1.203653   -0.704470    0.997420
  H     -0.125405    1.140781   -1.185208
  H      1.295318   -0.620430    1.119073
  H      2.119718    0.631388   -0.008003

 Total Charge           Charge          ....    0
 Multiplicity           Mult            ....    1
 Number of Electrons    NEL             ....   30
 Basis Dimension        Dim             ....   76

ORBITAL ENERGIES
----------------

  NO   OCC          E(Eh)            E(eV)
   0   2.0000     -19.139466      -520.8114
   1   2.0000     -10.270315      -279.4695
   2   2.0000     -10.220051      -278.1017
   3   2.0000     -10.208543      -277.7886
   4   2.0000      -1.063423       -28.9372
   5   2.0000      -0.787119       -21.4186
   6   2.0000      -0.643481       -17.5100
   7   2.0000      -0.576898       -15.6982
   8   2.0000      -0.472973       -12.8702
   9   2.0000      -0.470403       -12.8003
  10   2.0000      -0.432346       -11.7647
  11   2.0000      -0.400523       -10.8988
  12   2.0000      -0.384811       -10.4712
  13   2.0000      -0.285479        -7.7683
  14   2.0000      -0.255132        -6.9425
  15   0.0000      -0.056120        -1.5271
  16   0.0000       0.034573         0.9408
  17   0.0000       0.070073         1.9068
  18   0.0000       0.089942         2.4475
  19   0.0000       0.121376         3.3028

MULLIKEN ATOMIC CHARGES
-----------------------
   0 C :    0.210345
   1 O :   -0.173654
   2 C :   -0.090051
   3 C :    0.006987
   4 H :   -0.039509
   5 H :    0.010914
   6 H :    0.043343
   7 H :    0.031625
Sum of atomic charges:    0.0000000

LOEWDIN ATOMIC CHARGES
----------------------
   0 C :   -0.038871
   1 O :    0.030401
   2 C :   -0.052331
   3 C :   -0.016616
   4 H :   -0.018488
   5 H :    0.032307
   6 H :    0.041036
   7 H :    0.022563

  Mayer bond orders larger than 0.100000
B(  0-C ,  1-O ) :   2.2075 B(  0-C ,  2-C ) :   1.0461 B(  0-C ,  4-H ) :   0.9244
B(  2-C ,  3-C ) :   1.9389 B(  2-C ,  5-H ) :   0.9497 B(  3-C ,  6-H ) :   0.9449
B(  3-C ,  7-H ) :   0.9471

-----------------------------------------------------------------------------
         ABSORPTION SPECTRUM VIA TRANSITION ELECTRIC DIPOLE MOMENTS
-----------------------------------------------------------------------------
State   Energy    Wavelength  fosc         T2        TX        TY        TZ
        (cm-1)      (nm)                 (au**2)    (au)      (au)      (au)
-----------------------------------------------------------------------------
   1   30870.9    323.9   0.000694283   0.00740  -0.08226  -0.01966  -0.01582

FINAL SINGLE POINT ENERGY      -191.657860278233

DIPOLE MOMENT
-------------
                                X             Y             Z
Electronic contribution:     -3.16620      -0.61802      -1.20670
Nuclear contribution   :      3.98836       0.86332       1.73982
                        -----------------------------------------
Total Dipole Moment    :      0.82215       0.24529       0.53311
                        -----------------------------------------
Magnitude (a.u.)       :      1.01011
Magnitude (Debye)      :      2.56749

Rotational constants in cm-1:     1.366566     0.157083     0.144777
Rotational constants in MHz : 40968.625489  4709.242106  4340.290614

                             ****ORCA TERMINATED NORMALLY****
TOTAL RUN TIME: 0 days 0 hours 3 minutes 21 seconds 130 msec
