                         Program Version 5.0.3 -  RELEASE  -
|  1> ! B3LYP cc-pVDZ
|  2> !TightSCF
|  3> %scf
|  4>  ConvForced true
|  5>  convergence tight
|  6>  MaxIter 500
|  7> end
|  8>
|  9> %tddft
| 10>  nroots 1
| 11> end
| 12>
| 13> # 	8742
| 14> * xyz 0 1
| 15> 		C   -1.175504  -0.339784  -0.053614
| 16> 		O   -1.284633  -1.507028   0.188901
| 17> 		C   -0.016544   0.576680   0.038997
| 18> 		C    1.195827   0.017151  -0.070442
| 19> 		H   -2.086017   0.088661  -0.319982
| 20> 		H   -0.176020   1.599832   0.179258
| 21> 		H    1.338290  -1.116624  -0.045721
| 22> 		H    2.159984   0.621160   0.038053
| 23> *
| 24>
| 25>                          ****END OF INPUT****

CARTESIAN COORDINATES (ANGSTROEM)
---------------------------------
  C     -1.175504   -0.339784   -0.053614
  O     -1.284633   -1.507028    0.188901
  C     -0.016544    0.576680    0.038997
  C      1.195827    0.017151   -0.070442
  H     -2.086017    0.088661   -0.319982
  H     -0.176020    1.599832    0.179258
  H      1.338290   -1.116624   -0.045721
  H      2.159984    0.621160    0.038053

 Total Charge           Charge          ....    0
 Multiplicity           Mult            ....    1
 Number of Electrons    NEL             ....   30
 Basis Dimension        Dim             ....   76

ORBITAL ENERGIES
----------------

  NO   OCC          E(Eh)            E(eV)
   0   2.0000     -19.133511      -520.6493
   1   2.0000     -10.264078      -279.2998
   2   2.0000     -10.222225      -278.1609
   3   2.0000     -10.204512      -277.6789
   4   2.0000      -1.050837       -28.5947
   5   2.0000      -0.797825       -21.7099
   6   2.0000      -0.652880       -17.7658
   7   2.0000      -0.549905       -14.9637
   8   2.0000      -0.513676       -13.9778
   9   2.0000      -0.445939       -12.1346
  10   2.0000      -0.428592       -11.6626
  11   2.0000      -0.393643       -10.7116
  12   2.0000      -0.382044       -10.3959
  13   2.0000      -0.290119        -7.8945
  14   2.0000      -0.249093        -6.7782
  15   0.0000      -0.063294        -1.7223
  16   0.0000       0.048035         1.3071
  17   0.0000       0.072361         1.9690
  18   0.0000       0.088198         2.4000
  19   0.0000       0.129481         3.5234

MULLIKEN ATOMIC CHARGES
-----------------------
   0 C :    0.209203
   1 O :   -0.186253
   2 C :   -0.073135
   3 C :    0.014157
   4 H :   -0.048516
   5 H :   -0.016158
   6 H :    0.057671
   7 H :    0.043032
Sum of atomic charges:    0.0000000

LOEWDIN ATOMIC CHARGES
----------------------
   0 C :   -0.036065
   1 O :    0.007559
   2 C :   -0.071146
   3 C :    0.013932
   4 H :   -0.019461
   5 H :    0.021743
   6 H :    0.045122
   7 H :    0.038315

  Mayer bond orders larger than 0.100000
B(  0-C ,  1-O ) :   2.2081 B(  0-C ,  2-C ) :   1.0415 B(  0-C ,  4-H ) :   0.9331
B(  2-C ,  3-C ) :   1.9535 B(  2-C ,  5-H ) :   0.9521 B(  3-C ,  6-H ) :   0.9342
B(  3-C ,  7-H ) :   0.9462

-----------------------------------------------------------------------------
         ABSORPTION SPECTRUM VIA TRANSITION ELECTRIC DIPOLE MOMENTS
-----------------------------------------------------------------------------
State   Energy    Wavelength  fosc         T2        TX        TY        TZ
        (cm-1)      (nm)                 (au**2)    (au)      (au)      (au)
-----------------------------------------------------------------------------
   1   28054.7    356.4   0.000284799   0.00334  -0.05374  -0.00129   0.02128

FINAL SINGLE POINT ENERGY      -191.665065369306

DIPOLE MOMENT
-------------
                                X             Y             Z
Electronic contribution:     -1.99260      -1.53921       0.15605
Nuclear contribution   :      2.43517       2.43137      -0.26081
                        -----------------------------------------
Total Dipole Moment    :      0.44257       0.89216      -0.10476
                        -----------------------------------------
Magnitude (a.u.)       :      1.00140
Magnitude (Debye)      :      2.54535

Rotational constants in cm-1:     0.800136     0.201630     0.162618
Rotational constants in MHz : 23987.475937  6044.721430  4875.178062

                             ****ORCA TERMINATED NORMALLY****
TOTAL RUN TIME: 0 days 0 hours 3 minutes 22 seconds 194 msec
