                         Program Version 5.0.3 -  RELEASE  -
|  1> ! B3LYP cc-pVDZ
|  2> !TightSCF
|  3> %scf
|  4>  ConvForced true
|  5>  convergence tight
|  6>  MaxIter 500
|  7> end
|  8>
|  9> %tddft
| 10>  nroots 1
| 11> end
| 12>
| 13> # 	19278
| 14> * xyz 0 1
| 15> 		C   -1.206464  -0.326345   0.087588
| 16> 		O   -2.079693  -0.466764   0.876624
| 17> 		C    0.039958   0.413057   0.450271
| 18> 		C    1.165159   0.073514  -0.313453
| 19> 		H   -1.222733  -0.842063  -0.868285
| 20> 		H   -0.121048   1.086458   1.112627
| 21> 		H    1.091250  -0.567598  -1.132183
| 22> 		H    2.274069   0.632080  -0.190915
| 23> *
| 24>
| 25>                          ****END OF INPUT****

CARTESIAN COORDINATES (ANGSTROEM)
---------------------------------
  C     -1.206464   -0.326345    0.087588
  O     -2.079693   -0.466764    0.876624
  C      0.039958    0.413057    0.450271
  C      1.165159    0.073514   -0.313453
  H     -1.222733   -0.842063   -0.868285
  H     -0.121048    1.086458    1.112627
  H      1.091250   -0.567598   -1.132183
  H      2.274069    0.632080   -0.190915

 Total Charge           Charge          ....    0
 Multiplicity           Mult            ....    1
 Number of Electrons    NEL             ....   30
 Basis Dimension        Dim             ....   76

ORBITAL ENERGIES
----------------

  NO   OCC          E(Eh)            E(eV)
   0   2.0000     -19.135655      -520.7077
   1   2.0000     -10.268973      -279.4330
   2   2.0000     -10.234083      -278.4836
   3   2.0000     -10.205548      -277.7071
   4   2.0000      -1.060288       -28.8519
   5   2.0000      -0.791959       -21.5503
   6   2.0000      -0.640196       -17.4206
   7   2.0000      -0.590560       -16.0700
   8   2.0000      -0.478072       -13.0090
   9   2.0000      -0.464810       -12.6481
  10   2.0000      -0.434027       -11.8105
  11   2.0000      -0.399711       -10.8767
  12   2.0000      -0.389512       -10.5991
  13   2.0000      -0.284014        -7.7284
  14   2.0000      -0.252407        -6.8683
  15   0.0000      -0.063768        -1.7352
  16   0.0000       0.032822         0.8931
  17   0.0000       0.061338         1.6691
  18   0.0000       0.091338         2.4854
  19   0.0000       0.127033         3.4568

MULLIKEN ATOMIC CHARGES
-----------------------
   0 C :    0.160583
   1 O :   -0.179583
   2 C :    0.048856
   3 C :   -0.017250
   4 H :   -0.037171
   5 H :   -0.067054
   6 H :    0.025983
   7 H :    0.065636
Sum of atomic charges:    0.0000000

LOEWDIN ATOMIC CHARGES
----------------------
   0 C :   -0.047949
   1 O :    0.021240
   2 C :   -0.012782
   3 C :   -0.000012
   4 H :   -0.013104
   5 H :   -0.014152
   6 H :    0.012143
   7 H :    0.054617

  Mayer bond orders larger than 0.100000
B(  0-C ,  1-O ) :   2.1849 B(  0-C ,  2-C ) :   1.0694 B(  0-C ,  4-H ) :   0.9234
B(  2-C ,  3-C ) :   1.8995 B(  2-C ,  5-H ) :   0.9641 B(  3-C ,  6-H ) :   0.9439
B(  3-C ,  7-H ) :   0.9490

-----------------------------------------------------------------------------
         ABSORPTION SPECTRUM VIA TRANSITION ELECTRIC DIPOLE MOMENTS
-----------------------------------------------------------------------------
State   Energy    Wavelength  fosc         T2        TX        TY        TZ
        (cm-1)      (nm)                 (au**2)    (au)      (au)      (au)
-----------------------------------------------------------------------------
   1   29189.0    342.6   0.000231474   0.00261   0.03810  -0.01996  -0.02759

FINAL SINGLE POINT ENERGY      -191.637514750802

DIPOLE MOMENT
-------------
                                X             Y             Z
Electronic contribution:     -3.11443      -0.41954       1.47728
Nuclear contribution   :      3.96590       0.63446      -2.04964
                        -----------------------------------------
Total Dipole Moment    :      0.85147       0.21493      -0.57236
                        -----------------------------------------
Magnitude (a.u.)       :      1.04823
Magnitude (Debye)      :      2.66439

Rotational constants in cm-1:     1.429137     0.158090     0.144557
Rotational constants in MHz : 42844.442348  4739.407104  4333.705166

                             ****ORCA TERMINATED NORMALLY****
TOTAL RUN TIME: 0 days 0 hours 3 minutes 25 seconds 552 msec
