                         Program Version 5.0.3 -  RELEASE  -
|  1> ! HF-3c
|  2> !TightSCF
|  3> %scf
|  4>  ConvForced true
|  5>  convergence tight
|  6>  MaxIter 500
|  7> end
|  8>
|  9> %tddft
| 10>  nroots 1
| 11> end
| 12>
| 13> # 	32120
| 14> * xyz 0 1
| 15> 		C   -0.627663  -0.417662  -0.017995
| 16> 		O   -0.541136  -1.597208   0.017609
| 17> 		C    0.631716   0.385008   0.030255
| 18> 		C    1.851727  -0.133488  -0.014893
| 19> 		H   -1.657812  -0.051627  -0.175344
| 20> 		H    0.476259   1.476311   0.021347
| 21> 		H    1.787098  -1.289597  -0.143319
| 22> 		H    2.802330   0.421499   0.058255
| 23> *
| 24>
| 25>                          ****END OF INPUT****

CARTESIAN COORDINATES (ANGSTROEM)
---------------------------------
  C     -0.627663   -0.417662   -0.017995
  O     -0.541136   -1.597208    0.017609
  C      0.631716    0.385008    0.030255
  C      1.851727   -0.133488   -0.014893
  H     -1.657812   -0.051627   -0.175344
  H      0.476259    1.476311    0.021347
  H      1.787098   -1.289597   -0.143319
  H      2.802330    0.421499    0.058255

 Total Charge           Charge          ....    0
 Multiplicity           Mult            ....    1
 Number of Electrons    NEL             ....   30
 Basis Dimension        Dim             ....   24

ORBITAL ENERGIES
----------------

  NO   OCC          E(Eh)            E(eV)
   0   2.0000     -20.362809      -554.1002
   1   2.0000     -11.298133      -307.4378
   2   2.0000     -11.183517      -304.3190
   3   2.0000     -11.180155      -304.2275
   4   2.0000      -1.424302       -38.7572
   5   2.0000      -1.066982       -29.0340
   6   2.0000      -0.874544       -23.7976
   7   2.0000      -0.747542       -20.3416
   8   2.0000      -0.699163       -19.0252
   9   2.0000      -0.610785       -16.6203
  10   2.0000      -0.599312       -16.3081
  11   2.0000      -0.550229       -14.9725
  12   2.0000      -0.505042       -13.7429
  13   2.0000      -0.413178       -11.2431
  14   2.0000      -0.391311       -10.6481
  15   0.0000       0.144245         3.9251
  16   0.0000       0.316801         8.6206
  17   0.0000       0.500968        13.6320
  18   0.0000       0.581345        15.8192
  19   0.0000       0.650874        17.7112

MULLIKEN ATOMIC CHARGES
-----------------------
   0 C :    0.157514
   1 O :   -0.361347
   2 C :   -0.174345
   3 C :   -0.219041
   4 H :    0.147320
   5 H :    0.133093
   6 H :    0.164542
   7 H :    0.152262
Sum of atomic charges:    0.0000000

LOEWDIN ATOMIC CHARGES
----------------------
   0 C :    0.134799
   1 O :   -0.258585
   2 C :   -0.134400
   3 C :   -0.126451
   4 H :    0.082429
   5 H :    0.083723
   6 H :    0.116096
   7 H :    0.102390

  Mayer bond orders larger than 0.100000
B(  0-C ,  1-O ) :   1.9051 B(  0-C ,  2-C ) :   1.0135 B(  0-C ,  4-H ) :   0.9278
B(  2-C ,  3-C ) :   1.9587 B(  2-C ,  5-H ) :   0.9598 B(  3-C ,  6-H ) :   0.9491
B(  3-C ,  7-H ) :   0.9624

-----------------------------------------------------------------------------
         ABSORPTION SPECTRUM VIA TRANSITION ELECTRIC DIPOLE MOMENTS
-----------------------------------------------------------------------------
State   Energy    Wavelength  fosc         T2        TX        TY        TZ
        (cm-1)      (nm)                 (au**2)    (au)      (au)      (au)
-----------------------------------------------------------------------------
   1   33737.8    296.4   0.000045371   0.00044   0.01382   0.00063   0.01586

Dispersion correction           -0.025854504
FINAL SINGLE POINT ENERGY      -189.326523451468

DIPOLE MOMENT
-------------
                                X             Y             Z
Electronic contribution:     -1.82486      -1.49367       0.14962
Nuclear contribution   :      2.04227       2.31216      -0.22463
                        -----------------------------------------
Total Dipole Moment    :      0.21740       0.81849      -0.07501
                        -----------------------------------------
Magnitude (a.u.)       :      0.85019
Magnitude (Debye)      :      2.16101

Rotational constants in cm-1:     0.778547     0.213919     0.168071
Rotational constants in MHz : 23340.256093  6413.133193  5038.645687

                             ****ORCA TERMINATED NORMALLY****
TOTAL RUN TIME: 0 days 0 hours 0 minutes 10 seconds 784 msec
