                         Program Version 5.0.3 -  RELEASE  -
|  1> ! HF-3c
|  2> !TightSCF
|  3> %scf
|  4>  ConvForced true
|  5>  convergence tight
|  6>  MaxIter 500
|  7> end
|  8>
|  9> %tddft
| 10>  nroots 1
| 11> end
| 12>
| 13> # 	9261
| 14> * xyz 0 1
| 15> 		C   -1.181481  -0.299485   0.042038
| 16> 		O   -1.252516  -1.514193   0.066713
| 17> 		C    0.016655   0.547881   0.065638
| 18> 		C    1.254998   0.044210  -0.021874
| 19> 		H   -2.193718   0.237515  -0.158447
| 20> 		H   -0.109421   1.554658   0.059319
| 21> 		H    1.265859  -1.192384   0.090966
| 22> 		H    2.219266   0.719930  -0.115265
| 23> *
| 24>
| 25>                          ****END OF INPUT****

CARTESIAN COORDINATES (ANGSTROEM)
---------------------------------
  C     -1.181481   -0.299485    0.042038
  O     -1.252516   -1.514193    0.066713
  C      0.016655    0.547881    0.065638
  C      1.254998    0.044210   -0.021874
  H     -2.193718    0.237515   -0.158447
  H     -0.109421    1.554658    0.059319
  H      1.265859   -1.192384    0.090966
  H      2.219266    0.719930   -0.115265

 Total Charge           Charge          ....    0
 Multiplicity           Mult            ....    1
 Number of Electrons    NEL             ....   30
 Basis Dimension        Dim             ....   24

ORBITAL ENERGIES
----------------

  NO   OCC          E(Eh)            E(eV)
   0   2.0000     -20.350152      -553.7558
   1   2.0000     -11.287608      -307.1514
   2   2.0000     -11.192179      -304.5547
   3   2.0000     -11.180371      -304.2334
   4   2.0000      -1.388867       -37.7930
   5   2.0000      -1.074577       -29.2407
   6   2.0000      -0.871963       -23.7273
   7   2.0000      -0.728662       -19.8279
   8   2.0000      -0.698748       -19.0139
   9   2.0000      -0.595568       -16.2062
  10   2.0000      -0.580192       -15.7878
  11   2.0000      -0.534142       -14.5347
  12   2.0000      -0.508175       -13.8281
  13   2.0000      -0.403305       -10.9745
  14   2.0000      -0.388272       -10.5654
  15   0.0000       0.134991         3.6733
  16   0.0000       0.312119         8.4932
  17   0.0000       0.485938        13.2230
  18   0.0000       0.516624        14.0581
  19   0.0000       0.641138        17.4462

MULLIKEN ATOMIC CHARGES
-----------------------
   0 C :    0.169789
   1 O :   -0.366088
   2 C :   -0.217683
   3 C :   -0.175741
   4 H :    0.130690
   5 H :    0.138920
   6 H :    0.166637
   7 H :    0.153475
Sum of atomic charges:    0.0000000

LOEWDIN ATOMIC CHARGES
----------------------
   0 C :    0.149574
   1 O :   -0.274502
   2 C :   -0.170306
   3 C :   -0.092188
   4 H :    0.072738
   5 H :    0.082535
   6 H :    0.123432
   7 H :    0.108715

  Mayer bond orders larger than 0.100000
B(  0-C ,  1-O ) :   1.8968 B(  0-C ,  2-C ) :   1.0349 B(  0-C ,  4-H ) :   0.9225
B(  2-C ,  3-C ) :   1.9266 B(  2-C ,  5-H ) :   0.9614 B(  3-C ,  6-H ) :   0.9486
B(  3-C ,  7-H ) :   0.9582

-----------------------------------------------------------------------------
         ABSORPTION SPECTRUM VIA TRANSITION ELECTRIC DIPOLE MOMENTS
-----------------------------------------------------------------------------
State   Energy    Wavelength  fosc         T2        TX        TY        TZ
        (cm-1)      (nm)                 (au**2)    (au)      (au)      (au)
-----------------------------------------------------------------------------
   1   32553.0    307.2   0.000049978   0.00051  -0.00659   0.00131   0.02145

Dispersion correction           -0.025489378
FINAL SINGLE POINT ENERGY      -189.313970512119

DIPOLE MOMENT
-------------
                                X             Y             Z
Electronic contribution:     -1.75410      -1.63954       0.18255
Nuclear contribution   :      2.28416       2.51812      -0.24743
                        -----------------------------------------
Total Dipole Moment    :      0.53006       0.87858      -0.06487
                        -----------------------------------------
Magnitude (a.u.)       :      1.02814
Magnitude (Debye)      :      2.61333

Rotational constants in cm-1:     0.794254     0.198926     0.159381
Rotational constants in MHz : 23811.143414  5963.660272  4778.136340

                             ****ORCA TERMINATED NORMALLY****
TOTAL RUN TIME: 0 days 0 hours 0 minutes 13 seconds 691 msec
