                         Program Version 5.0.3 -  RELEASE  -
|  1> ! B3LYP cc-pVDZ
|  2> !TightSCF
|  3> %scf
|  4>  ConvForced true
|  5>  convergence tight
|  6>  MaxIter 500
|  7> end
|  8>
|  9> %tddft
| 10>  nroots 1
| 11> end
| 12>
| 13> # 	21367
| 14> * xyz 0 1
| 15> 		C   -0.565499  -0.431454   0.027803
| 16> 		O   -0.564199  -1.596584  -0.033630
| 17> 		C    0.628752   0.396677  -0.022843
| 18> 		C    1.800525  -0.164462   0.004112
| 19> 		H   -1.483075   0.212880   0.230055
| 20> 		H    0.441430   1.367631  -0.054241
| 21> 		H    1.932403  -1.126278   0.430426
| 22> 		H    2.792470   0.528808  -0.204052
| 23> *
| 24>
| 25>                          ****END OF INPUT****

CARTESIAN COORDINATES (ANGSTROEM)
---------------------------------
  C     -0.565499   -0.431454    0.027803
  O     -0.564199   -1.596584   -0.033630
  C      0.628752    0.396677   -0.022843
  C      1.800525   -0.164462    0.004112
  H     -1.483075    0.212880    0.230055
  H      0.441430    1.367631   -0.054241
  H      1.932403   -1.126278    0.430426
  H      2.792470    0.528808   -0.204052

 Total Charge           Charge          ....    0
 Multiplicity           Mult            ....    1
 Number of Electrons    NEL             ....   30
 Basis Dimension        Dim             ....   76

ORBITAL ENERGIES
----------------

  NO   OCC          E(Eh)            E(eV)
   0   2.0000     -19.137831      -520.7669
   1   2.0000     -10.268085      -279.4088
   2   2.0000     -10.216169      -277.9961
   3   2.0000     -10.185059      -277.1496
   4   2.0000      -1.071710       -29.1627
   5   2.0000      -0.807458       -21.9721
   6   2.0000      -0.657520       -17.8920
   7   2.0000      -0.544458       -14.8155
   8   2.0000      -0.508890       -13.8476
   9   2.0000      -0.458817       -12.4850
  10   2.0000      -0.425907       -11.5895
  11   2.0000      -0.413220       -11.2443
  12   2.0000      -0.382900       -10.4192
  13   2.0000      -0.288705        -7.8561
  14   2.0000      -0.253230        -6.8907
  15   0.0000      -0.065307        -1.7771
  16   0.0000       0.059390         1.6161
  17   0.0000       0.068448         1.8626
  18   0.0000       0.090494         2.4625
  19   0.0000       0.134033         3.6472

MULLIKEN ATOMIC CHARGES
-----------------------
   0 C :    0.153417
   1 O :   -0.151348
   2 C :   -0.024095
   3 C :    0.043859
   4 H :   -0.042640
   5 H :   -0.060051
   6 H :    0.031926
   7 H :    0.048932
Sum of atomic charges:    0.0000000

LOEWDIN ATOMIC CHARGES
----------------------
   0 C :   -0.067351
   1 O :    0.042008
   2 C :   -0.073143
   3 C :    0.029555
   4 H :   -0.013837
   5 H :    0.002938
   6 H :    0.027436
   7 H :    0.052393

  Mayer bond orders larger than 0.100000
B(  0-C ,  1-O ) :   2.2570 B(  0-C ,  2-C ) :   1.0721 B(  0-C ,  4-H ) :   0.9020
B(  2-C ,  3-C ) :   1.9597 B(  2-C ,  5-H ) :   0.9474 B(  3-C ,  6-H ) :   0.9303
B(  3-C ,  7-H ) :   0.9389

-----------------------------------------------------------------------------
         ABSORPTION SPECTRUM VIA TRANSITION ELECTRIC DIPOLE MOMENTS
-----------------------------------------------------------------------------
State   Energy    Wavelength  fosc         T2        TX        TY        TZ
        (cm-1)      (nm)                 (au**2)    (au)      (au)      (au)
-----------------------------------------------------------------------------
   1   28683.7    348.6   0.000186790   0.00214   0.00564  -0.02016  -0.04130

FINAL SINGLE POINT ENERGY      -191.644984733367

DIPOLE MOMENT
-------------
                                X             Y             Z
Electronic contribution:     -1.91392      -1.89276      -0.27856
Nuclear contribution   :      2.29994       2.70942       0.37842
                        -----------------------------------------
Total Dipole Moment    :      0.38602       0.81666       0.09986
                        -----------------------------------------
Magnitude (a.u.)       :      0.90880
Magnitude (Debye)      :      2.30997

Rotational constants in cm-1:     0.794784     0.219898     0.173372
Rotational constants in MHz : 23827.013986  6592.378782  5197.562946

                             ****ORCA TERMINATED NORMALLY****
TOTAL RUN TIME: 0 days 0 hours 3 minutes 20 seconds 858 msec
