                         Program Version 5.0.3 -  RELEASE  -
|  1> ! B3LYP cc-pVDZ
|  2> !TightSCF
|  3> %scf
|  4>  ConvForced true
|  5>  convergence tight
|  6>  MaxIter 500
|  7> end
|  8>
|  9> %tddft
| 10>  nroots 1
| 11> end
| 12>
| 13> # 	7140
| 14> * xyz 0 1
| 15> 		C   -1.216876  -0.324441   0.002232
| 16> 		O   -1.197512  -1.656005   0.080362
| 17> 		C    0.045272   0.584909   0.090027
| 18> 		C    1.163471  -0.080412  -0.026590
| 19> 		H   -2.189152   0.174803  -0.340339
| 20> 		H   -0.098253   1.757648   0.130327
| 21> 		H    1.372288  -0.956992   0.001703
| 22> 		H    2.179155   0.532231   0.106809
| 23> *
| 24>
| 25>                          ****END OF INPUT****

CARTESIAN COORDINATES (ANGSTROEM)
---------------------------------
  C     -1.216876   -0.324441    0.002232
  O     -1.197512   -1.656005    0.080362
  C      0.045272    0.584909    0.090027
  C      1.163471   -0.080412   -0.026590
  H     -2.189152    0.174803   -0.340339
  H     -0.098253    1.757648    0.130327
  H      1.372288   -0.956992    0.001703
  H      2.179155    0.532231    0.106809

 Total Charge           Charge          ....    0
 Multiplicity           Mult            ....    1
 Number of Electrons    NEL             ....   30
 Basis Dimension        Dim             ....   76

ORBITAL ENERGIES
----------------

  NO   OCC          E(Eh)            E(eV)
   0   2.0000     -19.144044      -520.9359
   1   2.0000     -10.293768      -280.1077
   2   2.0000     -10.227507      -278.3046
   3   2.0000     -10.205725      -277.7119
   4   2.0000      -0.985017       -26.8037
   5   2.0000      -0.803528       -21.8651
   6   2.0000      -0.657080       -17.8801
   7   2.0000      -0.567349       -15.4384
   8   2.0000      -0.487695       -13.2709
   9   2.0000      -0.459205       -12.4956
  10   2.0000      -0.409152       -11.1336
  11   2.0000      -0.369514       -10.0550
  12   2.0000      -0.361461        -9.8358
  13   2.0000      -0.292874        -7.9695
  14   2.0000      -0.255994        -6.9659
  15   0.0000      -0.080405        -2.1879
  16   0.0000       0.030234         0.8227
  17   0.0000       0.047177         1.2838
  18   0.0000       0.092443         2.5155
  19   0.0000       0.102061         2.7772

MULLIKEN ATOMIC CHARGES
-----------------------
   0 C :    0.186137
   1 O :   -0.272980
   2 C :   -0.151123
   3 C :    0.205096
   4 H :    0.024591
   5 H :    0.042211
   6 H :   -0.063951
   7 H :    0.030019
Sum of atomic charges:   -0.0000000

LOEWDIN ATOMIC CHARGES
----------------------
   0 C :    0.048838
   1 O :   -0.113802
   2 C :   -0.073989
   3 C :    0.063676
   4 H :    0.009740
   5 H :    0.053253
   6 H :   -0.037943
   7 H :    0.050227

  Mayer bond orders larger than 0.100000
B(  0-C ,  1-O ) :   2.0661 B(  0-C ,  2-C ) :   1.0194 B(  0-C ,  4-H ) :   0.9213
B(  2-C ,  3-C ) :   1.9679 B(  2-C ,  5-H ) :   0.9340 B(  3-C ,  6-H ) :   0.9435
B(  3-C ,  7-H ) :   0.9455

-----------------------------------------------------------------------------
         ABSORPTION SPECTRUM VIA TRANSITION ELECTRIC DIPOLE MOMENTS
-----------------------------------------------------------------------------
State   Energy    Wavelength  fosc         T2        TX        TY        TZ
        (cm-1)      (nm)                 (au**2)    (au)      (au)      (au)
-----------------------------------------------------------------------------
   1   24731.3    404.3   0.000080005   0.00106   0.01302  -0.00138   0.02989

FINAL SINGLE POINT ENERGY      -191.621393784511

DIPOLE MOMENT
-------------
                                X             Y             Z
Electronic contribution:     -1.99212      -1.87080       0.15952
Nuclear contribution   :      2.37660       2.92295      -0.22656
                        -----------------------------------------
Total Dipole Moment    :      0.38448       1.05215      -0.06704
                        -----------------------------------------
Magnitude (a.u.)       :      1.12221
Magnitude (Debye)      :      2.85242

Rotational constants in cm-1:     0.681207     0.203137     0.157295
Rotational constants in MHz : 20422.071763  6089.898159  4715.592342

                             ****ORCA TERMINATED NORMALLY****
TOTAL RUN TIME: 0 days 0 hours 3 minutes 23 seconds 161 msec
