                         Program Version 5.0.3 -  RELEASE  -
|  1> ! HF-3c
|  2> !TightSCF
|  3> %scf
|  4>  ConvForced true
|  5>  convergence tight
|  6>  MaxIter 500
|  7> end
|  8>
|  9> %tddft
| 10>  nroots 1
| 11> end
| 12>
| 13> # 	31477
| 14> * xyz 0 1
| 15> 		C   -0.573620  -0.429414   0.047921
| 16> 		O   -0.632594  -1.679036  -0.046711
| 17> 		C    0.652538   0.369123  -0.037579
| 18> 		C    1.879559  -0.037458   0.024428
| 19> 		H   -1.509939   0.172807   0.329083
| 20> 		H    0.555751   1.490777  -0.207425
| 21> 		H    1.961904  -1.137908   0.353596
| 22> 		H    2.675821   0.531907  -0.177431
| 23> *
| 24>
| 25>                          ****END OF INPUT****

CARTESIAN COORDINATES (ANGSTROEM)
---------------------------------
  C     -0.573620   -0.429414    0.047921
  O     -0.632594   -1.679036   -0.046711
  C      0.652538    0.369123   -0.037579
  C      1.879559   -0.037458    0.024428
  H     -1.509939    0.172807    0.329083
  H      0.555751    1.490777   -0.207425
  H      1.961904   -1.137908    0.353596
  H      2.675821    0.531907   -0.177431

 Total Charge           Charge          ....    0
 Multiplicity           Mult            ....    1
 Number of Electrons    NEL             ....   30
 Basis Dimension        Dim             ....   24

ORBITAL ENERGIES
----------------

  NO   OCC          E(Eh)            E(eV)
   0   2.0000     -20.359346      -554.0060
   1   2.0000     -11.290692      -307.2353
   2   2.0000     -11.193094      -304.5796
   3   2.0000     -11.191318      -304.5313
   4   2.0000      -1.371799       -37.3285
   5   2.0000      -1.092910       -29.7396
   6   2.0000      -0.899164       -24.4675
   7   2.0000      -0.738295       -20.0900
   8   2.0000      -0.699680       -19.0393
   9   2.0000      -0.623993       -16.9797
  10   2.0000      -0.596530       -16.2324
  11   2.0000      -0.523066       -14.2333
  12   2.0000      -0.506474       -13.7818
  13   2.0000      -0.419963       -11.4278
  14   2.0000      -0.399478       -10.8704
  15   0.0000       0.124366         3.3842
  16   0.0000       0.309176         8.4131
  17   0.0000       0.533538        14.5183
  18   0.0000       0.586907        15.9705
  19   0.0000       0.613558        16.6958

MULLIKEN ATOMIC CHARGES
-----------------------
   0 C :    0.156496
   1 O :   -0.342013
   2 C :   -0.172342
   3 C :   -0.232220
   4 H :    0.139696
   5 H :    0.141503
   6 H :    0.161841
   7 H :    0.147040
Sum of atomic charges:    0.0000000

LOEWDIN ATOMIC CHARGES
----------------------
   0 C :    0.145575
   1 O :   -0.260194
   2 C :   -0.130168
   3 C :   -0.131392
   4 H :    0.080664
   5 H :    0.093578
   6 H :    0.112716
   7 H :    0.089222

  Mayer bond orders larger than 0.100000
B(  0-C ,  1-O ) :   1.9035 B(  0-C ,  2-C ) :   1.0363 B(  0-C ,  4-H ) :   0.9249
B(  2-C ,  3-C ) :   1.9519 B(  2-C ,  5-H ) :   0.9516 B(  3-C ,  6-H ) :   0.9534
B(  3-C ,  7-H ) :   0.9660

-----------------------------------------------------------------------------
         ABSORPTION SPECTRUM VIA TRANSITION ELECTRIC DIPOLE MOMENTS
-----------------------------------------------------------------------------
State   Energy    Wavelength  fosc         T2        TX        TY        TZ
        (cm-1)      (nm)                 (au**2)    (au)      (au)      (au)
-----------------------------------------------------------------------------
   1   30211.8    331.0   0.000020491   0.00022   0.00684  -0.00600  -0.01185

Dispersion correction           -0.025574325
FINAL SINGLE POINT ENERGY      -189.333613743436

DIPOLE MOMENT
-------------
                                X             Y             Z
Electronic contribution:     -2.00984      -1.81390      -0.16426
Nuclear contribution   :      2.29630       2.77981       0.28070
                        -----------------------------------------
Total Dipole Moment    :      0.28645       0.96591       0.11644
                        -----------------------------------------
Magnitude (a.u.)       :      1.01420
Magnitude (Debye)      :      2.57789

Rotational constants in cm-1:     0.813372     0.195320     0.158675
Rotational constants in MHz : 24384.268457  5855.543560  4756.962902

                             ****ORCA TERMINATED NORMALLY****
TOTAL RUN TIME: 0 days 0 hours 0 minutes 10 seconds 779 msec
