                         Program Version 5.0.3 -  RELEASE  -
|  1> ! B3LYP cc-pVDZ
|  2> !TightSCF
|  3> %scf
|  4>  ConvForced true
|  5>  convergence tight
|  6>  MaxIter 500
|  7> end
|  8>
|  9> %tddft
| 10>  nroots 1
| 11> end
| 12>
| 13> # 	22388
| 14> * xyz 0 1
| 15> 		C   -0.633421  -0.458101  -0.024466
| 16> 		O   -0.560967  -1.605098   0.011399
| 17> 		C    0.624968   0.419845   0.024487
| 18> 		C    1.878334  -0.130650  -0.032526
| 19> 		H   -1.538840   0.086562  -0.038755
| 20> 		H    0.424007   1.516738   0.081521
| 21> 		H    2.014352  -1.314468   0.129906
| 22> 		H    2.668679   0.460872   0.038286
| 23> *
| 24>
| 25>                          ****END OF INPUT****

CARTESIAN COORDINATES (ANGSTROEM)
---------------------------------
  C     -0.633421   -0.458101   -0.024466
  O     -0.560967   -1.605098    0.011399
  C      0.624968    0.419845    0.024487
  C      1.878334   -0.130650   -0.032526
  H     -1.538840    0.086562   -0.038755
  H      0.424007    1.516738    0.081521
  H      2.014352   -1.314468    0.129906
  H      2.668679    0.460872    0.038286

 Total Charge           Charge          ....    0
 Multiplicity           Mult            ....    1
 Number of Electrons    NEL             ....   30
 Basis Dimension        Dim             ....   76

ORBITAL ENERGIES
----------------

  NO   OCC          E(Eh)            E(eV)
   0   2.0000     -19.139202      -520.8042
   1   2.0000     -10.268439      -279.4184
   2   2.0000     -10.209297      -277.8091
   3   2.0000     -10.204369      -277.6750
   4   2.0000      -1.082797       -29.4644
   5   2.0000      -0.776065       -21.1178
   6   2.0000      -0.652964       -17.7680
   7   2.0000      -0.550489       -14.9796
   8   2.0000      -0.498363       -13.5611
   9   2.0000      -0.448675       -12.2091
  10   2.0000      -0.433163       -11.7870
  11   2.0000      -0.416137       -11.3237
  12   2.0000      -0.376883       -10.2555
  13   2.0000      -0.279070        -7.5939
  14   2.0000      -0.254457        -6.9241
  15   0.0000      -0.061325        -1.6687
  16   0.0000       0.059028         1.6062
  17   0.0000       0.074495         2.0271
  18   0.0000       0.090068         2.4509
  19   0.0000       0.123222         3.3530

MULLIKEN ATOMIC CHARGES
-----------------------
   0 C :    0.206352
   1 O :   -0.136703
   2 C :   -0.167544
   3 C :    0.078754
   4 H :   -0.041549
   5 H :   -0.002643
   6 H :    0.064757
   7 H :   -0.001425
Sum of atomic charges:   -0.0000000

LOEWDIN ATOMIC CHARGES
----------------------
   0 C :   -0.061776
   1 O :    0.061775
   2 C :   -0.077676
   3 C :    0.016349
   4 H :   -0.018366
   5 H :    0.025358
   6 H :    0.057615
   7 H :   -0.003279

  Mayer bond orders larger than 0.100000
B(  0-C ,  1-O ) :   2.2706 B(  0-C ,  2-C ) :   1.0158 B(  0-C ,  4-H ) :   0.9165
B(  2-C ,  3-C ) :   1.9734 B(  2-C ,  5-H ) :   0.9426 B(  3-C ,  6-H ) :   0.9345
B(  3-C ,  7-H ) :   0.9405

-----------------------------------------------------------------------------
         ABSORPTION SPECTRUM VIA TRANSITION ELECTRIC DIPOLE MOMENTS
-----------------------------------------------------------------------------
State   Energy    Wavelength  fosc         T2        TX        TY        TZ
        (cm-1)      (nm)                 (au**2)    (au)      (au)      (au)
-----------------------------------------------------------------------------
   1   29886.0    334.6   0.000044962   0.00050   0.01914  -0.00738  -0.00864

FINAL SINGLE POINT ENERGY      -191.644955189476

DIPOLE MOMENT
-------------
                                X             Y             Z
Electronic contribution:     -1.97604      -1.72315      -0.15952
Nuclear contribution   :      2.19146       2.49085       0.19778
                        -----------------------------------------
Total Dipole Moment    :      0.21543       0.76770       0.03825
                        -----------------------------------------
Magnitude (a.u.)       :      0.79827
Magnitude (Debye)      :      2.02904

Rotational constants in cm-1:     0.749554     0.209250     0.163761
Rotational constants in MHz : 22471.068326  6273.162928  4909.426565

                             ****ORCA TERMINATED NORMALLY****
TOTAL RUN TIME: 0 days 0 hours 2 minutes 59 seconds 763 msec
