                         Program Version 5.0.3 -  RELEASE  -
|  1> ! HF-3c
|  2> !TightSCF
|  3> %scf
|  4>  ConvForced true
|  5>  convergence tight
|  6>  MaxIter 500
|  7> end
|  8>
|  9> %tddft
| 10>  nroots 1
| 11> end
| 12>
| 13> # 	29544
| 14> * xyz 0 1
| 15> 		C   -0.604007  -0.452417   0.038765
| 16> 		O   -0.600902  -1.650872  -0.022782
| 17> 		C    0.649710   0.398414  -0.000917
| 18> 		C    1.851199  -0.070218  -0.002273
| 19> 		H   -1.502388   0.137473  -0.056784
| 20> 		H    0.601900   1.499034  -0.085352
| 21> 		H    1.987935  -1.194875   0.186198
| 22> 		H    2.825017   0.486793  -0.118739
| 23> *
| 24>
| 25>                          ****END OF INPUT****

CARTESIAN COORDINATES (ANGSTROEM)
---------------------------------
  C     -0.604007   -0.452417    0.038765
  O     -0.600902   -1.650872   -0.022782
  C      0.649710    0.398414   -0.000917
  C      1.851199   -0.070218   -0.002273
  H     -1.502388    0.137473   -0.056784
  H      0.601900    1.499034   -0.085352
  H      1.987935   -1.194875    0.186198
  H      2.825017    0.486793   -0.118739

 Total Charge           Charge          ....    0
 Multiplicity           Mult            ....    1
 Number of Electrons    NEL             ....   30
 Basis Dimension        Dim             ....   24

ORBITAL ENERGIES
----------------

  NO   OCC          E(Eh)            E(eV)
   0   2.0000     -20.377705      -554.5055
   1   2.0000     -11.305646      -307.6423
   2   2.0000     -11.184436      -304.3440
   3   2.0000     -11.181494      -304.2639
   4   2.0000      -1.414172       -38.4816
   5   2.0000      -1.079667       -29.3792
   6   2.0000      -0.884823       -24.0773
   7   2.0000      -0.743328       -20.2270
   8   2.0000      -0.702165       -19.1069
   9   2.0000      -0.615272       -16.7424
  10   2.0000      -0.599296       -16.3077
  11   2.0000      -0.547998       -14.9118
  12   2.0000      -0.506511       -13.7829
  13   2.0000      -0.416496       -11.3334
  14   2.0000      -0.403615       -10.9829
  15   0.0000       0.142827         3.8865
  16   0.0000       0.314865         8.5679
  17   0.0000       0.519895        14.1471
  18   0.0000       0.592701        16.1282
  19   0.0000       0.621869        16.9219

MULLIKEN ATOMIC CHARGES
-----------------------
   0 C :    0.173761
   1 O :   -0.349910
   2 C :   -0.189844
   3 C :   -0.210437
   4 H :    0.139178
   5 H :    0.141382
   6 H :    0.149426
   7 H :    0.146444
Sum of atomic charges:   -0.0000000

LOEWDIN ATOMIC CHARGES
----------------------
   0 C :    0.155451
   1 O :   -0.250488
   2 C :   -0.149173
   3 C :   -0.119161
   4 H :    0.072345
   5 H :    0.091629
   6 H :    0.100956
   7 H :    0.098440

  Mayer bond orders larger than 0.100000
B(  0-C ,  1-O ) :   1.9247 B(  0-C ,  2-C ) :   0.9996 B(  0-C ,  4-H ) :   0.9253
B(  2-C ,  3-C ) :   1.9680 B(  2-C ,  5-H ) :   0.9559 B(  3-C ,  6-H ) :   0.9554
B(  3-C ,  7-H ) :   0.9615

-----------------------------------------------------------------------------
         ABSORPTION SPECTRUM VIA TRANSITION ELECTRIC DIPOLE MOMENTS
-----------------------------------------------------------------------------
State   Energy    Wavelength  fosc         T2        TX        TY        TZ
        (cm-1)      (nm)                 (au**2)    (au)      (au)      (au)
-----------------------------------------------------------------------------
   1   33828.0    295.6   0.000043059   0.00042  -0.01978  -0.00304  -0.00432

Dispersion correction           -0.025468580
FINAL SINGLE POINT ENERGY      -189.332813706985

DIPOLE MOMENT
-------------
                                X             Y             Z
Electronic contribution:     -2.18780      -1.75428       0.08591
Nuclear contribution   :      2.51166       2.65889      -0.06956
                        -----------------------------------------
Total Dipole Moment    :      0.32386       0.90461       0.01635
                        -----------------------------------------
Magnitude (a.u.)       :      0.96097
Magnitude (Debye)      :      2.44260

Rotational constants in cm-1:     0.806561     0.200392     0.160776
Rotational constants in MHz : 24180.099794  6007.614341  4819.953288

                             ****ORCA TERMINATED NORMALLY****
TOTAL RUN TIME: 0 days 0 hours 0 minutes 16 seconds 122 msec
