                         Program Version 5.0.3 -  RELEASE  -
|  1> ! HF-3c
|  2> !TightSCF
|  3> %scf
|  4>  ConvForced true
|  5>  convergence tight
|  6>  MaxIter 500
|  7> end
|  8>
|  9> %tddft
| 10>  nroots 1
| 11> end
| 12>
| 13> # 	9166
| 14> * xyz 0 1
| 15> 		C   -1.191108  -0.311461   0.043225
| 16> 		O   -1.472520  -1.315764   0.677036
| 17> 		C   -0.006027   0.467314   0.263074
| 18> 		C    1.189062   0.009395  -0.125942
| 19> 		H   -1.844564   0.035317  -0.871387
| 20> 		H   -0.171528   1.516682   0.661130
| 21> 		H    1.337840  -1.003283  -0.606909
| 22> 		H    2.147347   0.602497  -0.054947
| 23> *
| 24>
| 25>                          ****END OF INPUT****

CARTESIAN COORDINATES (ANGSTROEM)
---------------------------------
  C     -1.191108   -0.311461    0.043225
  O     -1.472520   -1.315764    0.677036
  C     -0.006027    0.467314    0.263074
  C      1.189062    0.009395   -0.125942
  H     -1.844564    0.035317   -0.871387
  H     -0.171528    1.516682    0.661130
  H      1.337840   -1.003283   -0.606909
  H      2.147347    0.602497   -0.054947

 Total Charge           Charge          ....    0
 Multiplicity           Mult            ....    1
 Number of Electrons    NEL             ....   30
 Basis Dimension        Dim             ....   24

ORBITAL ENERGIES
----------------

  NO   OCC          E(Eh)            E(eV)
   0   2.0000     -20.365337      -554.1690
   1   2.0000     -11.293746      -307.3185
   2   2.0000     -11.189719      -304.4877
   3   2.0000     -11.181487      -304.2637
   4   2.0000      -1.394745       -37.9529
   5   2.0000      -1.077191       -29.3119
   6   2.0000      -0.881929       -23.9985
   7   2.0000      -0.739182       -20.1142
   8   2.0000      -0.679121       -18.4798
   9   2.0000      -0.624185       -16.9849
  10   2.0000      -0.603070       -16.4104
  11   2.0000      -0.530341       -14.4313
  12   2.0000      -0.492858       -13.4114
  13   2.0000      -0.409209       -11.1351
  14   2.0000      -0.394526       -10.7356
  15   0.0000       0.176769         4.8101
  16   0.0000       0.228862         6.2277
  17   0.0000       0.540772        14.7151
  18   0.0000       0.579954        15.7814
  19   0.0000       0.632166        17.2021

MULLIKEN ATOMIC CHARGES
-----------------------
   0 C :    0.169381
   1 O :   -0.344978
   2 C :   -0.176961
   3 C :   -0.219811
   4 H :    0.136538
   5 H :    0.153398
   6 H :    0.141980
   7 H :    0.140452
Sum of atomic charges:   -0.0000000

LOEWDIN ATOMIC CHARGES
----------------------
   0 C :    0.149587
   1 O :   -0.253975
   2 C :   -0.133672
   3 C :   -0.134531
   4 H :    0.079369
   5 H :    0.104980
   6 H :    0.094714
   7 H :    0.093529

  Mayer bond orders larger than 0.100000
B(  0-C ,  1-O ) :   1.9342 B(  0-C ,  2-C ) :   1.0160 B(  0-C ,  4-H ) :   0.9089
B(  2-C ,  3-C ) :   1.9796 B(  2-C ,  5-H ) :   0.9439 B(  3-C ,  6-H ) :   0.9633
B(  3-C ,  7-H ) :   0.9632

-----------------------------------------------------------------------------
         ABSORPTION SPECTRUM VIA TRANSITION ELECTRIC DIPOLE MOMENTS
-----------------------------------------------------------------------------
State   Energy    Wavelength  fosc         T2        TX        TY        TZ
        (cm-1)      (nm)                 (au**2)    (au)      (au)      (au)
-----------------------------------------------------------------------------
   1   34015.3    294.0   0.000010940   0.00011  -0.00376   0.00736  -0.00614

Dispersion correction           -0.025135291
FINAL SINGLE POINT ENERGY      -189.319971541594

DIPOLE MOMENT
-------------
                                X             Y             Z
Electronic contribution:     -2.41658      -1.44524       1.04646
Nuclear contribution   :      2.84665       2.26384      -1.62258
                        -----------------------------------------
Total Dipole Moment    :      0.43007       0.81860      -0.57612
                        -----------------------------------------
Magnitude (a.u.)       :      1.08949
Magnitude (Debye)      :      2.76925

Rotational constants in cm-1:     0.861326     0.184140     0.164942
Rotational constants in MHz : 25821.900291  5520.377477  4944.822903

                             ****ORCA TERMINATED NORMALLY****
TOTAL RUN TIME: 0 days 0 hours 0 minutes 13 seconds 54 msec
