                         Program Version 5.0.3 -  RELEASE  -
|  1> ! HF-3c
|  2> !TightSCF
|  3> %scf
|  4>  ConvForced true
|  5>  convergence tight
|  6>  MaxIter 500
|  7> end
|  8>
|  9> %tddft
| 10>  nroots 1
| 11> end
| 12>
| 13> # 	15826
| 14> * xyz 0 1
| 15> 		C   -1.198057  -0.331918  -0.044231
| 16> 		O   -1.606926  -1.300765  -0.697120
| 17> 		C   -0.008546   0.459640  -0.243162
| 18> 		C    1.221031   0.065986   0.156706
| 19> 		H   -1.771449  -0.110196   0.987088
| 20> 		H   -0.125655   1.349706  -0.747432
| 21> 		H    1.373274  -0.986788   0.507267
| 22> 		H    2.136408   0.883570   0.071377
| 23> *
| 24>
| 25>                          ****END OF INPUT****

CARTESIAN COORDINATES (ANGSTROEM)
---------------------------------
  C     -1.198057   -0.331918   -0.044231
  O     -1.606926   -1.300765   -0.697120
  C     -0.008546    0.459640   -0.243162
  C      1.221031    0.065986    0.156706
  H     -1.771449   -0.110196    0.987088
  H     -0.125655    1.349706   -0.747432
  H      1.373274   -0.986788    0.507267
  H      2.136408    0.883570    0.071377

 Total Charge           Charge          ....    0
 Multiplicity           Mult            ....    1
 Number of Electrons    NEL             ....   30
 Basis Dimension        Dim             ....   24

ORBITAL ENERGIES
----------------

  NO   OCC          E(Eh)            E(eV)
   0   2.0000     -20.361644      -554.0685
   1   2.0000     -11.288978      -307.1887
   2   2.0000     -11.187872      -304.4375
   3   2.0000     -11.183942      -304.3305
   4   2.0000      -1.380215       -37.5576
   5   2.0000      -1.077936       -29.3321
   6   2.0000      -0.875611       -23.8266
   7   2.0000      -0.749430       -20.3930
   8   2.0000      -0.673804       -18.3351
   9   2.0000      -0.611071       -16.6281
  10   2.0000      -0.595098       -16.1934
  11   2.0000      -0.537769       -14.6334
  12   2.0000      -0.484094       -13.1729
  13   2.0000      -0.407330       -11.0840
  14   2.0000      -0.389856       -10.6085
  15   0.0000       0.186272         5.0687
  16   0.0000       0.200266         5.4495
  17   0.0000       0.508972        13.8498
  18   0.0000       0.557066        15.1585
  19   0.0000       0.613748        16.7009

MULLIKEN ATOMIC CHARGES
-----------------------
   0 C :    0.168809
   1 O :   -0.342217
   2 C :   -0.201806
   3 C :   -0.204397
   4 H :    0.134275
   5 H :    0.150804
   6 H :    0.144892
   7 H :    0.149638
Sum of atomic charges:    0.0000000

LOEWDIN ATOMIC CHARGES
----------------------
   0 C :    0.151308
   1 O :   -0.255739
   2 C :   -0.150499
   3 C :   -0.125307
   4 H :    0.079667
   5 H :    0.094591
   6 H :    0.096559
   7 H :    0.109421

  Mayer bond orders larger than 0.100000
B(  0-C ,  1-O ) :   1.9405 B(  0-C ,  2-C ) :   1.0118 B(  0-C ,  4-H ) :   0.9077
B(  2-C ,  3-C ) :   1.9752 B(  2-C ,  5-H ) :   0.9503 B(  3-C ,  6-H ) :   0.9633
B(  3-C ,  7-H ) :   0.9575

-----------------------------------------------------------------------------
         ABSORPTION SPECTRUM VIA TRANSITION ELECTRIC DIPOLE MOMENTS
-----------------------------------------------------------------------------
State   Energy    Wavelength  fosc         T2        TX        TY        TZ
        (cm-1)      (nm)                 (au**2)    (au)      (au)      (au)
-----------------------------------------------------------------------------
   1   32808.2    304.8   0.000091547   0.00092   0.01675   0.00998  -0.02321

Dispersion correction           -0.024937762
FINAL SINGLE POINT ENERGY      -189.303780165371

DIPOLE MOMENT
-------------
                                X             Y             Z
Electronic contribution:     -2.48696      -1.44885      -0.99876
Nuclear contribution   :      3.09590       2.21198       1.55695
                        -----------------------------------------
Total Dipole Moment    :      0.60893       0.76313       0.55818
                        -----------------------------------------
Magnitude (a.u.)       :      1.12461
Magnitude (Debye)      :      2.85852

Rotational constants in cm-1:     0.964136     0.167715     0.155308
Rotational constants in MHz : 28904.059858  5027.982665  4656.024193

                             ****ORCA TERMINATED NORMALLY****
TOTAL RUN TIME: 0 days 0 hours 0 minutes 14 seconds 473 msec
