                         Program Version 5.0.3 -  RELEASE  -
|  1> ! HF-3c
|  2> !TightSCF
|  3> %scf
|  4>  ConvForced true
|  5>  convergence tight
|  6>  MaxIter 500
|  7> end
|  8>
|  9> %tddft
| 10>  nroots 1
| 11> end
| 12>
| 13> # 	10283
| 14> * xyz 0 1
| 15> 		C   -1.209178  -0.294108   0.048999
| 16> 		O   -1.224959  -1.494927  -0.210994
| 17> 		C   -0.021602   0.507642  -0.062018
| 18> 		C    1.291640  -0.001061   0.051129
| 19> 		H   -2.150020   0.196987   0.151195
| 20> 		H   -0.154638   1.499429  -0.191470
| 21> 		H    1.347492  -1.117000   0.327077
| 22> 		H    2.097683   0.771933  -0.152909
| 23> *
| 24>
| 25>                          ****END OF INPUT****

CARTESIAN COORDINATES (ANGSTROEM)
---------------------------------
  C     -1.209178   -0.294108    0.048999
  O     -1.224959   -1.494927   -0.210994
  C     -0.021602    0.507642   -0.062018
  C      1.291640   -0.001061    0.051129
  H     -2.150020    0.196987    0.151195
  H     -0.154638    1.499429   -0.191470
  H      1.347492   -1.117000    0.327077
  H      2.097683    0.771933   -0.152909

 Total Charge           Charge          ....    0
 Multiplicity           Mult            ....    1
 Number of Electrons    NEL             ....   30
 Basis Dimension        Dim             ....   24

ORBITAL ENERGIES
----------------

  NO   OCC          E(Eh)            E(eV)
   0   2.0000     -20.348581      -553.7130
   1   2.0000     -11.286416      -307.1190
   2   2.0000     -11.192535      -304.5644
   3   2.0000     -11.176679      -304.1329
   4   2.0000      -1.383941       -37.6589
   5   2.0000      -1.061453       -28.8836
   6   2.0000      -0.893284       -24.3075
   7   2.0000      -0.748500       -20.3677
   8   2.0000      -0.707236       -19.2449
   9   2.0000      -0.597330       -16.2542
  10   2.0000      -0.581518       -15.8239
  11   2.0000      -0.538162       -14.6441
  12   2.0000      -0.524355       -14.2684
  13   2.0000      -0.414686       -11.2842
  14   2.0000      -0.368151       -10.0179
  15   0.0000       0.118029         3.2117
  16   0.0000       0.293592         7.9891
  17   0.0000       0.527797        14.3621
  18   0.0000       0.595719        16.2103
  19   0.0000       0.702110        19.1054

MULLIKEN ATOMIC CHARGES
-----------------------
   0 C :    0.138311
   1 O :   -0.351598
   2 C :   -0.196190
   3 C :   -0.187387
   4 H :    0.138732
   5 H :    0.135033
   6 H :    0.168472
   7 H :    0.154627
Sum of atomic charges:    0.0000000

LOEWDIN ATOMIC CHARGES
----------------------
   0 C :    0.132325
   1 O :   -0.264811
   2 C :   -0.151696
   3 C :   -0.093057
   4 H :    0.072783
   5 H :    0.079440
   6 H :    0.118325
   7 H :    0.106691

  Mayer bond orders larger than 0.100000
B(  0-C ,  1-O ) :   1.8755 B(  0-C ,  2-C ) :   1.0660 B(  0-C ,  4-H ) :   0.9331
B(  2-C ,  3-C ) :   1.9035 B(  2-C ,  5-H ) :   0.9650 B(  3-C ,  6-H ) :   0.9568
B(  3-C ,  7-H ) :   0.9628

-----------------------------------------------------------------------------
         ABSORPTION SPECTRUM VIA TRANSITION ELECTRIC DIPOLE MOMENTS
-----------------------------------------------------------------------------
State   Energy    Wavelength  fosc         T2        TX        TY        TZ
        (cm-1)      (nm)                 (au**2)    (au)      (au)      (au)
-----------------------------------------------------------------------------
   1   30498.6    327.9   0.000006728   0.00007   0.00276  -0.00440   0.00676

Dispersion correction           -0.025609305
FINAL SINGLE POINT ENERGY      -189.325549184470

DIPOLE MOMENT
-------------
                                X             Y             Z
Electronic contribution:     -1.77683      -1.70563      -0.11848
Nuclear contribution   :      2.24250       2.58991       0.30951
                        -----------------------------------------
Total Dipole Moment    :      0.46567       0.88427       0.19104
                        -----------------------------------------
Magnitude (a.u.)       :      1.01749
Magnitude (Debye)      :      2.58625

Rotational constants in cm-1:     0.763033     0.202394     0.161912
Rotational constants in MHz : 22875.157129  6067.620025  4854.000995

                             ****ORCA TERMINATED NORMALLY****
TOTAL RUN TIME: 0 days 0 hours 0 minutes 9 seconds 435 msec
