                         Program Version 5.0.3 -  RELEASE  -
|  1> ! B3LYP cc-pVDZ
|  2> !TightSCF
|  3> %scf
|  4>  ConvForced true
|  5>  convergence tight
|  6>  MaxIter 500
|  7> end
|  8>
|  9> %tddft
| 10>  nroots 1
| 11> end
| 12>
| 13> # 	10822
| 14> * xyz 0 1
| 15> 		C   -1.173539  -0.296978   0.007322
| 16> 		O   -1.171532  -1.488393   0.111374
| 17> 		C    0.035533   0.533877   0.005224
| 18> 		C    1.249256  -0.063809   0.032572
| 19> 		H   -2.266767   0.272149  -0.047737
| 20> 		H   -0.173381   1.557768  -0.047298
| 21> 		H    1.286828  -1.115039  -0.089535
| 22> 		H    2.138119   0.595063   0.014280
| 23> *
| 24>
| 25>                          ****END OF INPUT****

CARTESIAN COORDINATES (ANGSTROEM)
---------------------------------
  C     -1.173539   -0.296978    0.007322
  O     -1.171532   -1.488393    0.111374
  C      0.035533    0.533877    0.005224
  C      1.249256   -0.063809    0.032572
  H     -2.266767    0.272149   -0.047737
  H     -0.173381    1.557768   -0.047298
  H      1.286828   -1.115039   -0.089535
  H      2.138119    0.595063    0.014280

 Total Charge           Charge          ....    0
 Multiplicity           Mult            ....    1
 Number of Electrons    NEL             ....   30
 Basis Dimension        Dim             ....   76

ORBITAL ENERGIES
----------------

  NO   OCC          E(Eh)            E(eV)
   0   2.0000     -19.138178      -520.7763
   1   2.0000     -10.278489      -279.6919
   2   2.0000     -10.216768      -278.0124
   3   2.0000     -10.203885      -277.6618
   4   2.0000      -1.055093       -28.7106
   5   2.0000      -0.797474       -21.7004
   6   2.0000      -0.655478       -17.8365
   7   2.0000      -0.534529       -14.5453
   8   2.0000      -0.507149       -13.8002
   9   2.0000      -0.452328       -12.3085
  10   2.0000      -0.418212       -11.3801
  11   2.0000      -0.404651       -11.0111
  12   2.0000      -0.393390       -10.7047
  13   2.0000      -0.287980        -7.8363
  14   2.0000      -0.253540        -6.8992
  15   0.0000      -0.071810        -1.9540
  16   0.0000       0.061962         1.6861
  17   0.0000       0.064748         1.7619
  18   0.0000       0.088862         2.4181
  19   0.0000       0.120412         3.2766

MULLIKEN ATOMIC CHARGES
-----------------------
   0 C :    0.127282
   1 O :   -0.174898
   2 C :   -0.074679
   3 C :    0.101602
   4 H :   -0.022984
   5 H :   -0.027464
   6 H :    0.030887
   7 H :    0.040254
Sum of atomic charges:    0.0000000

LOEWDIN ATOMIC CHARGES
----------------------
   0 C :   -0.055190
   1 O :    0.006683
   2 C :   -0.070185
   3 C :    0.042698
   4 H :   -0.006062
   5 H :    0.016611
   6 H :    0.026767
   7 H :    0.038678

  Mayer bond orders larger than 0.100000
B(  0-C ,  1-O ) :   2.1988 B(  0-C ,  2-C ) :   1.0583 B(  0-C ,  4-H ) :   0.8915
B(  2-C ,  3-C ) :   1.9512 B(  2-C ,  5-H ) :   0.9528 B(  3-C ,  6-H ) :   0.9279
B(  3-C ,  7-H ) :   0.9432

-----------------------------------------------------------------------------
         ABSORPTION SPECTRUM VIA TRANSITION ELECTRIC DIPOLE MOMENTS
-----------------------------------------------------------------------------
State   Energy    Wavelength  fosc         T2        TX        TY        TZ
        (cm-1)      (nm)                 (au**2)    (au)      (au)      (au)
-----------------------------------------------------------------------------
   1   27466.7    364.1   0.000184036   0.00221   0.00074  -0.00100   0.04695

FINAL SINGLE POINT ENERGY      -191.673387380887

DIPOLE MOMENT
-------------
                                X             Y             Z
Electronic contribution:     -1.52878      -1.74880       0.20259
Nuclear contribution   :      2.00964       2.57872      -0.30274
                        -----------------------------------------
Total Dipole Moment    :      0.48086       0.82992      -0.10015
                        -----------------------------------------
Magnitude (a.u.)       :      0.96438
Magnitude (Debye)      :      2.45126

Rotational constants in cm-1:     0.748380     0.215358     0.167389
Rotational constants in MHz : 22435.855480  6456.277415  5018.194376

                             ****ORCA TERMINATED NORMALLY****
TOTAL RUN TIME: 0 days 0 hours 3 minutes 19 seconds 567 msec
