                         Program Version 5.0.3 -  RELEASE  -
|  1> ! HF-3c
|  2> !TightSCF
|  3> %scf
|  4>  ConvForced true
|  5>  convergence tight
|  6>  MaxIter 500
|  7> end
|  8>
|  9> %tddft
| 10>  nroots 1
| 11> end
| 12>
| 13> # 	24485
| 14> * xyz 0 1
| 15> 		C   -0.592586  -0.423886   0.039350
| 16> 		O   -0.548277  -1.638769  -0.020578
| 17> 		C    0.597159   0.466427  -0.055833
| 18> 		C    1.857474  -0.169308  -0.002129
| 19> 		H   -1.698635   0.071481   0.189879
| 20> 		H    0.456139   1.551569   0.013273
| 21> 		H    1.954352  -1.266156   0.171900
| 22> 		H    2.757489   0.424433   0.177677
| 23> *
| 24>
| 25>                          ****END OF INPUT****

CARTESIAN COORDINATES (ANGSTROEM)
---------------------------------
  C     -0.592586   -0.423886    0.039350
  O     -0.548277   -1.638769   -0.020578
  C      0.597159    0.466427   -0.055833
  C      1.857474   -0.169308   -0.002129
  H     -1.698635    0.071481    0.189879
  H      0.456139    1.551569    0.013273
  H      1.954352   -1.266156    0.171900
  H      2.757489    0.424433    0.177677

 Total Charge           Charge          ....    0
 Multiplicity           Mult            ....    1
 Number of Electrons    NEL             ....   30
 Basis Dimension        Dim             ....   24

ORBITAL ENERGIES
----------------

  NO   OCC          E(Eh)            E(eV)
   0   2.0000     -20.345923      -553.6407
   1   2.0000     -11.283730      -307.0459
   2   2.0000     -11.190312      -304.5039
   3   2.0000     -11.183284      -304.3126
   4   2.0000      -1.386237       -37.7214
   5   2.0000      -1.050575       -28.5876
   6   2.0000      -0.871525       -23.7154
   7   2.0000      -0.728295       -19.8179
   8   2.0000      -0.685565       -18.6552
   9   2.0000      -0.598779       -16.2936
  10   2.0000      -0.572187       -15.5700
  11   2.0000      -0.532695       -14.4954
  12   2.0000      -0.527581       -14.3562
  13   2.0000      -0.397189       -10.8081
  14   2.0000      -0.371020       -10.0960
  15   0.0000       0.123128         3.3505
  16   0.0000       0.295607         8.0439
  17   0.0000       0.499549        13.5934
  18   0.0000       0.600536        16.3414
  19   0.0000       0.619788        16.8653

MULLIKEN ATOMIC CHARGES
-----------------------
   0 C :    0.170242
   1 O :   -0.369828
   2 C :   -0.177327
   3 C :   -0.200080
   4 H :    0.129300
   5 H :    0.144123
   6 H :    0.162167
   7 H :    0.141402
Sum of atomic charges:   -0.0000000

LOEWDIN ATOMIC CHARGES
----------------------
   0 C :    0.144085
   1 O :   -0.278010
   2 C :   -0.136508
   3 C :   -0.100724
   4 H :    0.076434
   5 H :    0.093422
   6 H :    0.109435
   7 H :    0.091866

  Mayer bond orders larger than 0.100000
B(  0-C ,  1-O ) :   1.8956 B(  0-C ,  2-C ) :   1.0355 B(  0-C ,  4-H ) :   0.9149
B(  2-C ,  3-C ) :   1.9189 B(  2-C ,  5-H ) :   0.9621 B(  3-C ,  6-H ) :   0.9595
B(  3-C ,  7-H ) :   0.9674

-----------------------------------------------------------------------------
         ABSORPTION SPECTRUM VIA TRANSITION ELECTRIC DIPOLE MOMENTS
-----------------------------------------------------------------------------
State   Energy    Wavelength  fosc         T2        TX        TY        TZ
        (cm-1)      (nm)                 (au**2)    (au)      (au)      (au)
-----------------------------------------------------------------------------
   1   32185.9    310.7   0.000080736   0.00083   0.02564   0.00027   0.01297

Dispersion correction           -0.025169405
FINAL SINGLE POINT ENERGY      -189.327523193977

DIPOLE MOMENT
-------------
                                X             Y             Z
Electronic contribution:     -1.75310      -1.57896      -0.35429
Nuclear contribution   :      2.09829       2.52007       0.51796
                        -----------------------------------------
Total Dipole Moment    :      0.34519       0.94111       0.16367
                        -----------------------------------------
Magnitude (a.u.)       :      1.01569
Magnitude (Debye)      :      2.58168

Rotational constants in cm-1:     0.688011     0.212456     0.162834
Rotational constants in MHz : 20626.041301  6369.280972  4881.633612

                             ****ORCA TERMINATED NORMALLY****
TOTAL RUN TIME: 0 days 0 hours 0 minutes 13 seconds 465 msec
