                         Program Version 5.0.3 -  RELEASE  -
|  1> ! HF-3c
|  2> !TightSCF
|  3> %scf
|  4>  ConvForced true
|  5>  convergence tight
|  6>  MaxIter 500
|  7> end
|  8>
|  9> %tddft
| 10>  nroots 1
| 11> end
| 12>
| 13> # 	29474
| 14> * xyz 0 1
| 15> 		C   -0.576539  -0.427961  -0.067462
| 16> 		O   -0.579417  -1.604079   0.025921
| 17> 		C    0.592773   0.373336   0.053907
| 18> 		C    1.831507  -0.087160  -0.032154
| 19> 		H   -1.524102  -0.049511   0.059098
| 20> 		H    0.578128   1.429994   0.005767
| 21> 		H    2.018176  -1.214139   0.021860
| 22> 		H    3.037112   0.215874   0.048950
| 23> *
| 24>
| 25>                          ****END OF INPUT****

CARTESIAN COORDINATES (ANGSTROEM)
---------------------------------
  C     -0.576539   -0.427961   -0.067462
  O     -0.579417   -1.604079    0.025921
  C      0.592773    0.373336    0.053907
  C      1.831507   -0.087160   -0.032154
  H     -1.524102   -0.049511    0.059098
  H      0.578128    1.429994    0.005767
  H      2.018176   -1.214139    0.021860
  H      3.037112    0.215874    0.048950

 Total Charge           Charge          ....    0
 Multiplicity           Mult            ....    1
 Number of Electrons    NEL             ....   30
 Basis Dimension        Dim             ....   24

ORBITAL ENERGIES
----------------

  NO   OCC          E(Eh)            E(eV)
   0   2.0000     -20.363582      -554.1212
   1   2.0000     -11.304239      -307.6040
   2   2.0000     -11.188383      -304.4514
   3   2.0000     -11.186640      -304.4040
   4   2.0000      -1.426845       -38.8264
   5   2.0000      -1.079659       -29.3790
   6   2.0000      -0.890157       -24.2224
   7   2.0000      -0.760637       -20.6980
   8   2.0000      -0.719176       -19.5698
   9   2.0000      -0.622182       -16.9304
  10   2.0000      -0.581851       -15.8330
  11   2.0000      -0.559346       -15.2206
  12   2.0000      -0.479042       -13.0354
  13   2.0000      -0.417966       -11.3734
  14   2.0000      -0.392055       -10.6683
  15   0.0000       0.133254         3.6260
  16   0.0000       0.323370         8.7994
  17   0.0000       0.426849        11.6152
  18   0.0000       0.627647        17.0791
  19   0.0000       0.669409        18.2155

MULLIKEN ATOMIC CHARGES
-----------------------
   0 C :    0.145226
   1 O :   -0.350145
   2 C :   -0.212244
   3 C :   -0.172505
   4 H :    0.145969
   5 H :    0.146328
   6 H :    0.134571
   7 H :    0.162801
Sum of atomic charges:   -0.0000000

LOEWDIN ATOMIC CHARGES
----------------------
   0 C :    0.131693
   1 O :   -0.249787
   2 C :   -0.168557
   3 C :   -0.086832
   4 H :    0.073520
   5 H :    0.092105
   6 H :    0.086977
   7 H :    0.120881

  Mayer bond orders larger than 0.100000
B(  0-C ,  1-O ) :   1.8855 B(  0-C ,  2-C ) :   1.0453 B(  0-C ,  4-H ) :   0.9340
B(  2-C ,  3-C ) :   1.9250 B(  2-C ,  5-H ) :   0.9557 B(  3-C ,  6-H ) :   0.9621
B(  3-C ,  7-H ) :   0.9585

-----------------------------------------------------------------------------
         ABSORPTION SPECTRUM VIA TRANSITION ELECTRIC DIPOLE MOMENTS
-----------------------------------------------------------------------------
State   Energy    Wavelength  fosc         T2        TX        TY        TZ
        (cm-1)      (nm)                 (au**2)    (au)      (au)      (au)
-----------------------------------------------------------------------------
   1   32433.7    308.3   0.000228032   0.00231  -0.04549  -0.00661   0.01420

Dispersion correction           -0.025664927
FINAL SINGLE POINT ENERGY      -189.281248698608

DIPOLE MOMENT
-------------
                                X             Y             Z
Electronic contribution:     -2.11121      -1.35880      -0.16098
Nuclear contribution   :      2.69991       2.14801       0.12751
                        -----------------------------------------
Total Dipole Moment    :      0.58869       0.78921      -0.03347
                        -----------------------------------------
Magnitude (a.u.)       :      0.98516
Magnitude (Debye)      :      2.50407

Rotational constants in cm-1:     0.814560     0.210596     0.167730
Rotational constants in MHz : 24419.895807  6313.499662  5028.415301

                             ****ORCA TERMINATED NORMALLY****
TOTAL RUN TIME: 0 days 0 hours 0 minutes 15 seconds 492 msec
