                         Program Version 5.0.3 -  RELEASE  -
|  1> ! HF-3c
|  2> !TightSCF
|  3> %scf
|  4>  ConvForced true
|  5>  convergence tight
|  6>  MaxIter 500
|  7> end
|  8>
|  9> %tddft
| 10>  nroots 1
| 11> end
| 12>
| 13> # 	22449
| 14> * xyz 0 1
| 15> 		C   -0.579228  -0.431881  -0.086313
| 16> 		O   -0.578088  -1.643175   0.055480
| 17> 		C    0.648622   0.444896   0.062479
| 18> 		C    1.815015  -0.129970  -0.027498
| 19> 		H   -1.488147   0.034510  -0.298150
| 20> 		H    0.492253   1.500925   0.306043
| 21> 		H    1.928926  -1.293178  -0.212002
| 22> 		H    2.770722   0.475579  -0.045474
| 23> *
| 24>
| 25>                          ****END OF INPUT****

CARTESIAN COORDINATES (ANGSTROEM)
---------------------------------
  C     -0.579228   -0.431881   -0.086313
  O     -0.578088   -1.643175    0.055480
  C      0.648622    0.444896    0.062479
  C      1.815015   -0.129970   -0.027498
  H     -1.488147    0.034510   -0.298150
  H      0.492253    1.500925    0.306043
  H      1.928926   -1.293178   -0.212002
  H      2.770722    0.475579   -0.045474

 Total Charge           Charge          ....    0
 Multiplicity           Mult            ....    1
 Number of Electrons    NEL             ....   30
 Basis Dimension        Dim             ....   24

ORBITAL ENERGIES
----------------

  NO   OCC          E(Eh)            E(eV)
   0   2.0000     -20.361031      -554.0518
   1   2.0000     -11.291718      -307.2633
   2   2.0000     -11.186781      -304.4078
   3   2.0000     -11.184973      -304.3586
   4   2.0000      -1.394729       -37.9525
   5   2.0000      -1.076799       -29.3012
   6   2.0000      -0.881502       -23.9869
   7   2.0000      -0.746779       -20.3209
   8   2.0000      -0.698271       -19.0009
   9   2.0000      -0.607250       -16.5241
  10   2.0000      -0.591384       -16.0924
  11   2.0000      -0.531352       -14.4588
  12   2.0000      -0.516685       -14.0597
  13   2.0000      -0.415111       -11.2957
  14   2.0000      -0.397182       -10.8079
  15   0.0000       0.146506         3.9866
  16   0.0000       0.298744         8.1292
  17   0.0000       0.512104        13.9351
  18   0.0000       0.587355        15.9827
  19   0.0000       0.611789        16.6476

MULLIKEN ATOMIC CHARGES
-----------------------
   0 C :    0.158220
   1 O :   -0.352843
   2 C :   -0.188485
   3 C :   -0.204283
   4 H :    0.136717
   5 H :    0.146376
   6 H :    0.161969
   7 H :    0.142328
Sum of atomic charges:    0.0000000

LOEWDIN ATOMIC CHARGES
----------------------
   0 C :    0.147892
   1 O :   -0.261234
   2 C :   -0.144364
   3 C :   -0.115805
   4 H :    0.068482
   5 H :    0.095011
   6 H :    0.114729
   7 H :    0.095290

  Mayer bond orders larger than 0.100000
B(  0-C ,  1-O ) :   1.9172 B(  0-C ,  2-C ) :   1.0037 B(  0-C ,  4-H ) :   0.9346
B(  2-C ,  3-C ) :   1.9648 B(  2-C ,  5-H ) :   0.9565 B(  3-C ,  6-H ) :   0.9520
B(  3-C ,  7-H ) :   0.9615

-----------------------------------------------------------------------------
         ABSORPTION SPECTRUM VIA TRANSITION ELECTRIC DIPOLE MOMENTS
-----------------------------------------------------------------------------
State   Energy    Wavelength  fosc         T2        TX        TY        TZ
        (cm-1)      (nm)                 (au**2)    (au)      (au)      (au)
-----------------------------------------------------------------------------
   1   33020.5    302.8   0.000012150   0.00012  -0.01000  -0.00088  -0.00451

Dispersion correction           -0.025643182
FINAL SINGLE POINT ENERGY      -189.334360183889

DIPOLE MOMENT
-------------
                                X             Y             Z
Electronic contribution:     -1.96301      -1.58480       0.11637
Nuclear contribution   :      2.31588       2.46156      -0.23464
                        -----------------------------------------
Total Dipole Moment    :      0.35288       0.87676      -0.11827
                        -----------------------------------------
Magnitude (a.u.)       :      0.95248
Magnitude (Debye)      :      2.42102

Rotational constants in cm-1:     0.754280     0.209495     0.165327
Rotational constants in MHz : 22612.744266  6280.507609  4956.379306

                             ****ORCA TERMINATED NORMALLY****
TOTAL RUN TIME: 0 days 0 hours 0 minutes 9 seconds 108 msec
