                         Program Version 5.0.3 -  RELEASE  -
|  1> ! B3LYP cc-pVDZ
|  2> !TightSCF
|  3> %scf
|  4>  ConvForced true
|  5>  convergence tight
|  6>  MaxIter 500
|  7> end
|  8>
|  9> %tddft
| 10>  nroots 1
| 11> end
| 12>
| 13> # 	15284
| 14> * xyz 0 1
| 15> 		C   -1.157158  -0.352931   0.074395
| 16> 		O   -1.264333  -1.590363   0.352276
| 17> 		C    0.016071   0.529032   0.157893
| 18> 		C    1.274194  -0.032920  -0.096317
| 19> 		H   -2.034467   0.252783  -0.423836
| 20> 		H   -0.292619   1.612619   0.232022
| 21> 		H    1.301871  -1.046793  -0.224598
| 22> 		H    2.083875   0.604260  -0.043650
| 23> *
| 24>
| 25>                          ****END OF INPUT****

CARTESIAN COORDINATES (ANGSTROEM)
---------------------------------
  C     -1.157158   -0.352931    0.074395
  O     -1.264333   -1.590363    0.352276
  C      0.016071    0.529032    0.157893
  C      1.274194   -0.032920   -0.096317
  H     -2.034467    0.252783   -0.423836
  H     -0.292619    1.612619    0.232022
  H      1.301871   -1.046793   -0.224598
  H      2.083875    0.604260   -0.043650

 Total Charge           Charge          ....    0
 Multiplicity           Mult            ....    1
 Number of Electrons    NEL             ....   30
 Basis Dimension        Dim             ....   76

ORBITAL ENERGIES
----------------

  NO   OCC          E(Eh)            E(eV)
   0   2.0000     -19.142513      -520.8943
   1   2.0000     -10.283730      -279.8345
   2   2.0000     -10.222831      -278.1774
   3   2.0000     -10.217873      -278.0424
   4   2.0000      -1.012632       -27.5551
   5   2.0000      -0.796397       -21.6711
   6   2.0000      -0.671364       -18.2688
   7   2.0000      -0.538125       -14.6431
   8   2.0000      -0.505626       -13.7588
   9   2.0000      -0.447365       -12.1734
  10   2.0000      -0.422907       -11.5079
  11   2.0000      -0.400562       -10.8998
  12   2.0000      -0.370046       -10.0695
  13   2.0000      -0.284246        -7.7347
  14   2.0000      -0.255069        -6.9408
  15   0.0000      -0.079714        -2.1691
  16   0.0000       0.026984         0.7343
  17   0.0000       0.062550         1.7021
  18   0.0000       0.093061         2.5323
  19   0.0000       0.116650         3.1742

MULLIKEN ATOMIC CHARGES
-----------------------
   0 C :    0.164383
   1 O :   -0.236227
   2 C :   -0.134752
   3 C :    0.151655
   4 H :   -0.004242
   5 H :    0.020337
   6 H :    0.018619
   7 H :    0.020227
Sum of atomic charges:   -0.0000000

LOEWDIN ATOMIC CHARGES
----------------------
   0 C :   -0.010578
   1 O :   -0.062735
   2 C :   -0.063982
   3 C :    0.057101
   4 H :    0.002899
   5 H :    0.040706
   6 H :    0.018125
   7 H :    0.018463

  Mayer bond orders larger than 0.100000
B(  0-C ,  1-O ) :   2.1192 B(  0-C ,  2-C ) :   1.0800 B(  0-C ,  4-H ) :   0.8989
B(  2-C ,  3-C ) :   1.9278 B(  2-C ,  5-H ) :   0.9420 B(  3-C ,  6-H ) :   0.9403
B(  3-C ,  7-H ) :   0.9515

-----------------------------------------------------------------------------
         ABSORPTION SPECTRUM VIA TRANSITION ELECTRIC DIPOLE MOMENTS
-----------------------------------------------------------------------------
State   Energy    Wavelength  fosc         T2        TX        TY        TZ
        (cm-1)      (nm)                 (au**2)    (au)      (au)      (au)
-----------------------------------------------------------------------------
   1   25824.3    387.2   0.000602205   0.00768  -0.08010  -0.01733   0.03099

FINAL SINGLE POINT ENERGY      -191.667328031507

DIPOLE MOMENT
-------------
                                X             Y             Z
Electronic contribution:     -1.60409      -1.82429       0.64535
Nuclear contribution   :      2.15469       2.80928      -0.88374
                        -----------------------------------------
Total Dipole Moment    :      0.55060       0.98499      -0.23838
                        -----------------------------------------
Magnitude (a.u.)       :      1.15334
Magnitude (Debye)      :      2.93155

Rotational constants in cm-1:     0.730936     0.194848     0.156752
Rotational constants in MHz : 21912.920581  5841.409125  4699.305461

                             ****ORCA TERMINATED NORMALLY****
TOTAL RUN TIME: 0 days 0 hours 3 minutes 21 seconds 616 msec
