                         Program Version 5.0.3 -  RELEASE  -
|  1> ! B3LYP cc-pVDZ
|  2> !TightSCF
|  3> %scf
|  4>  ConvForced true
|  5>  convergence tight
|  6>  MaxIter 500
|  7> end
|  8>
|  9> %tddft
| 10>  nroots 1
| 11> end
| 12>
| 13> # 	30540
| 14> * xyz 0 1
| 15> 		C   -0.532494  -0.429072   0.041287
| 16> 		O   -0.594880  -1.682002  -0.033136
| 17> 		C    0.628835   0.473103  -0.076656
| 18> 		C    1.834357  -0.106108   0.049394
| 19> 		H   -1.603815   0.118473   0.368143
| 20> 		H    0.433608   1.469862  -0.069529
| 21> 		H    1.721731  -1.256895   0.098857
| 22> 		H    2.844357   0.327302  -0.052006
| 23> *
| 24>
| 25>                          ****END OF INPUT****

CARTESIAN COORDINATES (ANGSTROEM)
---------------------------------
  C     -0.532494   -0.429072    0.041287
  O     -0.594880   -1.682002   -0.033136
  C      0.628835    0.473103   -0.076656
  C      1.834357   -0.106108    0.049394
  H     -1.603815    0.118473    0.368143
  H      0.433608    1.469862   -0.069529
  H      1.721731   -1.256895    0.098857
  H      2.844357    0.327302   -0.052006

 Total Charge           Charge          ....    0
 Multiplicity           Mult            ....    1
 Number of Electrons    NEL             ....   30
 Basis Dimension        Dim             ....   76

ORBITAL ENERGIES
----------------

  NO   OCC          E(Eh)            E(eV)
   0   2.0000     -19.142794      -520.9019
   1   2.0000     -10.288647      -279.9683
   2   2.0000     -10.226714      -278.2830
   3   2.0000     -10.209874      -277.8248
   4   2.0000      -1.023314       -27.8458
   5   2.0000      -0.805676       -21.9235
   6   2.0000      -0.652575       -17.7575
   7   2.0000      -0.543214       -14.7816
   8   2.0000      -0.507007       -13.7964
   9   2.0000      -0.444441       -12.0939
  10   2.0000      -0.417602       -11.3635
  11   2.0000      -0.386568       -10.5190
  12   2.0000      -0.378496       -10.2994
  13   2.0000      -0.292757        -7.9663
  14   2.0000      -0.255368        -6.9489
  15   0.0000      -0.077412        -2.1065
  16   0.0000       0.043882         1.1941
  17   0.0000       0.064876         1.7654
  18   0.0000       0.082314         2.2399
  19   0.0000       0.118990         3.2379

MULLIKEN ATOMIC CHARGES
-----------------------
   0 C :    0.133220
   1 O :   -0.222839
   2 C :   -0.022461
   3 C :    0.043408
   4 H :   -0.002800
   5 H :   -0.035314
   6 H :    0.061102
   7 H :    0.045684
Sum of atomic charges:   -0.0000000

LOEWDIN ATOMIC CHARGES
----------------------
   0 C :   -0.009835
   1 O :   -0.050487
   2 C :   -0.070796
   3 C :    0.033494
   4 H :    0.003274
   5 H :    0.010125
   6 H :    0.050343
   7 H :    0.033882

  Mayer bond orders larger than 0.100000
B(  0-C ,  1-O ) :   2.1169 B(  0-C ,  2-C ) :   1.0587 B(  0-C ,  4-H ) :   0.8986
B(  2-C ,  3-C ) :   1.9245 B(  2-C ,  5-H ) :   0.9611 B(  3-C ,  6-H ) :   0.9161
B(  3-C ,  7-H ) :   0.9512

-----------------------------------------------------------------------------
         ABSORPTION SPECTRUM VIA TRANSITION ELECTRIC DIPOLE MOMENTS
-----------------------------------------------------------------------------
State   Energy    Wavelength  fosc         T2        TX        TY        TZ
        (cm-1)      (nm)                 (au**2)    (au)      (au)      (au)
-----------------------------------------------------------------------------
   1   26379.8    379.1   0.000385754   0.00481  -0.04792  -0.00529  -0.04989

FINAL SINGLE POINT ENERGY      -191.666741000490

DIPOLE MOMENT
-------------
                                X             Y             Z
Electronic contribution:     -1.46583      -1.45266      -0.27660
Nuclear contribution   :      2.02834       2.40700       0.32452
                        -----------------------------------------
Total Dipole Moment    :      0.56251       0.95433       0.04792
                        -----------------------------------------
Magnitude (a.u.)       :      1.10881
Magnitude (Debye)      :      2.81838

Rotational constants in cm-1:     0.737488     0.205917     0.161874
Rotational constants in MHz : 22109.326965  6173.239451  4852.863820

                             ****ORCA TERMINATED NORMALLY****
TOTAL RUN TIME: 0 days 0 hours 3 minutes 19 seconds 911 msec
