                         Program Version 5.0.3 -  RELEASE  -
|  1> ! B3LYP cc-pVDZ
|  2> !TightSCF
|  3> %scf
|  4>  ConvForced true
|  5>  convergence tight
|  6>  MaxIter 500
|  7> end
|  8>
|  9> %tddft
| 10>  nroots 1
| 11> end
| 12>
| 13> # 	15682
| 14> * xyz 0 1
| 15> 		C   -1.175167  -0.342134  -0.006548
| 16> 		O   -1.302848  -1.523391  -0.294652
| 17> 		C    0.003692   0.524691  -0.095541
| 18> 		C    1.204309  -0.030340   0.028207
| 19> 		H   -2.066893   0.129023   0.305751
| 20> 		H   -0.140224   1.664419  -0.121223
| 21> 		H    1.296489  -1.154676   0.226326
| 22> 		H    2.194941   0.686176  -0.002041
| 23> *
| 24>
| 25>                          ****END OF INPUT****

CARTESIAN COORDINATES (ANGSTROEM)
---------------------------------
  C     -1.175167   -0.342134   -0.006548
  O     -1.302848   -1.523391   -0.294652
  C      0.003692    0.524691   -0.095541
  C      1.204309   -0.030340    0.028207
  H     -2.066893    0.129023    0.305751
  H     -0.140224    1.664419   -0.121223
  H      1.296489   -1.154676    0.226326
  H      2.194941    0.686176   -0.002041

 Total Charge           Charge          ....    0
 Multiplicity           Mult            ....    1
 Number of Electrons    NEL             ....   30
 Basis Dimension        Dim             ....   76

ORBITAL ENERGIES
----------------

  NO   OCC          E(Eh)            E(eV)
   0   2.0000     -19.134998      -520.6898
   1   2.0000     -10.268176      -279.4113
   2   2.0000     -10.230192      -278.3777
   3   2.0000     -10.211750      -277.8758
   4   2.0000      -1.037226       -28.2244
   5   2.0000      -0.799310       -21.7503
   6   2.0000      -0.653325       -17.7779
   7   2.0000      -0.536732       -14.6052
   8   2.0000      -0.505977       -13.7683
   9   2.0000      -0.442294       -12.0354
  10   2.0000      -0.421002       -11.4561
  11   2.0000      -0.387976       -10.5574
  12   2.0000      -0.376104       -10.2343
  13   2.0000      -0.292167        -7.9503
  14   2.0000      -0.251843        -6.8530
  15   0.0000      -0.066214        -1.8018
  16   0.0000       0.041768         1.1366
  17   0.0000       0.057393         1.5617
  18   0.0000       0.079547         2.1646
  19   0.0000       0.124182         3.3792

MULLIKEN ATOMIC CHARGES
-----------------------
   0 C :    0.212600
   1 O :   -0.207467
   2 C :   -0.109038
   3 C :   -0.002228
   4 H :   -0.036046
   5 H :    0.022422
   6 H :    0.061287
   7 H :    0.058470
Sum of atomic charges:   -0.0000000

LOEWDIN ATOMIC CHARGES
----------------------
   0 C :   -0.026815
   1 O :   -0.017795
   2 C :   -0.093167
   3 C :    0.003302
   4 H :   -0.013427
   5 H :    0.046488
   6 H :    0.047367
   7 H :    0.054047

  Mayer bond orders larger than 0.100000
B(  0-C ,  1-O ) :   2.1783 B(  0-C ,  2-C ) :   1.0562 B(  0-C ,  4-H ) :   0.9301
B(  2-C ,  3-C ) :   1.9449 B(  2-C ,  5-H ) :   0.9367 B(  3-C ,  6-H ) :   0.9296
B(  3-C ,  7-H ) :   0.9373

-----------------------------------------------------------------------------
         ABSORPTION SPECTRUM VIA TRANSITION ELECTRIC DIPOLE MOMENTS
-----------------------------------------------------------------------------
State   Energy    Wavelength  fosc         T2        TX        TY        TZ
        (cm-1)      (nm)                 (au**2)    (au)      (au)      (au)
-----------------------------------------------------------------------------
   1   27721.1    360.7   0.000260625   0.00310   0.04539   0.01700   0.02732

FINAL SINGLE POINT ENERGY      -191.664212265924

DIPOLE MOMENT
-------------
                                X             Y             Z
Electronic contribution:     -2.00078      -1.72725      -0.48257
Nuclear contribution   :      2.47288       2.64574       0.72791
                        -----------------------------------------
Total Dipole Moment    :      0.47210       0.91849       0.24534
                        -----------------------------------------
Magnitude (a.u.)       :      1.06146
Magnitude (Debye)      :      2.69801

Rotational constants in cm-1:     0.793620     0.199311     0.161371
Rotational constants in MHz : 23792.138708  5975.207700  4837.774137

                             ****ORCA TERMINATED NORMALLY****
TOTAL RUN TIME: 0 days 0 hours 3 minutes 18 seconds 201 msec
