                         Program Version 5.0.3 -  RELEASE  -
|  1> ! HF-3c
|  2> !TightSCF
|  3> %scf
|  4>  ConvForced true
|  5>  convergence tight
|  6>  MaxIter 500
|  7> end
|  8>
|  9> %tddft
| 10>  nroots 1
| 11> end
| 12>
| 13> # 	24317
| 14> * xyz 0 1
| 15> 		C   -0.673599  -0.441988  -0.082382
| 16> 		O   -0.543384  -1.645591   0.042513
| 17> 		C    0.654997   0.390148   0.072021
| 18> 		C    1.855985  -0.090062  -0.024704
| 19> 		H   -1.682064   0.377607  -0.151081
| 20> 		H    0.701362   1.444781   0.105481
| 21> 		H    1.923763  -1.231268  -0.154766
| 22> 		H    2.745146   0.493208  -0.049203
| 23> *
| 24>
| 25>                          ****END OF INPUT****

CARTESIAN COORDINATES (ANGSTROEM)
---------------------------------
  C     -0.673599   -0.441988   -0.082382
  O     -0.543384   -1.645591    0.042513
  C      0.654997    0.390148    0.072021
  C      1.855985   -0.090062   -0.024704
  H     -1.682064    0.377607   -0.151081
  H      0.701362    1.444781    0.105481
  H      1.923763   -1.231268   -0.154766
  H      2.745146    0.493208   -0.049203

 Total Charge           Charge          ....    0
 Multiplicity           Mult            ....    1
 Number of Electrons    NEL             ....   30
 Basis Dimension        Dim             ....   24

ORBITAL ENERGIES
----------------

  NO   OCC          E(Eh)            E(eV)
   0   2.0000     -20.373668      -554.3957
   1   2.0000     -11.300194      -307.4939
   2   2.0000     -11.173031      -304.0336
   3   2.0000     -11.168449      -303.9090
   4   2.0000      -1.401245       -38.1298
   5   2.0000      -1.070331       -29.1252
   6   2.0000      -0.853100       -23.2140
   7   2.0000      -0.727438       -19.7946
   8   2.0000      -0.686381       -18.6774
   9   2.0000      -0.601388       -16.3646
  10   2.0000      -0.593414       -16.1476
  11   2.0000      -0.533932       -14.5290
  12   2.0000      -0.503526       -13.7016
  13   2.0000      -0.401195       -10.9171
  14   2.0000      -0.395152       -10.7526
  15   0.0000       0.148904         4.0519
  16   0.0000       0.305393         8.3102
  17   0.0000       0.415248        11.2995
  18   0.0000       0.532919        14.5015
  19   0.0000       0.635156        17.2835

MULLIKEN ATOMIC CHARGES
-----------------------
   0 C :    0.197823
   1 O :   -0.356012
   2 C :   -0.190988
   3 C :   -0.230778
   4 H :    0.154562
   5 H :    0.132245
   6 H :    0.151636
   7 H :    0.141512
Sum of atomic charges:    0.0000000

LOEWDIN ATOMIC CHARGES
----------------------
   0 C :    0.162966
   1 O :   -0.259785
   2 C :   -0.147432
   3 C :   -0.136181
   4 H :    0.105712
   5 H :    0.080986
   6 H :    0.103476
   7 H :    0.090259

  Mayer bond orders larger than 0.100000
B(  0-C ,  1-O ) :   1.9444 B(  0-C ,  2-C ) :   0.9746 B(  0-C ,  4-H ) :   0.8924
B(  2-C ,  3-C ) :   1.9793 B(  2-C ,  5-H ) :   0.9610 B(  3-C ,  6-H ) :   0.9549
B(  3-C ,  7-H ) :   0.9649

-----------------------------------------------------------------------------
         ABSORPTION SPECTRUM VIA TRANSITION ELECTRIC DIPOLE MOMENTS
-----------------------------------------------------------------------------
State   Energy    Wavelength  fosc         T2        TX        TY        TZ
        (cm-1)      (nm)                 (au**2)    (au)      (au)      (au)
-----------------------------------------------------------------------------
   1   33726.2    296.5   0.000326169   0.00318   0.05552  -0.00990   0.00172

Dispersion correction           -0.025350377
FINAL SINGLE POINT ENERGY      -189.299795307645

DIPOLE MOMENT
-------------
                                X             Y             Z
Electronic contribution:     -2.28550      -1.86457       0.09378
Nuclear contribution   :      2.30351       2.80326      -0.23401
                        -----------------------------------------
Total Dipole Moment    :      0.01802       0.93869      -0.14023
                        -----------------------------------------
Magnitude (a.u.)       :      0.94928
Magnitude (Debye)      :      2.41288

Rotational constants in cm-1:     0.739595     0.204274     0.160796
Rotational constants in MHz : 22172.505213  6123.968375  4820.542630

                             ****ORCA TERMINATED NORMALLY****
TOTAL RUN TIME: 0 days 0 hours 0 minutes 15 seconds 980 msec
