                         Program Version 5.0.3 -  RELEASE  -
|  1> ! HF-3c
|  2> !TightSCF
|  3> %scf
|  4>  ConvForced true
|  5>  convergence tight
|  6>  MaxIter 500
|  7> end
|  8>
|  9> %tddft
| 10>  nroots 1
| 11> end
| 12>
| 13> # 	21807
| 14> * xyz 0 1
| 15> 		C   -0.603716  -0.397596   0.043150
| 16> 		O   -0.555487  -1.606018  -0.023196
| 17> 		C    0.628081   0.373485  -0.032105
| 18> 		C    1.823055  -0.142045  -0.001243
| 19> 		H   -1.466643   0.079566   0.146589
| 20> 		H    0.372022   1.475673  -0.159064
| 21> 		H    2.098415  -1.250924   0.074492
| 22> 		H    2.738733   0.452089   0.188911
| 23> *
| 24>
| 25>                          ****END OF INPUT****

CARTESIAN COORDINATES (ANGSTROEM)
---------------------------------
  C     -0.603716   -0.397596    0.043150
  O     -0.555487   -1.606018   -0.023196
  C      0.628081    0.373485   -0.032105
  C      1.823055   -0.142045   -0.001243
  H     -1.466643    0.079566    0.146589
  H      0.372022    1.475673   -0.159064
  H      2.098415   -1.250924    0.074492
  H      2.738733    0.452089    0.188911

 Total Charge           Charge          ....    0
 Multiplicity           Mult            ....    1
 Number of Electrons    NEL             ....   30
 Basis Dimension        Dim             ....   24

ORBITAL ENERGIES
----------------

  NO   OCC          E(Eh)            E(eV)
   0   2.0000     -20.364178      -554.1375
   1   2.0000     -11.296401      -307.3907
   2   2.0000     -11.190187      -304.5005
   3   2.0000     -11.188030      -304.4418
   4   2.0000      -1.404473       -38.2176
   5   2.0000      -1.078867       -29.3575
   6   2.0000      -0.909087       -24.7375
   7   2.0000      -0.766055       -20.8454
   8   2.0000      -0.693129       -18.8610
   9   2.0000      -0.626090       -17.0368
  10   2.0000      -0.591750       -16.1023
  11   2.0000      -0.546923       -14.8825
  12   2.0000      -0.511303       -13.9133
  13   2.0000      -0.421344       -11.4653
  14   2.0000      -0.392582       -10.6827
  15   0.0000       0.133333         3.6282
  16   0.0000       0.314629         8.5615
  17   0.0000       0.503137        13.6910
  18   0.0000       0.635374        17.2894
  19   0.0000       0.668781        18.1985

MULLIKEN ATOMIC CHARGES
-----------------------
   0 C :    0.139852
   1 O :   -0.341026
   2 C :   -0.173397
   3 C :   -0.210330
   4 H :    0.140841
   5 H :    0.141733
   6 H :    0.158856
   7 H :    0.143471
Sum of atomic charges:   -0.0000000

LOEWDIN ATOMIC CHARGES
----------------------
   0 C :    0.133566
   1 O :   -0.248246
   2 C :   -0.132966
   3 C :   -0.117848
   4 H :    0.067890
   5 H :    0.094083
   6 H :    0.108941
   7 H :    0.094580

  Mayer bond orders larger than 0.100000
B(  0-C ,  1-O ) :   1.8977 B(  0-C ,  2-C ) :   1.0334 B(  0-C ,  4-H ) :   0.9384
B(  2-C ,  3-C ) :   1.9524 B(  2-C ,  5-H ) :   0.9538 B(  3-C ,  6-H ) :   0.9551
B(  3-C ,  7-H ) :   0.9623

-----------------------------------------------------------------------------
         ABSORPTION SPECTRUM VIA TRANSITION ELECTRIC DIPOLE MOMENTS
-----------------------------------------------------------------------------
State   Energy    Wavelength  fosc         T2        TX        TY        TZ
        (cm-1)      (nm)                 (au**2)    (au)      (au)      (au)
-----------------------------------------------------------------------------
   1   31290.7    319.6   0.000034582   0.00036  -0.01900  -0.00148   0.00081

Dispersion correction           -0.025857902
FINAL SINGLE POINT ENERGY      -189.327038901941

DIPOLE MOMENT
-------------
                                X             Y             Z
Electronic contribution:     -2.04103      -1.62725      -0.14759
Nuclear contribution   :      2.35552       2.49544       0.23510
                        -----------------------------------------
Total Dipole Moment    :      0.31450       0.86819       0.08751
                        -----------------------------------------
Magnitude (a.u.)       :      0.92754
Magnitude (Debye)      :      2.35761

Rotational constants in cm-1:     0.761888     0.217940     0.169915
Rotational constants in MHz : 22840.813546  6533.663684  5093.931261

                             ****ORCA TERMINATED NORMALLY****
TOTAL RUN TIME: 0 days 0 hours 0 minutes 12 seconds 917 msec
