                         Program Version 5.0.3 -  RELEASE  -
|  1> ! B3LYP cc-pVDZ
|  2> !TightSCF
|  3> %scf
|  4>  ConvForced true
|  5>  convergence tight
|  6>  MaxIter 500
|  7> end
|  8>
|  9> %tddft
| 10>  nroots 1
| 11> end
| 12>
| 13> # 	6056
| 14> * xyz 0 1
| 15> 		C   -1.185078  -0.419303  -0.015395
| 16> 		O   -1.949242  -0.753734  -0.902046
| 17> 		C    0.075504   0.430641  -0.323998
| 18> 		C    1.153429   0.149106   0.256222
| 19> 		H   -1.457458  -0.566725   1.204799
| 20> 		H   -0.003402   1.040286  -1.163675
| 21> 		H    1.293292  -0.657293   0.868068
| 22> 		H    2.137464   0.765679   0.036821
| 23> *
| 24>
| 25>                          ****END OF INPUT****

CARTESIAN COORDINATES (ANGSTROEM)
---------------------------------
  C     -1.185078   -0.419303   -0.015395
  O     -1.949242   -0.753734   -0.902046
  C      0.075504    0.430641   -0.323998
  C      1.153429    0.149106    0.256222
  H     -1.457458   -0.566725    1.204799
  H     -0.003402    1.040286   -1.163675
  H      1.293292   -0.657293    0.868068
  H      2.137464    0.765679    0.036821

 Total Charge           Charge          ....    0
 Multiplicity           Mult            ....    1
 Number of Electrons    NEL             ....   30
 Basis Dimension        Dim             ....   76

ORBITAL ENERGIES
----------------

  NO   OCC          E(Eh)            E(eV)
   0   2.0000     -19.149717      -521.0903
   1   2.0000     -10.293669      -280.1050
   2   2.0000     -10.202795      -277.6322
   3   2.0000     -10.198366      -277.5116
   4   2.0000      -1.049380       -28.5551
   5   2.0000      -0.813558       -22.1380
   6   2.0000      -0.629274       -17.1234
   7   2.0000      -0.567069       -15.4307
   8   2.0000      -0.476511       -12.9665
   9   2.0000      -0.472145       -12.8477
  10   2.0000      -0.434594       -11.8259
  11   2.0000      -0.389784       -10.6066
  12   2.0000      -0.381745       -10.3878
  13   2.0000      -0.303104        -8.2479
  14   2.0000      -0.255586        -6.9548
  15   0.0000      -0.053401        -1.4531
  16   0.0000       0.024857         0.6764
  17   0.0000       0.067893         1.8474
  18   0.0000       0.078846         2.1455
  19   0.0000       0.113173         3.0796

MULLIKEN ATOMIC CHARGES
-----------------------
   0 C :    0.114223
   1 O :   -0.181960
   2 C :   -0.030753
   3 C :    0.065682
   4 H :    0.006592
   5 H :   -0.008253
   6 H :   -0.003962
   7 H :    0.038432
Sum of atomic charges:    0.0000000

LOEWDIN ATOMIC CHARGES
----------------------
   0 C :   -0.020495
   1 O :   -0.001210
   2 C :   -0.056621
   3 C :   -0.011427
   4 H :    0.003217
   5 H :    0.026489
   6 H :    0.011743
   7 H :    0.048304

  Mayer bond orders larger than 0.100000
B(  0-C ,  1-O ) :   2.1845 B(  0-C ,  2-C ) :   0.9914 B(  0-C ,  4-H ) :   0.8760
B(  2-C ,  3-C ) :   2.0156 B(  2-C ,  5-H ) :   0.9437 B(  3-C ,  6-H ) :   0.9401
B(  3-C ,  7-H ) :   0.9321

-----------------------------------------------------------------------------
         ABSORPTION SPECTRUM VIA TRANSITION ELECTRIC DIPOLE MOMENTS
-----------------------------------------------------------------------------
State   Energy    Wavelength  fosc         T2        TX        TY        TZ
        (cm-1)      (nm)                 (au**2)    (au)      (au)      (au)
-----------------------------------------------------------------------------
   1   30786.6    324.8   0.001465646   0.01567  -0.12224  -0.00231   0.02692

FINAL SINGLE POINT ENERGY      -191.633480488575

DIPOLE MOMENT
-------------
                                X             Y             Z
Electronic contribution:     -2.96198      -0.86349      -1.37911
Nuclear contribution   :      3.74614       1.17626       1.84705
                        -----------------------------------------
Total Dipole Moment    :      0.78416       0.31278       0.46794
                        -----------------------------------------
Magnitude (a.u.)       :      0.96525
Magnitude (Debye)      :      2.45347

Rotational constants in cm-1:     1.289739     0.157939     0.147868
Rotational constants in MHz : 38665.413669  4734.882430  4432.980806

                             ****ORCA TERMINATED NORMALLY****
TOTAL RUN TIME: 0 days 0 hours 3 minutes 22 seconds 594 msec
