                         Program Version 5.0.3 -  RELEASE  -
|  1> ! B3LYP cc-pVDZ
|  2> !TightSCF
|  3> %scf
|  4>  ConvForced true
|  5>  convergence tight
|  6>  MaxIter 500
|  7> end
|  8>
|  9> %tddft
| 10>  nroots 1
| 11> end
| 12>
| 13> # 	1053
| 14> * xyz 0 1
| 15> 		C   -1.198014  -0.321853  -0.021969
| 16> 		O   -1.829779  -0.965395   0.836631
| 17> 		C    0.055710   0.361932   0.343866
| 18> 		C    1.273517   0.012123  -0.194567
| 19> 		H   -1.464315  -0.390053  -1.157018
| 20> 		H   -0.013139   1.248495   1.088932
| 21> 		H    1.250648  -0.628854  -0.924529
| 22> 		H    1.951267   0.621844   0.077108
| 23> *
| 24>
| 25>                          ****END OF INPUT****

CARTESIAN COORDINATES (ANGSTROEM)
---------------------------------
  C     -1.198014   -0.321853   -0.021969
  O     -1.829779   -0.965395    0.836631
  C      0.055710    0.361932    0.343866
  C      1.273517    0.012123   -0.194567
  H     -1.464315   -0.390053   -1.157018
  H     -0.013139    1.248495    1.088932
  H      1.250648   -0.628854   -0.924529
  H      1.951267    0.621844    0.077108

 Total Charge           Charge          ....    0
 Multiplicity           Mult            ....    1
 Number of Electrons    NEL             ....   30
 Basis Dimension        Dim             ....   76

ORBITAL ENERGIES
----------------

  NO   OCC          E(Eh)            E(eV)
   0   2.0000     -19.147103      -521.0192
   1   2.0000     -10.288555      -279.9658
   2   2.0000     -10.217809      -278.0407
   3   2.0000     -10.189183      -277.2618
   4   2.0000      -1.034408       -28.1477
   5   2.0000      -0.800213       -21.7749
   6   2.0000      -0.662267       -18.0212
   7   2.0000      -0.560507       -15.2522
   8   2.0000      -0.503678       -13.7058
   9   2.0000      -0.458974       -12.4893
  10   2.0000      -0.429192       -11.6789
  11   2.0000      -0.411792       -11.2054
  12   2.0000      -0.365761        -9.9529
  13   2.0000      -0.283071        -7.7028
  14   2.0000      -0.258330        -7.0295
  15   0.0000      -0.061397        -1.6707
  16   0.0000      -0.000975        -0.0265
  17   0.0000       0.075882         2.0648
  18   0.0000       0.089513         2.4358
  19   0.0000       0.119083         3.2404

MULLIKEN ATOMIC CHARGES
-----------------------
   0 C :    0.158007
   1 O :   -0.205033
   2 C :   -0.157575
   3 C :    0.220874
   4 H :    0.009831
   5 H :    0.039477
   6 H :   -0.036758
   7 H :   -0.028822
Sum of atomic charges:   -0.0000000

LOEWDIN ATOMIC CHARGES
----------------------
   0 C :   -0.014858
   1 O :   -0.020167
   2 C :   -0.037729
   3 C :    0.028065
   4 H :    0.006288
   5 H :    0.049427
   6 H :   -0.004521
   7 H :   -0.006506

  Mayer bond orders larger than 0.100000
B(  0-C ,  1-O ) :   2.1607 B(  0-C ,  2-C ) :   1.0153 B(  0-C ,  4-H ) :   0.9090
B(  2-C ,  3-C ) :   1.9973 B(  2-C ,  5-H ) :   0.9363 B(  3-C ,  6-H ) :   0.9473
B(  3-C ,  7-H ) :   0.9348

-----------------------------------------------------------------------------
         ABSORPTION SPECTRUM VIA TRANSITION ELECTRIC DIPOLE MOMENTS
-----------------------------------------------------------------------------
State   Energy    Wavelength  fosc         T2        TX        TY        TZ
        (cm-1)      (nm)                 (au**2)    (au)      (au)      (au)
-----------------------------------------------------------------------------
   1   29394.9    340.2   0.001543154   0.01728   0.11764   0.01141  -0.05756

FINAL SINGLE POINT ENERGY      -191.624235016239

DIPOLE MOMENT
-------------
                                X             Y             Z
Electronic contribution:     -2.69378      -1.14344       1.20651
Nuclear contribution   :      3.33532       1.72263      -1.78678
                        -----------------------------------------
Total Dipole Moment    :      0.64154       0.57920      -0.58027
                        -----------------------------------------
Magnitude (a.u.)       :      1.04103
Magnitude (Debye)      :      2.64610

Rotational constants in cm-1:     1.111638     0.158280     0.153785
Rotational constants in MHz : 33326.067402  4745.123664  4610.371419

                             ****ORCA TERMINATED NORMALLY****
TOTAL RUN TIME: 0 days 0 hours 3 minutes 23 seconds 746 msec
