                         Program Version 5.0.3 -  RELEASE  -
|  1> ! B3LYP cc-pVDZ
|  2> !TightSCF
|  3> %scf
|  4>  ConvForced true
|  5>  convergence tight
|  6>  MaxIter 500
|  7> end
|  8>
|  9> %tddft
| 10>  nroots 1
| 11> end
| 12>
| 13> # 	5665
| 14> * xyz 0 1
| 15> 		C   -1.195734  -0.346306  -0.011931
| 16> 		O   -1.226008  -1.491652   0.283275
| 17> 		C    0.052751   0.466954   0.022505
| 18> 		C    1.227442  -0.071625  -0.146605
| 19> 		H   -2.192236   0.166675  -0.137353
| 20> 		H    0.059699   1.629604   0.135082
| 21> 		H    1.344089  -1.127707  -0.019793
| 22> 		H    1.920029   0.722962  -0.138717
| 23> *
| 24>
| 25>                          ****END OF INPUT****

CARTESIAN COORDINATES (ANGSTROEM)
---------------------------------
  C     -1.195734   -0.346306   -0.011931
  O     -1.226008   -1.491652    0.283275
  C      0.052751    0.466954    0.022505
  C      1.227442   -0.071625   -0.146605
  H     -2.192236    0.166675   -0.137353
  H      0.059699    1.629604    0.135082
  H      1.344089   -1.127707   -0.019793
  H      1.920029    0.722962   -0.138717

 Total Charge           Charge          ....    0
 Multiplicity           Mult            ....    1
 Number of Electrons    NEL             ....   30
 Basis Dimension        Dim             ....   76

ORBITAL ENERGIES
----------------

  NO   OCC          E(Eh)            E(eV)
   0   2.0000     -19.139698      -520.8177
   1   2.0000     -10.275159      -279.6013
   2   2.0000     -10.203907      -277.6624
   3   2.0000     -10.197584      -277.4904
   4   2.0000      -1.064829       -28.9755
   5   2.0000      -0.803923       -21.8758
   6   2.0000      -0.648615       -17.6497
   7   2.0000      -0.532224       -14.4825
   8   2.0000      -0.522200       -14.2098
   9   2.0000      -0.447807       -12.1854
  10   2.0000      -0.422225       -11.4893
  11   2.0000      -0.404992       -11.0204
  12   2.0000      -0.382821       -10.4171
  13   2.0000      -0.292318        -7.9544
  14   2.0000      -0.254257        -6.9187
  15   0.0000      -0.059767        -1.6263
  16   0.0000       0.047566         1.2943
  17   0.0000       0.066486         1.8092
  18   0.0000       0.097139         2.6433
  19   0.0000       0.117561         3.1990

MULLIKEN ATOMIC CHARGES
-----------------------
   0 C :    0.176931
   1 O :   -0.167198
   2 C :   -0.161147
   3 C :    0.127365
   4 H :   -0.023195
   5 H :    0.008549
   6 H :    0.023914
   7 H :    0.014781
Sum of atomic charges:   -0.0000000

LOEWDIN ATOMIC CHARGES
----------------------
   0 C :   -0.049973
   1 O :    0.023837
   2 C :   -0.083949
   3 C :    0.013765
   4 H :   -0.006571
   5 H :    0.041153
   6 H :    0.030296
   7 H :    0.031443

  Mayer bond orders larger than 0.100000
B(  0-C ,  1-O ) :   2.2172 B(  0-C ,  2-C ) :   1.0109 B(  0-C ,  4-H ) :   0.9173
B(  2-C ,  3-C ) :   1.9913 B(  2-C ,  5-H ) :   0.9366 B(  3-C ,  6-H ) :   0.9355
B(  3-C ,  7-H ) :   0.9309

-----------------------------------------------------------------------------
         ABSORPTION SPECTRUM VIA TRANSITION ELECTRIC DIPOLE MOMENTS
-----------------------------------------------------------------------------
State   Energy    Wavelength  fosc         T2        TX        TY        TZ
        (cm-1)      (nm)                 (au**2)    (au)      (au)      (au)
-----------------------------------------------------------------------------
   1   29731.9    336.3   0.000213815   0.00237   0.03749  -0.00602  -0.03042

FINAL SINGLE POINT ENERGY      -191.650280541404

DIPOLE MOMENT
-------------
                                X             Y             Z
Electronic contribution:     -1.87111      -1.94678       0.19367
Nuclear contribution   :      2.21679       2.75334      -0.33052
                        -----------------------------------------
Total Dipole Moment    :      0.34568       0.80655      -0.13685
                        -----------------------------------------
Magnitude (a.u.)       :      0.88812
Magnitude (Debye)      :      2.25742

Rotational constants in cm-1:     0.815340     0.207326     0.166982
Rotational constants in MHz : 24443.280976  6215.471247  5005.985564

                             ****ORCA TERMINATED NORMALLY****
TOTAL RUN TIME: 0 days 0 hours 3 minutes 15 seconds 594 msec
