                         Program Version 5.0.3 -  RELEASE  -
|  1> ! B3LYP cc-pVDZ
|  2> !TightSCF
|  3> %scf
|  4>  ConvForced true
|  5>  convergence tight
|  6>  MaxIter 500
|  7> end
|  8>
|  9> %tddft
| 10>  nroots 1
| 11> end
| 12>
| 13> # 	12253
| 14> * xyz 0 1
| 15> 		C   -1.250169  -0.419216  -0.021415
| 16> 		O   -1.898337  -0.895001   0.862650
| 17> 		C    0.022464   0.426013   0.339113
| 18> 		C    1.175324   0.081281  -0.260779
| 19> 		H   -1.332779  -0.571474  -1.000212
| 20> 		H   -0.105819   1.281545   1.085304
| 21> 		H    1.286207  -0.622235  -0.929444
| 22> 		H    2.043741   0.685449  -0.044729
| 23> *
| 24>
| 25>                          ****END OF INPUT****

CARTESIAN COORDINATES (ANGSTROEM)
---------------------------------
  C     -1.250169   -0.419216   -0.021415
  O     -1.898337   -0.895001    0.862650
  C      0.022464    0.426013    0.339113
  C      1.175324    0.081281   -0.260779
  H     -1.332779   -0.571474   -1.000212
  H     -0.105819    1.281545    1.085304
  H      1.286207   -0.622235   -0.929444
  H      2.043741    0.685449   -0.044729

 Total Charge           Charge          ....    0
 Multiplicity           Mult            ....    1
 Number of Electrons    NEL             ....   30
 Basis Dimension        Dim             ....   76

ORBITAL ENERGIES
----------------

  NO   OCC          E(Eh)            E(eV)
   0   2.0000     -19.145143      -520.9658
   1   2.0000     -10.274073      -279.5717
   2   2.0000     -10.208557      -277.7890
   3   2.0000     -10.193344      -277.3750
   4   2.0000      -1.059212       -28.8226
   5   2.0000      -0.788100       -21.4453
   6   2.0000      -0.650287       -17.6952
   7   2.0000      -0.582805       -15.8589
   8   2.0000      -0.487735       -13.2719
   9   2.0000      -0.463135       -12.6025
  10   2.0000      -0.437535       -11.9059
  11   2.0000      -0.395338       -10.7577
  12   2.0000      -0.386574       -10.5192
  13   2.0000      -0.284118        -7.7312
  14   2.0000      -0.253120        -6.8877
  15   0.0000      -0.048227        -1.3123
  16   0.0000       0.017303         0.4708
  17   0.0000       0.084129         2.2893
  18   0.0000       0.091610         2.4928
  19   0.0000       0.127316         3.4645

MULLIKEN ATOMIC CHARGES
-----------------------
   0 C :    0.233764
   1 O :   -0.175697
   2 C :   -0.153350
   3 C :    0.105915
   4 H :   -0.034679
   5 H :    0.029659
   6 H :   -0.027954
   7 H :    0.022343
Sum of atomic charges:    0.0000000

LOEWDIN ATOMIC CHARGES
----------------------
   0 C :   -0.006182
   1 O :    0.026970
   2 C :   -0.046154
   3 C :   -0.011645
   4 H :   -0.026867
   5 H :    0.041130
   6 H :   -0.008914
   7 H :    0.031662

  Mayer bond orders larger than 0.100000
B(  0-C ,  1-O ) :   2.2205 B(  0-C ,  2-C ) :   0.9911 B(  0-C ,  4-H ) :   0.9316
B(  2-C ,  3-C ) :   2.0050 B(  2-C ,  5-H ) :   0.9433 B(  3-C ,  6-H ) :   0.9494
B(  3-C ,  7-H ) :   0.9462

-----------------------------------------------------------------------------
         ABSORPTION SPECTRUM VIA TRANSITION ELECTRIC DIPOLE MOMENTS
-----------------------------------------------------------------------------
State   Energy    Wavelength  fosc         T2        TX        TY        TZ
        (cm-1)      (nm)                 (au**2)    (au)      (au)      (au)
-----------------------------------------------------------------------------
   1   31188.5    320.6   0.000577363   0.00609  -0.06753  -0.02421   0.03080

FINAL SINGLE POINT ENERGY      -191.631865834014

DIPOLE MOMENT
-------------
                                X             Y             Z
Electronic contribution:     -3.12410      -1.16145       1.10655
Nuclear contribution   :      3.70147       1.55101      -1.73454
                        -----------------------------------------
Total Dipole Moment    :      0.57737       0.38956      -0.62798
                        -----------------------------------------
Magnitude (a.u.)       :      0.93781
Magnitude (Debye)      :      2.38371

Rotational constants in cm-1:     1.182993     0.158084     0.149705
Rotational constants in MHz : 35465.227385  4739.239057  4488.047359

                             ****ORCA TERMINATED NORMALLY****
TOTAL RUN TIME: 0 days 0 hours 3 minutes 22 seconds 609 msec
