                         Program Version 5.0.3 -  RELEASE  -
|  1> ! B3LYP cc-pVDZ
|  2> !TightSCF
|  3> %scf
|  4>  ConvForced true
|  5>  convergence tight
|  6>  MaxIter 500
|  7> end
|  8>
|  9> %tddft
| 10>  nroots 1
| 11> end
| 12>
| 13> # 	6404
| 14> * xyz 0 1
| 15> 		C   -1.210631  -0.339171  -0.027978
| 16> 		O   -1.501477  -1.317523   0.646259
| 17> 		C    0.011263   0.470045   0.203465
| 18> 		C    1.216719   0.093796  -0.134111
| 19> 		H   -1.977535  -0.045353  -0.755708
| 20> 		H    0.032429   1.368086   0.644384
| 21> 		H    1.227006  -0.916014  -0.470421
| 22> 		H    2.153983   0.746916  -0.048986
| 23> *
| 24>
| 25>                          ****END OF INPUT****

CARTESIAN COORDINATES (ANGSTROEM)
---------------------------------
  C     -1.210631   -0.339171   -0.027978
  O     -1.501477   -1.317523    0.646259
  C      0.011263    0.470045    0.203465
  C      1.216719    0.093796   -0.134111
  H     -1.977535   -0.045353   -0.755708
  H      0.032429    1.368086    0.644384
  H      1.227006   -0.916014   -0.470421
  H      2.153983    0.746916   -0.048986

 Total Charge           Charge          ....    0
 Multiplicity           Mult            ....    1
 Number of Electrons    NEL             ....   30
 Basis Dimension        Dim             ....   76

ORBITAL ENERGIES
----------------

  NO   OCC          E(Eh)            E(eV)
   0   2.0000     -19.143149      -520.9116
   1   2.0000     -10.282450      -279.7997
   2   2.0000     -10.202002      -277.6106
   3   2.0000     -10.193318      -277.3743
   4   2.0000      -1.044879       -28.4326
   5   2.0000      -0.806601       -21.9487
   6   2.0000      -0.648235       -17.6394
   7   2.0000      -0.564520       -15.3614
   8   2.0000      -0.515454       -14.0262
   9   2.0000      -0.449029       -12.2187
  10   2.0000      -0.436961       -11.8903
  11   2.0000      -0.390820       -10.6348
  12   2.0000      -0.369263       -10.0481
  13   2.0000      -0.292203        -7.9512
  14   2.0000      -0.255223        -6.9450
  15   0.0000      -0.040523        -1.1027
  16   0.0000      -0.002021        -0.0550
  17   0.0000       0.076223         2.0741
  18   0.0000       0.100185         2.7262
  19   0.0000       0.116818         3.1788

MULLIKEN ATOMIC CHARGES
-----------------------
   0 C :    0.170618
   1 O :   -0.192995
   2 C :   -0.015651
   3 C :    0.023054
   4 H :   -0.002256
   5 H :   -0.032061
   6 H :    0.006880
   7 H :    0.042412
Sum of atomic charges:   -0.0000000

LOEWDIN ATOMIC CHARGES
----------------------
   0 C :   -0.005018
   1 O :   -0.003863
   2 C :   -0.053278
   3 C :   -0.016089
   4 H :   -0.000069
   5 H :    0.012822
   6 H :    0.020000
   7 H :    0.045494

  Mayer bond orders larger than 0.100000
B(  0-C ,  1-O ) :   2.2053 B(  0-C ,  2-C ) :   0.9617 B(  0-C ,  4-H ) :   0.9312
B(  2-C ,  3-C ) :   2.0432 B(  2-C ,  5-H ) :   0.9413 B(  3-C ,  6-H ) :   0.9369
B(  3-C ,  7-H ) :   0.9410

-----------------------------------------------------------------------------
         ABSORPTION SPECTRUM VIA TRANSITION ELECTRIC DIPOLE MOMENTS
-----------------------------------------------------------------------------
State   Energy    Wavelength  fosc         T2        TX        TY        TZ
        (cm-1)      (nm)                 (au**2)    (au)      (au)      (au)
-----------------------------------------------------------------------------
   1   31660.5    315.9   0.000076942   0.00080  -0.01054   0.02620   0.00157

FINAL SINGLE POINT ENERGY      -191.633383294494

DIPOLE MOMENT
-------------
                                X             Y             Z
Electronic contribution:     -2.43038      -1.44130       0.85589
Nuclear contribution   :      2.82792       2.21985      -1.26766
                        -----------------------------------------
Total Dipole Moment    :      0.39754       0.77855      -0.41177
                        -----------------------------------------
Magnitude (a.u.)       :      0.96630
Magnitude (Debye)      :      2.45613

Rotational constants in cm-1:     0.974102     0.175343     0.160132
Rotational constants in MHz : 29202.835660  5256.655432  4800.623744

                             ****ORCA TERMINATED NORMALLY****
TOTAL RUN TIME: 0 days 0 hours 3 minutes 23 seconds 581 msec
