                         Program Version 5.0.3 -  RELEASE  -
|  1> ! HF-3c
|  2> !TightSCF
|  3> %scf
|  4>  ConvForced true
|  5>  convergence tight
|  6>  MaxIter 500
|  7> end
|  8>
|  9> %tddft
| 10>  nroots 1
| 11> end
| 12>
| 13> # 	5463
| 14> * xyz 0 1
| 15> 		C   -1.208711  -0.304983   0.019408
| 16> 		O   -1.345083  -1.426924   0.460153
| 17> 		C    0.007278   0.475598   0.111652
| 18> 		C    1.265071   0.044600  -0.008596
| 19> 		H   -1.961658   0.049566  -0.563720
| 20> 		H   -0.029968   1.615743   0.328458
| 21> 		H    1.295278  -1.063320  -0.292173
| 22> 		H    2.099250   0.626787  -0.011112
| 23> *
| 24>
| 25>                          ****END OF INPUT****

CARTESIAN COORDINATES (ANGSTROEM)
---------------------------------
  C     -1.208711   -0.304983    0.019408
  O     -1.345083   -1.426924    0.460153
  C      0.007278    0.475598    0.111652
  C      1.265071    0.044600   -0.008596
  H     -1.961658    0.049566   -0.563720
  H     -0.029968    1.615743    0.328458
  H      1.295278   -1.063320   -0.292173
  H      2.099250    0.626787   -0.011112

 Total Charge           Charge          ....    0
 Multiplicity           Mult            ....    1
 Number of Electrons    NEL             ....   30
 Basis Dimension        Dim             ....   24

ORBITAL ENERGIES
----------------

  NO   OCC          E(Eh)            E(eV)
   0   2.0000     -20.375656      -554.4498
   1   2.0000     -11.306138      -307.6556
   2   2.0000     -11.189129      -304.4717
   3   2.0000     -11.186596      -304.4028
   4   2.0000      -1.409315       -38.3494
   5   2.0000      -1.080245       -29.3950
   6   2.0000      -0.909197       -24.7405
   7   2.0000      -0.767942       -20.8968
   8   2.0000      -0.697983       -18.9931
   9   2.0000      -0.636058       -17.3080
  10   2.0000      -0.610582       -16.6148
  11   2.0000      -0.539979       -14.6936
  12   2.0000      -0.497926       -13.5493
  13   2.0000      -0.428164       -11.6509
  14   2.0000      -0.398048       -10.8314
  15   0.0000       0.138689         3.7739
  16   0.0000       0.271679         7.3928
  17   0.0000       0.566955        15.4276
  18   0.0000       0.590153        16.0589
  19   0.0000       0.654226        17.8024

MULLIKEN ATOMIC CHARGES
-----------------------
   0 C :    0.139429
   1 O :   -0.334318
   2 C :   -0.160202
   3 C :   -0.230675
   4 H :    0.144415
   5 H :    0.144971
   6 H :    0.151032
   7 H :    0.145349
Sum of atomic charges:   -0.0000000

LOEWDIN ATOMIC CHARGES
----------------------
   0 C :    0.134702
   1 O :   -0.241767
   2 C :   -0.122614
   3 C :   -0.134420
   4 H :    0.072236
   5 H :    0.098936
   6 H :    0.103503
   7 H :    0.089423

  Mayer bond orders larger than 0.100000
B(  0-C ,  1-O ) :   1.9110 B(  0-C ,  2-C ) :   1.0307 B(  0-C ,  4-H ) :   0.9324
B(  2-C ,  3-C ) :   1.9589 B(  2-C ,  5-H ) :   0.9488 B(  3-C ,  6-H ) :   0.9597
B(  3-C ,  7-H ) :   0.9675

-----------------------------------------------------------------------------
         ABSORPTION SPECTRUM VIA TRANSITION ELECTRIC DIPOLE MOMENTS
-----------------------------------------------------------------------------
State   Energy    Wavelength  fosc         T2        TX        TY        TZ
        (cm-1)      (nm)                 (au**2)    (au)      (au)      (au)
-----------------------------------------------------------------------------
   1   32319.9    309.4   0.000029262   0.00030  -0.01435   0.00923  -0.00260

Dispersion correction           -0.025609521
FINAL SINGLE POINT ENERGY      -189.316938891616

DIPOLE MOMENT
-------------
                                X             Y             Z
Electronic contribution:     -2.24604      -1.56800       0.67182
Nuclear contribution   :      2.59602       2.40889      -1.05554
                        -----------------------------------------
Total Dipole Moment    :      0.34999       0.84090      -0.38372
                        -----------------------------------------
Magnitude (a.u.)       :      0.98835
Magnitude (Debye)      :      2.51219

Rotational constants in cm-1:     0.862058     0.191407     0.161359
Rotational constants in MHz : 25843.855990  5738.244756  4837.419285

                             ****ORCA TERMINATED NORMALLY****
TOTAL RUN TIME: 0 days 0 hours 0 minutes 13 seconds 272 msec
