                         Program Version 5.0.3 -  RELEASE  -
|  1> ! HF-3c
|  2> !TightSCF
|  3> %scf
|  4>  ConvForced true
|  5>  convergence tight
|  6>  MaxIter 500
|  7> end
|  8>
|  9> %tddft
| 10>  nroots 1
| 11> end
| 12>
| 13> # 	17086
| 14> * xyz 0 1
| 15> 		C   -1.186713  -0.382663  -0.044938
| 16> 		O   -1.415851  -1.419157   0.475798
| 17> 		C    0.084973   0.444173   0.129837
| 18> 		C    1.243870   0.089577  -0.142723
| 19> 		H   -1.850273   0.122965  -0.683858
| 20> 		H   -0.200036   1.371421   0.537555
| 21> 		H    1.289295  -0.842882  -0.448775
| 22> 		H    2.017685   0.613828   0.153382
| 23> *
| 24>
| 25>                          ****END OF INPUT****

CARTESIAN COORDINATES (ANGSTROEM)
---------------------------------
  C     -1.186713   -0.382663   -0.044938
  O     -1.415851   -1.419157    0.475798
  C      0.084973    0.444173    0.129837
  C      1.243870    0.089577   -0.142723
  H     -1.850273    0.122965   -0.683858
  H     -0.200036    1.371421    0.537555
  H      1.289295   -0.842882   -0.448775
  H      2.017685    0.613828    0.153382

 Total Charge           Charge          ....    0
 Multiplicity           Mult            ....    1
 Number of Electrons    NEL             ....   30
 Basis Dimension        Dim             ....   24

ORBITAL ENERGIES
----------------

  NO   OCC          E(Eh)            E(eV)
   0   2.0000     -20.400161      -555.1166
   1   2.0000     -11.316071      -307.9259
   2   2.0000     -11.205194      -304.9088
   3   2.0000     -11.197576      -304.7015
   4   2.0000      -1.437548       -39.1177
   5   2.0000      -1.125657       -30.6307
   6   2.0000      -0.917881       -24.9768
   7   2.0000      -0.780769       -21.2458
   8   2.0000      -0.730358       -19.8740
   9   2.0000      -0.662786       -18.0353
  10   2.0000      -0.635347       -17.2887
  11   2.0000      -0.574828       -15.6419
  12   2.0000      -0.534457       -14.5433
  13   2.0000      -0.443953       -12.0806
  14   2.0000      -0.417231       -11.3534
  15   0.0000       0.170558         4.6411
  16   0.0000       0.262635         7.1467
  17   0.0000       0.544804        14.8249
  18   0.0000       0.698224        18.9996
  19   0.0000       0.728963        19.8361

MULLIKEN ATOMIC CHARGES
-----------------------
   0 C :    0.182018
   1 O :   -0.339415
   2 C :   -0.143030
   3 C :   -0.300434
   4 H :    0.138932
   5 H :    0.146200
   6 H :    0.158615
   7 H :    0.157114
Sum of atomic charges:   -0.0000000

LOEWDIN ATOMIC CHARGES
----------------------
   0 C :    0.157207
   1 O :   -0.232408
   2 C :   -0.093350
   3 C :   -0.185957
   4 H :    0.069019
   5 H :    0.090532
   6 H :    0.098073
   7 H :    0.096884

  Mayer bond orders larger than 0.100000
B(  0-C ,  1-O ) :   1.9582 B(  0-C ,  2-C ) :   0.9675 B(  0-C ,  4-H ) :   0.9222
B(  2-C ,  3-C ) :   2.0094 B(  2-C ,  5-H ) :   0.9501 B(  3-C ,  6-H ) :   0.9565
B(  3-C ,  7-H ) :   0.9586

-----------------------------------------------------------------------------
         ABSORPTION SPECTRUM VIA TRANSITION ELECTRIC DIPOLE MOMENTS
-----------------------------------------------------------------------------
State   Energy    Wavelength  fosc         T2        TX        TY        TZ
        (cm-1)      (nm)                 (au**2)    (au)      (au)      (au)
-----------------------------------------------------------------------------
   1   35788.9    279.4   0.000104854   0.00096   0.02896   0.01076   0.00319

Dispersion correction           -0.026173604
FINAL SINGLE POINT ENERGY      -189.287058982063

DIPOLE MOMENT
-------------
                                X             Y             Z
Electronic contribution:     -2.30097      -1.68032       0.51839
Nuclear contribution   :      2.48042       2.48424      -0.84231
                        -----------------------------------------
Total Dipole Moment    :      0.17945       0.80391      -0.32391
                        -----------------------------------------
Magnitude (a.u.)       :      0.88510
Magnitude (Debye)      :      2.24974

Rotational constants in cm-1:     0.991717     0.181851     0.161787
Rotational constants in MHz : 29730.936218  5451.767017  4850.255547

                             ****ORCA TERMINATED NORMALLY****
TOTAL RUN TIME: 0 days 0 hours 0 minutes 10 seconds 439 msec
