                         Program Version 5.0.3 -  RELEASE  -
|  1> ! HF-3c
|  2> !TightSCF
|  3> %scf
|  4>  ConvForced true
|  5>  convergence tight
|  6>  MaxIter 500
|  7> end
|  8>
|  9> %tddft
| 10>  nroots 1
| 11> end
| 12>
| 13> # 	5752
| 14> * xyz 0 1
| 15> 		C   -1.171454  -0.303429  -0.003966
| 16> 		O   -1.961924  -0.600845  -0.930626
| 17> 		C    0.055675   0.493705  -0.250716
| 18> 		C    1.205672   0.043332   0.255550
| 19> 		H   -1.349187  -0.693717   1.075631
| 20> 		H   -0.092880   1.348442  -1.065718
| 21> 		H    1.200747  -0.761621   0.788737
| 22> 		H    2.092641   0.567135   0.088070
| 23> *
| 24>
| 25>                          ****END OF INPUT****

CARTESIAN COORDINATES (ANGSTROEM)
---------------------------------
  C     -1.171454   -0.303429   -0.003966
  O     -1.961924   -0.600845   -0.930626
  C      0.055675    0.493705   -0.250716
  C      1.205672    0.043332    0.255550
  H     -1.349187   -0.693717    1.075631
  H     -0.092880    1.348442   -1.065718
  H      1.200747   -0.761621    0.788737
  H      2.092641    0.567135    0.088070

 Total Charge           Charge          ....    0
 Multiplicity           Mult            ....    1
 Number of Electrons    NEL             ....   30
 Basis Dimension        Dim             ....   24

ORBITAL ENERGIES
----------------

  NO   OCC          E(Eh)            E(eV)
   0   2.0000     -20.356136      -553.9186
   1   2.0000     -11.285686      -307.0991
   2   2.0000     -11.201073      -304.7967
   3   2.0000     -11.191358      -304.5323
   4   2.0000      -1.371567       -37.3222
   5   2.0000      -1.092440       -29.7268
   6   2.0000      -0.886656       -24.1271
   7   2.0000      -0.767406       -20.8822
   8   2.0000      -0.672114       -18.2892
   9   2.0000      -0.649468       -17.6729
  10   2.0000      -0.579384       -15.7658
  11   2.0000      -0.553946       -15.0736
  12   2.0000      -0.503140       -13.6911
  13   2.0000      -0.412001       -11.2111
  14   2.0000      -0.398560       -10.8454
  15   0.0000       0.136306         3.7091
  16   0.0000       0.263717         7.1761
  17   0.0000       0.527318        14.3490
  18   0.0000       0.555985        15.1291
  19   0.0000       0.670566        18.2470

MULLIKEN ATOMIC CHARGES
-----------------------
   0 C :    0.157118
   1 O :   -0.345090
   2 C :   -0.133891
   3 C :   -0.277125
   4 H :    0.141211
   5 H :    0.165895
   6 H :    0.140702
   7 H :    0.151181
Sum of atomic charges:   -0.0000000

LOEWDIN ATOMIC CHARGES
----------------------
   0 C :    0.143621
   1 O :   -0.262937
   2 C :   -0.091200
   3 C :   -0.170323
   4 H :    0.083365
   5 H :    0.117884
   6 H :    0.082668
   7 H :    0.096922

  Mayer bond orders larger than 0.100000
B(  0-C ,  1-O ) :   1.9175 B(  0-C ,  2-C ) :   1.0177 B(  0-C ,  4-H ) :   0.9208
B(  2-C ,  3-C ) :   1.9653 B(  2-C ,  5-H ) :   0.9465 B(  3-C ,  6-H ) :   0.9681
B(  3-C ,  7-H ) :   0.9639

-----------------------------------------------------------------------------
         ABSORPTION SPECTRUM VIA TRANSITION ELECTRIC DIPOLE MOMENTS
-----------------------------------------------------------------------------
State   Energy    Wavelength  fosc         T2        TX        TY        TZ
        (cm-1)      (nm)                 (au**2)    (au)      (au)      (au)
-----------------------------------------------------------------------------
   1   31259.0    319.9   0.000137531   0.00145  -0.03523   0.00113  -0.01435

Dispersion correction           -0.025411993
FINAL SINGLE POINT ENERGY      -189.319780662384

DIPOLE MOMENT
-------------
                                X             Y             Z
Electronic contribution:     -2.90184      -0.53008      -1.13738
Nuclear contribution   :      3.61922       0.84916       1.75792
                        -----------------------------------------
Total Dipole Moment    :      0.71738       0.31908       0.62053
                        -----------------------------------------
Magnitude (a.u.)       :      1.00075
Magnitude (Debye)      :      2.54370

Rotational constants in cm-1:     1.212832     0.159360     0.149989
Rotational constants in MHz : 36359.780218  4777.503861  4496.552008

                             ****ORCA TERMINATED NORMALLY****
TOTAL RUN TIME: 0 days 0 hours 0 minutes 15 seconds 779 msec
