                         Program Version 5.0.3 -  RELEASE  -
|  1> ! B3LYP cc-pVDZ
|  2> !TightSCF
|  3> %scf
|  4>  ConvForced true
|  5>  convergence tight
|  6>  MaxIter 500
|  7> end
|  8>
|  9> %tddft
| 10>  nroots 1
| 11> end
| 12>
| 13> # 	10596
| 14> * xyz 0 1
| 15> 		C   -1.176366  -0.371785  -0.012102
| 16> 		O   -2.092616  -0.747443   0.809390
| 17> 		C   -0.011122   0.413251   0.327958
| 18> 		C    1.097805   0.228124  -0.307656
| 19> 		H   -1.195746  -0.767496  -0.969752
| 20> 		H   -0.048715   1.237441   1.044147
| 21> 		H    1.364215  -0.807109  -0.929756
| 22> 		H    1.951910   0.758285   0.009316
| 23> *
| 24>
| 25>                          ****END OF INPUT****

CARTESIAN COORDINATES (ANGSTROEM)
---------------------------------
  C     -1.176366   -0.371785   -0.012102
  O     -2.092616   -0.747443    0.809390
  C     -0.011122    0.413251    0.327958
  C      1.097805    0.228124   -0.307656
  H     -1.195746   -0.767496   -0.969752
  H     -0.048715    1.237441    1.044147
  H      1.364215   -0.807109   -0.929756
  H      1.951910    0.758285    0.009316

 Total Charge           Charge          ....    0
 Multiplicity           Mult            ....    1
 Number of Electrons    NEL             ....   30
 Basis Dimension        Dim             ....   76

ORBITAL ENERGIES
----------------

  NO   OCC          E(Eh)            E(eV)
   0   2.0000     -19.136897      -520.7414
   1   2.0000     -10.272747      -279.5357
   2   2.0000     -10.220722      -278.1200
   3   2.0000     -10.208732      -277.7937
   4   2.0000      -1.004608       -27.3368
   5   2.0000      -0.821347       -22.3500
   6   2.0000      -0.659174       -17.9370
   7   2.0000      -0.572404       -15.5759
   8   2.0000      -0.483425       -13.1547
   9   2.0000      -0.473588       -12.8870
  10   2.0000      -0.413951       -11.2642
  11   2.0000      -0.378742       -10.3061
  12   2.0000      -0.373507       -10.1636
  13   2.0000      -0.298064        -8.1107
  14   2.0000      -0.254050        -6.9131
  15   0.0000      -0.072729        -1.9791
  16   0.0000       0.023964         0.6521
  17   0.0000       0.062880         1.7111
  18   0.0000       0.080542         2.1916
  19   0.0000       0.121289         3.3005

MULLIKEN ATOMIC CHARGES
-----------------------
   0 C :    0.218894
   1 O :   -0.253838
   2 C :   -0.039706
   3 C :    0.003769
   4 H :   -0.021703
   5 H :    0.012629
   6 H :    0.055159
   7 H :    0.024796
Sum of atomic charges:    0.0000000

LOEWDIN ATOMIC CHARGES
----------------------
   0 C :    0.018254
   1 O :   -0.066236
   2 C :   -0.057502
   3 C :   -0.010553
   4 H :   -0.006477
   5 H :    0.043424
   6 H :    0.055038
   7 H :    0.024052

  Mayer bond orders larger than 0.100000
B(  0-C ,  1-O ) :   2.0967 B(  0-C ,  2-C ) :   1.0838 B(  0-C ,  4-H ) :   0.9453
B(  2-C ,  3-C ) :   1.9518 B(  2-C ,  5-H ) :   0.9404 B(  3-C ,  6-H ) :   0.9394
B(  3-C ,  7-H ) :   0.9294

-----------------------------------------------------------------------------
         ABSORPTION SPECTRUM VIA TRANSITION ELECTRIC DIPOLE MOMENTS
-----------------------------------------------------------------------------
State   Energy    Wavelength  fosc         T2        TX        TY        TZ
        (cm-1)      (nm)                 (au**2)    (au)      (au)      (au)
-----------------------------------------------------------------------------
   1   26008.9    384.5   0.000070903   0.00090   0.02884  -0.00095  -0.00804

FINAL SINGLE POINT ENERGY      -191.658059782197

DIPOLE MOMENT
-------------
                                X             Y             Z
Electronic contribution:     -3.05433      -0.54650       1.07910
Nuclear contribution   :      4.09453       0.94151      -1.60128
                        -----------------------------------------
Total Dipole Moment    :      1.04020       0.39500      -0.52218
                        -----------------------------------------
Magnitude (a.u.)       :      1.22911
Magnitude (Debye)      :      3.12414

Rotational constants in cm-1:     1.416211     0.155848     0.145132
Rotational constants in MHz : 42456.930090  4672.191377  4350.936410

                             ****ORCA TERMINATED NORMALLY****
TOTAL RUN TIME: 0 days 0 hours 3 minutes 19 seconds 779 msec
