                         Program Version 5.0.3 -  RELEASE  -
|  1> ! B3LYP cc-pVDZ
|  2> !TightSCF
|  3> %scf
|  4>  ConvForced true
|  5>  convergence tight
|  6>  MaxIter 500
|  7> end
|  8>
|  9> %tddft
| 10>  nroots 1
| 11> end
| 12>
| 13> # 	16040
| 14> * xyz 0 1
| 15> 		C   -1.178923  -0.316993  -0.048481
| 16> 		O   -1.151715  -1.543388  -0.011299
| 17> 		C    0.037851   0.601002  -0.003531
| 18> 		C    1.300931  -0.007843  -0.045398
| 19> 		H   -2.193834   0.109490  -0.089704
| 20> 		H   -0.080613   1.530674   0.143612
| 21> 		H    1.156460  -1.095769   0.147616
| 22> 		H    2.134383   0.702117  -0.116171
| 23> *
| 24>
| 25>                          ****END OF INPUT****

CARTESIAN COORDINATES (ANGSTROEM)
---------------------------------
  C     -1.178923   -0.316993   -0.048481
  O     -1.151715   -1.543388   -0.011299
  C      0.037851    0.601002   -0.003531
  C      1.300931   -0.007843   -0.045398
  H     -2.193834    0.109490   -0.089704
  H     -0.080613    1.530674    0.143612
  H      1.156460   -1.095769    0.147616
  H      2.134383    0.702117   -0.116171

 Total Charge           Charge          ....    0
 Multiplicity           Mult            ....    1
 Number of Electrons    NEL             ....   30
 Basis Dimension        Dim             ....   76

ORBITAL ENERGIES
----------------

  NO   OCC          E(Eh)            E(eV)
   0   2.0000     -19.137534      -520.7588
   1   2.0000     -10.276263      -279.6313
   2   2.0000     -10.222120      -278.1580
   3   2.0000     -10.200769      -277.5770
   4   2.0000      -1.036798       -28.2127
   5   2.0000      -0.787382       -21.4258
   6   2.0000      -0.649080       -17.6624
   7   2.0000      -0.556028       -15.1303
   8   2.0000      -0.516557       -14.0562
   9   2.0000      -0.436441       -11.8762
  10   2.0000      -0.414207       -11.2711
  11   2.0000      -0.401600       -10.9281
  12   2.0000      -0.385706       -10.4956
  13   2.0000      -0.276707        -7.5296
  14   2.0000      -0.254523        -6.9259
  15   0.0000      -0.075165        -2.0454
  16   0.0000       0.043119         1.1733
  17   0.0000       0.072701         1.9783
  18   0.0000       0.093881         2.5546
  19   0.0000       0.128929         3.5083

MULLIKEN ATOMIC CHARGES
-----------------------
   0 C :    0.179163
   1 O :   -0.212141
   2 C :   -0.034812
   3 C :    0.058437
   4 H :   -0.012227
   5 H :   -0.077531
   6 H :    0.056435
   7 H :    0.042674
Sum of atomic charges:    0.0000000

LOEWDIN ATOMIC CHARGES
----------------------
   0 C :   -0.014383
   1 O :   -0.026973
   2 C :   -0.043971
   3 C :    0.032545
   4 H :   -0.003282
   5 H :   -0.024239
   6 H :    0.044216
   7 H :    0.036087

  Mayer bond orders larger than 0.100000
B(  0-C ,  1-O ) :   2.1395 B(  0-C ,  2-C ) :   1.0410 B(  0-C ,  4-H ) :   0.9311
B(  2-C ,  3-C ) :   1.9362 B(  2-C ,  5-H ) :   0.9626 B(  3-C ,  6-H ) :   0.9181
B(  3-C ,  7-H ) :   0.9444

-----------------------------------------------------------------------------
         ABSORPTION SPECTRUM VIA TRANSITION ELECTRIC DIPOLE MOMENTS
-----------------------------------------------------------------------------
State   Energy    Wavelength  fosc         T2        TX        TY        TZ
        (cm-1)      (nm)                 (au**2)    (au)      (au)      (au)
-----------------------------------------------------------------------------
   1   26862.7    372.3   0.000077023   0.00094  -0.00060   0.00395   0.03046

FINAL SINGLE POINT ENERGY      -191.651238359126

DIPOLE MOMENT
-------------
                                X             Y             Z
Electronic contribution:     -1.64096      -1.53769      -0.12400
Nuclear contribution   :      1.97689       2.49863       0.16490
                        -----------------------------------------
Total Dipole Moment    :      0.33593       0.96094       0.04090
                        -----------------------------------------
Magnitude (a.u.)       :      1.01879
Magnitude (Debye)      :      2.58955

Rotational constants in cm-1:     0.739850     0.203847     0.160090
Rotational constants in MHz : 22180.147917  6111.168519  4799.388863

                             ****ORCA TERMINATED NORMALLY****
TOTAL RUN TIME: 0 days 0 hours 2 minutes 44 seconds 4 msec
