                         Program Version 5.0.3 -  RELEASE  -
|  1> ! HF-3c
|  2> !TightSCF
|  3> %scf
|  4>  ConvForced true
|  5>  convergence tight
|  6>  MaxIter 500
|  7> end
|  8>
|  9> %tddft
| 10>  nroots 1
| 11> end
| 12>
| 13> # 	29612
| 14> * xyz 0 1
| 15> 		C   -0.623124  -0.459451   0.063338
| 16> 		O   -0.568690  -1.647422  -0.040916
| 17> 		C    0.656970   0.473974  -0.026788
| 18> 		C    1.830289  -0.147010   0.034384
| 19> 		H   -1.609489   0.010436   0.146931
| 20> 		H    0.457720   1.587185  -0.331097
| 21> 		H    1.959145  -1.152062   0.026405
| 22> 		H    2.979602   0.528173  -0.058842
| 23> *
| 24>
| 25>                          ****END OF INPUT****

CARTESIAN COORDINATES (ANGSTROEM)
---------------------------------
  C     -0.623124   -0.459451    0.063338
  O     -0.568690   -1.647422   -0.040916
  C      0.656970    0.473974   -0.026788
  C      1.830289   -0.147010    0.034384
  H     -1.609489    0.010436    0.146931
  H      0.457720    1.587185   -0.331097
  H      1.959145   -1.152062    0.026405
  H      2.979602    0.528173   -0.058842

 Total Charge           Charge          ....    0
 Multiplicity           Mult            ....    1
 Number of Electrons    NEL             ....   30
 Basis Dimension        Dim             ....   24

ORBITAL ENERGIES
----------------

  NO   OCC          E(Eh)            E(eV)
   0   2.0000     -20.368540      -554.2562
   1   2.0000     -11.293847      -307.3212
   2   2.0000     -11.180219      -304.2292
   3   2.0000     -11.178994      -304.1959
   4   2.0000      -1.412329       -38.4314
   5   2.0000      -1.052954       -28.6523
   6   2.0000      -0.858265       -23.3546
   7   2.0000      -0.743297       -20.2261
   8   2.0000      -0.680445       -18.5158
   9   2.0000      -0.611799       -16.6479
  10   2.0000      -0.571797       -15.5594
  11   2.0000      -0.535473       -14.5710
  12   2.0000      -0.503600       -13.7037
  13   2.0000      -0.401245       -10.9184
  14   2.0000      -0.385612       -10.4930
  15   0.0000       0.154992         4.2175
  16   0.0000       0.292104         7.9486
  17   0.0000       0.407699        11.0940
  18   0.0000       0.534901        14.5554
  19   0.0000       0.597386        16.2557

MULLIKEN ATOMIC CHARGES
-----------------------
   0 C :    0.172288
   1 O :   -0.361088
   2 C :   -0.167446
   3 C :   -0.216819
   4 H :    0.134325
   5 H :    0.146238
   6 H :    0.149887
   7 H :    0.142614
Sum of atomic charges:   -0.0000000

LOEWDIN ATOMIC CHARGES
----------------------
   0 C :    0.148122
   1 O :   -0.258615
   2 C :   -0.131615
   3 C :   -0.130329
   4 H :    0.070250
   5 H :    0.101266
   6 H :    0.090893
   7 H :    0.110028

  Mayer bond orders larger than 0.100000
B(  0-C ,  1-O ) :   1.9345 B(  0-C ,  2-C ) :   0.9684 B(  0-C ,  4-H ) :   0.9255
B(  2-C ,  3-C ) :   1.9814 B(  2-C ,  5-H ) :   0.9558 B(  3-C ,  6-H ) :   0.9617
B(  3-C ,  7-H ) :   0.9532

-----------------------------------------------------------------------------
         ABSORPTION SPECTRUM VIA TRANSITION ELECTRIC DIPOLE MOMENTS
-----------------------------------------------------------------------------
State   Energy    Wavelength  fosc         T2        TX        TY        TZ
        (cm-1)      (nm)                 (au**2)    (au)      (au)      (au)
-----------------------------------------------------------------------------
   1   34570.1    289.3   0.000011929   0.00011  -0.01059   0.00078   0.00095

Dispersion correction           -0.025015862
FINAL SINGLE POINT ENERGY      -189.286216670661

DIPOLE MOMENT
-------------
                                X             Y             Z
Electronic contribution:     -2.10291      -1.72375       0.18434
Nuclear contribution   :      2.39472       2.70134      -0.20241
                        -----------------------------------------
Total Dipole Moment    :      0.29182       0.97759      -0.01806
                        -----------------------------------------
Magnitude (a.u.)       :      1.02038
Magnitude (Debye)      :      2.59359

Rotational constants in cm-1:     0.730557     0.202682     0.159366
Rotational constants in MHz : 21901.546503  6076.261400  4777.659645

                             ****ORCA TERMINATED NORMALLY****
TOTAL RUN TIME: 0 days 0 hours 0 minutes 16 seconds 96 msec
