                         Program Version 5.0.3 -  RELEASE  -
|  1> ! HF-3c
|  2> !TightSCF
|  3> %scf
|  4>  ConvForced true
|  5>  convergence tight
|  6>  MaxIter 500
|  7> end
|  8>
|  9> %tddft
| 10>  nroots 1
| 11> end
| 12>
| 13> # 	30429
| 14> * xyz 0 1
| 15> 		C   -0.599953  -0.475605   0.024819
| 16> 		O   -0.572289  -1.607251  -0.007359
| 17> 		C    0.647695   0.440775  -0.009277
| 18> 		C    1.811914  -0.143232  -0.012801
| 19> 		H   -1.500549   0.122176  -0.054434
| 20> 		H    0.592148   1.519757  -0.009627
| 21> 		H    2.104614  -1.152402   0.056675
| 22> 		H    2.703711   0.410578   0.096027
| 23> *
| 24>
| 25>                          ****END OF INPUT****

CARTESIAN COORDINATES (ANGSTROEM)
---------------------------------
  C     -0.599953   -0.475605    0.024819
  O     -0.572289   -1.607251   -0.007359
  C      0.647695    0.440775   -0.009277
  C      1.811914   -0.143232   -0.012801
  H     -1.500549    0.122176   -0.054434
  H      0.592148    1.519757   -0.009627
  H      2.104614   -1.152402    0.056675
  H      2.703711    0.410578    0.096027

 Total Charge           Charge          ....    0
 Multiplicity           Mult            ....    1
 Number of Electrons    NEL             ....   30
 Basis Dimension        Dim             ....   24

ORBITAL ENERGIES
----------------

  NO   OCC          E(Eh)            E(eV)
   0   2.0000     -20.403733      -555.2138
   1   2.0000     -11.323461      -308.1270
   2   2.0000     -11.185027      -304.3601
   3   2.0000     -11.183906      -304.3296
   4   2.0000      -1.471139       -40.0317
   5   2.0000      -1.081556       -29.4306
   6   2.0000      -0.886378       -24.1196
   7   2.0000      -0.769517       -20.9396
   8   2.0000      -0.718310       -19.5462
   9   2.0000      -0.636821       -17.3288
  10   2.0000      -0.611241       -16.6327
  11   2.0000      -0.581169       -15.8144
  12   2.0000      -0.540924       -14.7193
  13   2.0000      -0.412091       -11.2136
  14   2.0000      -0.403110       -10.9692
  15   0.0000       0.154434         4.2024
  16   0.0000       0.314194         8.5496
  17   0.0000       0.531831        14.4719
  18   0.0000       0.597717        16.2647
  19   0.0000       0.702924        19.1275

MULLIKEN ATOMIC CHARGES
-----------------------
   0 C :    0.206458
   1 O :   -0.362302
   2 C :   -0.176332
   3 C :   -0.237453
   4 H :    0.130700
   5 H :    0.147090
   6 H :    0.154582
   7 H :    0.137256
Sum of atomic charges:   -0.0000000

LOEWDIN ATOMIC CHARGES
----------------------
   0 C :    0.164254
   1 O :   -0.236046
   2 C :   -0.135635
   3 C :   -0.132534
   4 H :    0.062089
   5 H :    0.094564
   6 H :    0.097912
   7 H :    0.085396

  Mayer bond orders larger than 0.100000
B(  0-C ,  1-O ) :   1.9463 B(  0-C ,  2-C ) :   0.9663 B(  0-C ,  4-H ) :   0.9145
B(  2-C ,  3-C ) :   1.9787 B(  2-C ,  5-H ) :   0.9595 B(  3-C ,  6-H ) :   0.9616
B(  3-C ,  7-H ) :   0.9649

-----------------------------------------------------------------------------
         ABSORPTION SPECTRUM VIA TRANSITION ELECTRIC DIPOLE MOMENTS
-----------------------------------------------------------------------------
State   Energy    Wavelength  fosc         T2        TX        TY        TZ
        (cm-1)      (nm)                 (au**2)    (au)      (au)      (au)
-----------------------------------------------------------------------------
   1   37683.2    265.4   0.000093292   0.00082   0.02736   0.00631  -0.00515

Dispersion correction           -0.025725424
FINAL SINGLE POINT ENERGY      -189.304121851660

DIPOLE MOMENT
-------------
                                X             Y             Z
Electronic contribution:     -2.26207      -1.77204      -0.03708
Nuclear contribution   :      2.50047       2.63145       0.08275
                        -----------------------------------------
Total Dipole Moment    :      0.23840       0.85940       0.04567
                        -----------------------------------------
Magnitude (a.u.)       :      0.89303
Magnitude (Debye)      :      2.26989

Rotational constants in cm-1:     0.789754     0.212036     0.167246
Rotational constants in MHz : 23676.228763  6356.667724  5013.906298

                             ****ORCA TERMINATED NORMALLY****
TOTAL RUN TIME: 0 days 0 hours 0 minutes 14 seconds 969 msec
