                         Program Version 5.0.3 -  RELEASE  -
|  1> ! B3LYP cc-pVDZ
|  2> !TightSCF
|  3> %scf
|  4>  ConvForced true
|  5>  convergence tight
|  6>  MaxIter 500
|  7> end
|  8>
|  9> %tddft
| 10>  nroots 1
| 11> end
| 12>
| 13> # 	14155
| 14> * xyz 0 1
| 15> 		C   -1.167192  -0.327502  -0.078199
| 16> 		O   -1.856801  -0.704801  -0.958239
| 17> 		C    0.028361   0.482722  -0.302811
| 18> 		C    1.193651   0.107031   0.292794
| 19> 		H   -1.549243  -0.592696   0.899708
| 20> 		H   -0.069585   1.237405  -0.892159
| 21> 		H    1.123155  -0.929069   0.969507
| 22> 		H    2.293473   0.700607   0.039082
| 23> *
| 24>
| 25>                          ****END OF INPUT****

CARTESIAN COORDINATES (ANGSTROEM)
---------------------------------
  C     -1.167192   -0.327502   -0.078199
  O     -1.856801   -0.704801   -0.958239
  C      0.028361    0.482722   -0.302811
  C      1.193651    0.107031    0.292794
  H     -1.549243   -0.592696    0.899708
  H     -0.069585    1.237405   -0.892159
  H      1.123155   -0.929069    0.969507
  H      2.293473    0.700607    0.039082

 Total Charge           Charge          ....    0
 Multiplicity           Mult            ....    1
 Number of Electrons    NEL             ....   30
 Basis Dimension        Dim             ....   76

ORBITAL ENERGIES
----------------

  NO   OCC          E(Eh)            E(eV)
   0   2.0000     -19.134129      -520.6661
   1   2.0000     -10.268425      -279.4181
   2   2.0000     -10.241845      -278.6948
   3   2.0000     -10.198825      -277.5241
   4   2.0000      -1.064730       -28.9728
   5   2.0000      -0.797486       -21.7007
   6   2.0000      -0.629345       -17.1253
   7   2.0000      -0.580199       -15.7880
   8   2.0000      -0.494231       -13.4487
   9   2.0000      -0.454456       -12.3664
  10   2.0000      -0.429071       -11.6756
  11   2.0000      -0.388144       -10.5619
  12   2.0000      -0.380957       -10.3664
  13   2.0000      -0.287645        -7.8272
  14   2.0000      -0.250702        -6.8220
  15   0.0000      -0.049956        -1.3594
  16   0.0000       0.009954         0.2709
  17   0.0000       0.054551         1.4844
  18   0.0000       0.082213         2.2371
  19   0.0000       0.112901         3.0722

MULLIKEN ATOMIC CHARGES
-----------------------
   0 C :    0.154416
   1 O :   -0.171625
   2 C :    0.065309
   3 C :   -0.102087
   4 H :   -0.030300
   5 H :   -0.050588
   6 H :    0.059465
   7 H :    0.075410
Sum of atomic charges:   -0.0000000

LOEWDIN ATOMIC CHARGES
----------------------
   0 C :   -0.047491
   1 O :    0.028917
   2 C :   -0.040033
   3 C :   -0.041885
   4 H :   -0.010027
   5 H :   -0.006325
   6 H :    0.053781
   7 H :    0.063064

  Mayer bond orders larger than 0.100000
B(  0-C ,  1-O ) :   2.2120 B(  0-C ,  2-C ) :   1.0238 B(  0-C ,  4-H ) :   0.9350
B(  2-C ,  3-C ) :   1.9427 B(  2-C ,  5-H ) :   0.9548 B(  3-C ,  6-H ) :   0.9288
B(  3-C ,  7-H ) :   0.9305

-----------------------------------------------------------------------------
         ABSORPTION SPECTRUM VIA TRANSITION ELECTRIC DIPOLE MOMENTS
-----------------------------------------------------------------------------
State   Energy    Wavelength  fosc         T2        TX        TY        TZ
        (cm-1)      (nm)                 (au**2)    (au)      (au)      (au)
-----------------------------------------------------------------------------
   1   31137.4    321.2   0.000802973   0.00849  -0.08517   0.00464  -0.03486

FINAL SINGLE POINT ENERGY      -191.612643110728

DIPOLE MOMENT
-------------
                                X             Y             Z
Electronic contribution:     -2.80884      -0.53012      -1.44791
Nuclear contribution   :      3.48947       0.89797       1.97175
                        -----------------------------------------
Total Dipole Moment    :      0.68063       0.36785       0.52384
                        -----------------------------------------
Magnitude (a.u.)       :      0.93433
Magnitude (Debye)      :      2.37488

Rotational constants in cm-1:     1.246270     0.161589     0.152938
Rotational constants in MHz : 37362.248906  4844.314719  4584.963808

                             ****ORCA TERMINATED NORMALLY****
TOTAL RUN TIME: 0 days 0 hours 3 minutes 12 seconds 297 msec
