                         Program Version 5.0.3 -  RELEASE  -
|  1> ! B3LYP cc-pVDZ
|  2> !TightSCF
|  3> %scf
|  4>  ConvForced true
|  5>  convergence tight
|  6>  MaxIter 500
|  7> end
|  8>
|  9> %tddft
| 10>  nroots 1
| 11> end
| 12>
| 13> # 	29942
| 14> * xyz 0 1
| 15> 		C   -0.580196  -0.411478  -0.102584
| 16> 		O   -0.595126  -1.667693   0.059344
| 17> 		C    0.610623   0.419892   0.077063
| 18> 		C    1.870059  -0.090087  -0.049226
| 19> 		H   -1.650476   0.083564  -0.255174
| 20> 		H    0.393249   1.400777   0.320426
| 21> 		H    2.036018  -1.167169  -0.088898
| 22> 		H    2.948841   0.379776  -0.007876
| 23> *
| 24>
| 25>                          ****END OF INPUT****

CARTESIAN COORDINATES (ANGSTROEM)
---------------------------------
  C     -0.580196   -0.411478   -0.102584
  O     -0.595126   -1.667693    0.059344
  C      0.610623    0.419892    0.077063
  C      1.870059   -0.090087   -0.049226
  H     -1.650476    0.083564   -0.255174
  H      0.393249    1.400777    0.320426
  H      2.036018   -1.167169   -0.088898
  H      2.948841    0.379776   -0.007876

 Total Charge           Charge          ....    0
 Multiplicity           Mult            ....    1
 Number of Electrons    NEL             ....   30
 Basis Dimension        Dim             ....   76

ORBITAL ENERGIES
----------------

  NO   OCC          E(Eh)            E(eV)
   0   2.0000     -19.136075      -520.7191
   1   2.0000     -10.283534      -279.8292
   2   2.0000     -10.230009      -278.3727
   3   2.0000     -10.213445      -277.9220
   4   2.0000      -1.014502       -27.6060
   5   2.0000      -0.794772       -21.6268
   6   2.0000      -0.658787       -17.9265
   7   2.0000      -0.547086       -14.8870
   8   2.0000      -0.498478       -13.5643
   9   2.0000      -0.453202       -12.3323
  10   2.0000      -0.414303       -11.2738
  11   2.0000      -0.383695       -10.4409
  12   2.0000      -0.371394       -10.1061
  13   2.0000      -0.283914        -7.7257
  14   2.0000      -0.252485        -6.8705
  15   0.0000      -0.079651        -2.1674
  16   0.0000       0.037343         1.0161
  17   0.0000       0.061618         1.6767
  18   0.0000       0.083279         2.2661
  19   0.0000       0.116063         3.1582

MULLIKEN ATOMIC CHARGES
-----------------------
   0 C :    0.142558
   1 O :   -0.231812
   2 C :   -0.021283
   3 C :    0.019980
   4 H :    0.008270
   5 H :   -0.021604
   6 H :    0.045431
   7 H :    0.058459
Sum of atomic charges:    0.0000000

LOEWDIN ATOMIC CHARGES
----------------------
   0 C :   -0.009104
   1 O :   -0.059236
   2 C :   -0.069560
   3 C :    0.026821
   4 H :    0.012156
   5 H :    0.016912
   6 H :    0.032594
   7 H :    0.049416

  Mayer bond orders larger than 0.100000
B(  0-C ,  1-O ) :   2.1181 B(  0-C ,  2-C ) :   1.0674 B(  0-C ,  4-H ) :   0.9128
B(  2-C ,  3-C ) :   1.9103 B(  2-C ,  5-H ) :   0.9550 B(  3-C ,  6-H ) :   0.9392
B(  3-C ,  7-H ) :   0.9571

-----------------------------------------------------------------------------
         ABSORPTION SPECTRUM VIA TRANSITION ELECTRIC DIPOLE MOMENTS
-----------------------------------------------------------------------------
State   Energy    Wavelength  fosc         T2        TX        TY        TZ
        (cm-1)      (nm)                 (au**2)    (au)      (au)      (au)
-----------------------------------------------------------------------------
   1   25122.3    398.1   0.000063169   0.00083  -0.00907   0.01775   0.02075

FINAL SINGLE POINT ENERGY      -191.671654337892

DIPOLE MOMENT
-------------
                                X             Y             Z
Electronic contribution:     -1.85963      -1.50794      -0.01641
Nuclear contribution   :      2.34176       2.44090      -0.03003
                        -----------------------------------------
Total Dipole Moment    :      0.48213       0.93296      -0.04645
                        -----------------------------------------
Magnitude (a.u.)       :      1.05120
Magnitude (Debye)      :      2.67193

Rotational constants in cm-1:     0.730675     0.200739     0.158841
Rotational constants in MHz : 21905.090261  6018.001957  4761.932505

                             ****ORCA TERMINATED NORMALLY****
TOTAL RUN TIME: 0 days 0 hours 3 minutes 20 seconds 627 msec
