                         Program Version 5.0.3 -  RELEASE  -
|  1> ! B3LYP cc-pVDZ
|  2> !TightSCF
|  3> %scf
|  4>  ConvForced true
|  5>  convergence tight
|  6>  MaxIter 500
|  7> end
|  8>
|  9> %tddft
| 10>  nroots 1
| 11> end
| 12>
| 13> # 	20436
| 14> * xyz 0 1
| 15> 		C   -0.619767  -0.434117  -0.004020
| 16> 		O   -0.548777  -1.629670   0.002245
| 17> 		C    0.657183   0.447558   0.015252
| 18> 		C    1.825849  -0.131714  -0.006780
| 19> 		H   -1.583956   0.021167  -0.010726
| 20> 		H    0.453263   1.435298  -0.086468
| 21> 		H    1.763700  -1.273433  -0.055207
| 22> 		H    2.811736   0.318705   0.064484
| 23> *
| 24>
| 25>                          ****END OF INPUT****

CARTESIAN COORDINATES (ANGSTROEM)
---------------------------------
  C     -0.619767   -0.434117   -0.004020
  O     -0.548777   -1.629670    0.002245
  C      0.657183    0.447558    0.015252
  C      1.825849   -0.131714   -0.006780
  H     -1.583956    0.021167   -0.010726
  H      0.453263    1.435298   -0.086468
  H      1.763700   -1.273433   -0.055207
  H      2.811736    0.318705    0.064484

 Total Charge           Charge          ....    0
 Multiplicity           Mult            ....    1
 Number of Electrons    NEL             ....   30
 Basis Dimension        Dim             ....   76

ORBITAL ENERGIES
----------------

  NO   OCC          E(Eh)            E(eV)
   0   2.0000     -19.139000      -520.7987
   1   2.0000     -10.273005      -279.5427
   2   2.0000     -10.205480      -277.7052
   3   2.0000     -10.193521      -277.3798
   4   2.0000      -1.054868       -28.7044
   5   2.0000      -0.791738       -21.5443
   6   2.0000      -0.647319       -17.6145
   7   2.0000      -0.551924       -15.0186
   8   2.0000      -0.509539       -13.8653
   9   2.0000      -0.446736       -12.1563
  10   2.0000      -0.435567       -11.8524
  11   2.0000      -0.401294       -10.9198
  12   2.0000      -0.368407       -10.0249
  13   2.0000      -0.288468        -7.8496
  14   2.0000      -0.256313        -6.9746
  15   0.0000      -0.059387        -1.6160
  16   0.0000       0.057801         1.5729
  17   0.0000       0.080651         2.1946
  18   0.0000       0.094580         2.5737
  19   0.0000       0.127946         3.4816

MULLIKEN ATOMIC CHARGES
-----------------------
   0 C :    0.189072
   1 O :   -0.181578
   2 C :   -0.080858
   3 C :    0.069495
   4 H :   -0.021423
   5 H :   -0.050851
   6 H :    0.045219
   7 H :    0.030924
Sum of atomic charges:   -0.0000000

LOEWDIN ATOMIC CHARGES
----------------------
   0 C :   -0.015681
   1 O :    0.009945
   2 C :   -0.071671
   3 C :    0.012595
   4 H :   -0.009378
   5 H :    0.001539
   6 H :    0.043677
   7 H :    0.028975

  Mayer bond orders larger than 0.100000
B(  0-C ,  1-O ) :   2.1942 B(  0-C ,  2-C ) :   1.0125 B(  0-C ,  4-H ) :   0.9281
B(  2-C ,  3-C ) :   1.9904 B(  2-C ,  5-H ) :   0.9607 B(  3-C ,  6-H ) :   0.9080
B(  3-C ,  7-H ) :   0.9486

-----------------------------------------------------------------------------
         ABSORPTION SPECTRUM VIA TRANSITION ELECTRIC DIPOLE MOMENTS
-----------------------------------------------------------------------------
State   Energy    Wavelength  fosc         T2        TX        TY        TZ
        (cm-1)      (nm)                 (au**2)    (au)      (au)      (au)
-----------------------------------------------------------------------------
   1   29905.9    334.4   0.000104168   0.00115  -0.02457  -0.00682   0.02228

FINAL SINGLE POINT ENERGY      -191.658989925306

DIPOLE MOMENT
-------------
                                X             Y             Z
Electronic contribution:     -1.86417      -1.41107       0.05709
Nuclear contribution   :      2.07642       2.26020      -0.08250
                        -----------------------------------------
Total Dipole Moment    :      0.21225       0.84913      -0.02541
                        -----------------------------------------
Magnitude (a.u.)       :      0.87562
Magnitude (Debye)      :      2.22565

Rotational constants in cm-1:     0.759527     0.212485     0.166096
Rotational constants in MHz : 22770.044110  6370.135678  4979.419022

                             ****ORCA TERMINATED NORMALLY****
TOTAL RUN TIME: 0 days 0 hours 3 minutes 17 seconds 250 msec
