                         Program Version 5.0.3 -  RELEASE  -
|  1> ! B3LYP cc-pVDZ
|  2> !TightSCF
|  3> %scf
|  4>  ConvForced true
|  5>  convergence tight
|  6>  MaxIter 500
|  7> end
|  8>
|  9> %tddft
| 10>  nroots 1
| 11> end
| 12>
| 13> # 	8599
| 14> * xyz 0 1
| 15> 		C   -1.152231  -0.392542   0.157051
| 16> 		O   -2.253842  -0.256160   0.637638
| 17> 		C   -0.001734   0.408760   0.294493
| 18> 		C    1.165895   0.131286  -0.382504
| 19> 		H   -0.986409  -1.167496  -0.698993
| 20> 		H    0.184745   1.225927   1.244256
| 21> 		H    1.006605  -0.637390  -1.176042
| 22> 		H    2.020469   0.703135  -0.167699
| 23> *
| 24>
| 25>                          ****END OF INPUT****

CARTESIAN COORDINATES (ANGSTROEM)
---------------------------------
  C     -1.152231   -0.392542    0.157051
  O     -2.253842   -0.256160    0.637638
  C     -0.001734    0.408760    0.294493
  C      1.165895    0.131286   -0.382504
  H     -0.986409   -1.167496   -0.698993
  H      0.184745    1.225927    1.244256
  H      1.006605   -0.637390   -1.176042
  H      2.020469    0.703135   -0.167699

 Total Charge           Charge          ....    0
 Multiplicity           Mult            ....    1
 Number of Electrons    NEL             ....   30
 Basis Dimension        Dim             ....   76

ORBITAL ENERGIES
----------------

  NO   OCC          E(Eh)            E(eV)
   0   2.0000     -19.139436      -520.8105
   1   2.0000     -10.277267      -279.6587
   2   2.0000     -10.230134      -278.3761
   3   2.0000     -10.224635      -278.2265
   4   2.0000      -1.046772       -28.4841
   5   2.0000      -0.809643       -22.0315
   6   2.0000      -0.661252       -17.9936
   7   2.0000      -0.549310       -14.9475
   8   2.0000      -0.482897       -13.1403
   9   2.0000      -0.467790       -12.7292
  10   2.0000      -0.423266       -11.5177
  11   2.0000      -0.403997       -10.9933
  12   2.0000      -0.370597       -10.0845
  13   2.0000      -0.293909        -7.9977
  14   2.0000      -0.256530        -6.9805
  15   0.0000      -0.079342        -2.1590
  16   0.0000       0.040062         1.0901
  17   0.0000       0.057365         1.5610
  18   0.0000       0.069917         1.9025
  19   0.0000       0.127279         3.4634

MULLIKEN ATOMIC CHARGES
-----------------------
   0 C :    0.183267
   1 O :   -0.188116
   2 C :   -0.153574
   3 C :    0.084730
   4 H :   -0.033719
   5 H :    0.038014
   6 H :    0.038549
   7 H :    0.030849
Sum of atomic charges:    0.0000000

LOEWDIN ATOMIC CHARGES
----------------------
   0 C :   -0.073536
   1 O :    0.005530
   2 C :   -0.072031
   3 C :    0.029755
   4 H :   -0.004962
   5 H :    0.053982
   6 H :    0.036197
   7 H :    0.025065

  Mayer bond orders larger than 0.100000
B(  0-C ,  1-O ) :   2.1636 B(  0-C ,  2-C ) :   1.1008 B(  0-C ,  4-H ) :   0.8980
B(  1-O ,  3-C ) :   0.1166 B(  2-C ,  3-C ) :   1.9031 B(  2-C ,  5-H ) :   0.9273
B(  3-C ,  6-H ) :   0.9327 B(  3-C ,  7-H ) :   0.9368

-----------------------------------------------------------------------------
         ABSORPTION SPECTRUM VIA TRANSITION ELECTRIC DIPOLE MOMENTS
-----------------------------------------------------------------------------
State   Energy    Wavelength  fosc         T2        TX        TY        TZ
        (cm-1)      (nm)                 (au**2)    (au)      (au)      (au)
-----------------------------------------------------------------------------
   1   26636.4    375.4   0.000284314   0.00351   0.04206   0.00839   0.04092

FINAL SINGLE POINT ENERGY      -191.662069642737

DIPOLE MOMENT
-------------
                                X             Y             Z
Electronic contribution:     -3.10985      -0.18216       1.08319
Nuclear contribution   :      4.31730       0.26065      -1.42687
                        -----------------------------------------
Total Dipole Moment    :      1.20745       0.07849      -0.34367
                        -----------------------------------------
Magnitude (a.u.)       :      1.25786
Magnitude (Debye)      :      3.19721

Rotational constants in cm-1:     1.575386     0.154804     0.141166
Rotational constants in MHz : 47228.889739  4640.902594  4232.052909

                             ****ORCA TERMINATED NORMALLY****
TOTAL RUN TIME: 0 days 0 hours 3 minutes 21 seconds 648 msec
