                         Program Version 5.0.3 -  RELEASE  -
|  1> ! B3LYP cc-pVDZ
|  2> !TightSCF
|  3> %scf
|  4>  ConvForced true
|  5>  convergence tight
|  6>  MaxIter 500
|  7> end
|  8>
|  9> %tddft
| 10>  nroots 1
| 11> end
| 12>
| 13> # 	19347
| 14> * xyz 0 1
| 15> 		C   -1.218548  -0.298998  -0.017860
| 16> 		O   -1.577101  -1.072266  -0.797695
| 17> 		C    0.000313   0.556840  -0.152628
| 18> 		C    1.193253  -0.021141   0.123015
| 19> 		H   -1.702708  -0.286581   0.764374
| 20> 		H   -0.168929   1.474018  -0.549593
| 21> 		H    1.368982  -0.945007   0.515571
| 22> 		H    2.135802   0.583677   0.137781
| 23> *
| 24>
| 25>                          ****END OF INPUT****

CARTESIAN COORDINATES (ANGSTROEM)
---------------------------------
  C     -1.218548   -0.298998   -0.017860
  O     -1.577101   -1.072266   -0.797695
  C      0.000313    0.556840   -0.152628
  C      1.193253   -0.021141    0.123015
  H     -1.702708   -0.286581    0.764374
  H     -0.168929    1.474018   -0.549593
  H      1.368982   -0.945007    0.515571
  H      2.135802    0.583677    0.137781

 Total Charge           Charge          ....    0
 Multiplicity           Mult            ....    1
 Number of Electrons    NEL             ....   30
 Basis Dimension        Dim             ....   76

ORBITAL ENERGIES
----------------

  NO   OCC          E(Eh)            E(eV)
   0   2.0000     -19.133133      -520.6390
   1   2.0000     -10.252515      -278.9851
   2   2.0000     -10.201773      -277.6044
   3   2.0000     -10.198059      -277.5033
   4   2.0000      -1.078204       -29.3394
   5   2.0000      -0.790956       -21.5230
   6   2.0000      -0.659466       -17.9450
   7   2.0000      -0.593748       -16.1567
   8   2.0000      -0.506266       -13.7762
   9   2.0000      -0.467379       -12.7180
  10   2.0000      -0.446200       -12.1417
  11   2.0000      -0.392067       -10.6687
  12   2.0000      -0.386917       -10.5285
  13   2.0000      -0.283282        -7.7085
  14   2.0000      -0.245985        -6.6936
  15   0.0000      -0.014966        -0.4072
  16   0.0000      -0.013005        -0.3539
  17   0.0000       0.087259         2.3744
  18   0.0000       0.106772         2.9054
  19   0.0000       0.123439         3.3590

MULLIKEN ATOMIC CHARGES
-----------------------
   0 C :    0.252038
   1 O :   -0.152350
   2 C :   -0.065481
   3 C :    0.042603
   4 H :   -0.090525
   5 H :   -0.015774
   6 H :    0.000128
   7 H :    0.029361
Sum of atomic charges:   -0.0000000

LOEWDIN ATOMIC CHARGES
----------------------
   0 C :   -0.029658
   1 O :    0.065572
   2 C :   -0.028866
   3 C :   -0.009694
   4 H :   -0.051185
   5 H :    0.011667
   6 H :    0.007212
   7 H :    0.034951

  Mayer bond orders larger than 0.100000
B(  0-C ,  1-O ) :   2.2883 B(  0-C ,  2-C ) :   0.9769 B(  0-C ,  4-H ) :   0.9420
B(  2-C ,  3-C ) :   2.0344 B(  2-C ,  5-H ) :   0.9458 B(  3-C ,  6-H ) :   0.9548
B(  3-C ,  7-H ) :   0.9555

-----------------------------------------------------------------------------
         ABSORPTION SPECTRUM VIA TRANSITION ELECTRIC DIPOLE MOMENTS
-----------------------------------------------------------------------------
State   Energy    Wavelength  fosc         T2        TX        TY        TZ
        (cm-1)      (nm)                 (au**2)    (au)      (au)      (au)
-----------------------------------------------------------------------------
   1   35221.5    283.9   0.000156496   0.00146   0.03135   0.02097  -0.00632

FINAL SINGLE POINT ENERGY      -191.581403004179

DIPOLE MOMENT
-------------
                                X             Y             Z
Electronic contribution:     -2.74853      -1.09556      -1.08743
Nuclear contribution   :      3.11398       1.66499       1.63980
                        -----------------------------------------
Total Dipole Moment    :      0.36546       0.56943       0.55237
                        -----------------------------------------
Magnitude (a.u.)       :      0.87346
Magnitude (Debye)      :      2.22015

Rotational constants in cm-1:     0.960891     0.180151     0.165385
Rotational constants in MHz : 28806.785654  5400.796771  4958.125133

                             ****ORCA TERMINATED NORMALLY****
TOTAL RUN TIME: 0 days 0 hours 3 minutes 21 seconds 893 msec
