                         Program Version 5.0.3 -  RELEASE  -
|  1> ! B3LYP cc-pVDZ
|  2> !TightSCF
|  3> %scf
|  4>  ConvForced true
|  5>  convergence tight
|  6>  MaxIter 500
|  7> end
|  8>
|  9> %tddft
| 10>  nroots 1
| 11> end
| 12>
| 13> # 	7089
| 14> * xyz 0 1
| 15> 		C   -1.175567  -0.253140  -0.038063
| 16> 		O   -1.667806  -1.024095  -0.872586
| 17> 		C    0.088883   0.523571  -0.193144
| 18> 		C    1.237615   0.010171   0.101016
| 19> 		H   -1.679726  -0.384247   1.118351
| 20> 		H   -0.126104   1.447023  -0.858988
| 21> 		H    1.302854  -0.949252   0.706103
| 22> 		H    2.112788   0.566600   0.015023
| 23> *
| 24>
| 25>                          ****END OF INPUT****

CARTESIAN COORDINATES (ANGSTROEM)
---------------------------------
  C     -1.175567   -0.253140   -0.038063
  O     -1.667806   -1.024095   -0.872586
  C      0.088883    0.523571   -0.193144
  C      1.237615    0.010171    0.101016
  H     -1.679726   -0.384247    1.118351
  H     -0.126104    1.447023   -0.858988
  H      1.302854   -0.949252    0.706103
  H      2.112788    0.566600    0.015023

 Total Charge           Charge          ....    0
 Multiplicity           Mult            ....    1
 Number of Electrons    NEL             ....   30
 Basis Dimension        Dim             ....   76

ORBITAL ENERGIES
----------------

  NO   OCC          E(Eh)            E(eV)
   0   2.0000     -19.149207      -521.0764
   1   2.0000     -10.294474      -280.1269
   2   2.0000     -10.217081      -278.0209
   3   2.0000     -10.206773      -277.7404
   4   2.0000      -1.038364       -28.2553
   5   2.0000      -0.808610       -22.0034
   6   2.0000      -0.650397       -17.6982
   7   2.0000      -0.540799       -14.7159
   8   2.0000      -0.486786       -13.2461
   9   2.0000      -0.463806       -12.6208
  10   2.0000      -0.437975       -11.9179
  11   2.0000      -0.387331       -10.5398
  12   2.0000      -0.368125       -10.0172
  13   2.0000      -0.298534        -8.1235
  14   2.0000      -0.253036        -6.8855
  15   0.0000      -0.045619        -1.2414
  16   0.0000      -0.009067        -0.2467
  17   0.0000       0.066530         1.8104
  18   0.0000       0.080163         2.1813
  19   0.0000       0.088037         2.3956

MULLIKEN ATOMIC CHARGES
-----------------------
   0 C :    0.105292
   1 O :   -0.190448
   2 C :   -0.084194
   3 C :    0.069704
   4 H :   -0.000158
   5 H :    0.042565
   6 H :    0.037316
   7 H :    0.019923
Sum of atomic charges:    0.0000000

LOEWDIN ATOMIC CHARGES
----------------------
   0 C :   -0.012592
   1 O :   -0.017610
   2 C :   -0.071860
   3 C :   -0.018697
   4 H :   -0.000021
   5 H :    0.054125
   6 H :    0.044133
   7 H :    0.022522

  Mayer bond orders larger than 0.100000
B(  0-C ,  1-O ) :   2.2017 B(  0-C ,  2-C ) :   0.9691 B(  0-C ,  4-H ) :   0.8868
B(  2-C ,  3-C ) :   2.0444 B(  2-C ,  5-H ) :   0.9231 B(  3-C ,  6-H ) :   0.9370
B(  3-C ,  7-H ) :   0.9383

-----------------------------------------------------------------------------
         ABSORPTION SPECTRUM VIA TRANSITION ELECTRIC DIPOLE MOMENTS
-----------------------------------------------------------------------------
State   Energy    Wavelength  fosc         T2        TX        TY        TZ
        (cm-1)      (nm)                 (au**2)    (au)      (au)      (au)
-----------------------------------------------------------------------------
   1   30828.8    324.4   0.000602346   0.00643  -0.00396   0.01930  -0.07774

FINAL SINGLE POINT ENERGY      -191.632625967548

DIPOLE MOMENT
-------------
                                X             Y             Z
Electronic contribution:     -2.40387      -0.85637      -1.42184
Nuclear contribution   :      3.04787       1.45141       1.88378
                        -----------------------------------------
Total Dipole Moment    :      0.64399       0.59505       0.46194
                        -----------------------------------------
Magnitude (a.u.)       :      0.99106
Magnitude (Debye)      :      2.51907

Rotational constants in cm-1:     0.949798     0.166662     0.159920
Rotational constants in MHz : 28474.233622  4996.414864  4794.273960

                             ****ORCA TERMINATED NORMALLY****
TOTAL RUN TIME: 0 days 0 hours 3 minutes 21 seconds 361 msec
