                         Program Version 5.0.3 -  RELEASE  -
|  1> ! HF-3c
|  2> !TightSCF
|  3> %scf
|  4>  ConvForced true
|  5>  convergence tight
|  6>  MaxIter 500
|  7> end
|  8>
|  9> %tddft
| 10>  nroots 1
| 11> end
| 12>
| 13> # 	31121
| 14> * xyz 0 1
| 15> 		C   -0.566493  -0.422443  -0.078223
| 16> 		O   -0.647653  -1.674625   0.026587
| 17> 		C    0.620902   0.368161   0.078563
| 18> 		C    1.894814  -0.062265  -0.006201
| 19> 		H   -1.471302   0.290643  -0.028403
| 20> 		H    0.453065   1.335703  -0.037366
| 21> 		H    2.367848  -1.054476  -0.060117
| 22> 		H    2.665840   0.695949  -0.238592
| 23> *
| 24>
| 25>                          ****END OF INPUT****

CARTESIAN COORDINATES (ANGSTROEM)
---------------------------------
  C     -0.566493   -0.422443   -0.078223
  O     -0.647653   -1.674625    0.026587
  C      0.620902    0.368161    0.078563
  C      1.894814   -0.062265   -0.006201
  H     -1.471302    0.290643   -0.028403
  H      0.453065    1.335703   -0.037366
  H      2.367848   -1.054476   -0.060117
  H      2.665840    0.695949   -0.238592

 Total Charge           Charge          ....    0
 Multiplicity           Mult            ....    1
 Number of Electrons    NEL             ....   30
 Basis Dimension        Dim             ....   24

ORBITAL ENERGIES
----------------

  NO   OCC          E(Eh)            E(eV)
   0   2.0000     -20.349249      -553.7312
   1   2.0000     -11.282563      -307.0141
   2   2.0000     -11.204765      -304.8972
   3   2.0000     -11.192616      -304.5666
   4   2.0000      -1.360460       -37.0200
   5   2.0000      -1.088293       -29.6140
   6   2.0000      -0.909863       -24.7586
   7   2.0000      -0.753279       -20.4978
   8   2.0000      -0.695687       -18.9306
   9   2.0000      -0.621609       -16.9148
  10   2.0000      -0.576926       -15.6989
  11   2.0000      -0.533540       -14.5184
  12   2.0000      -0.524159       -14.2631
  13   2.0000      -0.410317       -11.1653
  14   2.0000      -0.385162       -10.4808
  15   0.0000       0.109193         2.9713
  16   0.0000       0.300277         8.1710
  17   0.0000       0.545909        14.8550
  18   0.0000       0.613694        16.6995
  19   0.0000       0.656138        17.8544

MULLIKEN ATOMIC CHARGES
-----------------------
   0 C :    0.157122
   1 O :   -0.343926
   2 C :   -0.207786
   3 C :   -0.183289
   4 H :    0.134606
   5 H :    0.141118
   6 H :    0.160113
   7 H :    0.142041
Sum of atomic charges:    0.0000000

LOEWDIN ATOMIC CHARGES
----------------------
   0 C :    0.145431
   1 O :   -0.264227
   2 C :   -0.157217
   3 C :   -0.081491
   4 H :    0.077125
   5 H :    0.082103
   6 H :    0.105750
   7 H :    0.092527

  Mayer bond orders larger than 0.100000
B(  0-C ,  1-O ) :   1.8840 B(  0-C ,  2-C ) :   1.0624 B(  0-C ,  4-H ) :   0.9229
B(  2-C ,  3-C ) :   1.9102 B(  2-C ,  5-H ) :   0.9606 B(  3-C ,  6-H ) :   0.9619
B(  3-C ,  7-H ) :   0.9652

-----------------------------------------------------------------------------
         ABSORPTION SPECTRUM VIA TRANSITION ELECTRIC DIPOLE MOMENTS
-----------------------------------------------------------------------------
State   Energy    Wavelength  fosc         T2        TX        TY        TZ
        (cm-1)      (nm)                 (au**2)    (au)      (au)      (au)
-----------------------------------------------------------------------------
   1   28680.2    348.7   0.000220273   0.00253  -0.04905   0.01095   0.00169

Dispersion correction           -0.025363453
FINAL SINGLE POINT ENERGY      -189.330873354443

DIPOLE MOMENT
-------------
                                X             Y             Z
Electronic contribution:     -2.08265      -1.99092       0.19081
Nuclear contribution   :      2.60865       2.97330      -0.34072
                        -----------------------------------------
Total Dipole Moment    :      0.52600       0.98238      -0.14990
                        -----------------------------------------
Magnitude (a.u.)       :      1.12437
Magnitude (Debye)      :      2.85793

Rotational constants in cm-1:     0.791194     0.194427     0.156718
Rotational constants in MHz : 23719.384581  5828.773818  4698.296113

                             ****ORCA TERMINATED NORMALLY****
TOTAL RUN TIME: 0 days 0 hours 0 minutes 8 seconds 588 msec
