                         Program Version 5.0.3 -  RELEASE  -
|  1> ! B3LYP cc-pVDZ
|  2> !TightSCF
|  3> %scf
|  4>  ConvForced true
|  5>  convergence tight
|  6>  MaxIter 500
|  7> end
|  8>
|  9> %tddft
| 10>  nroots 1
| 11> end
| 12>
| 13> # 	32503
| 14> * xyz 0 1
| 15> 		C   -0.630951  -0.457181   0.090616
| 16> 		O   -0.520166  -1.558908  -0.057547
| 17> 		C    0.617984   0.410379  -0.036410
| 18> 		C    1.816006  -0.182983   0.031163
| 19> 		H   -1.418382   0.003094   0.077449
| 20> 		H    0.510537   1.646582  -0.248373
| 21> 		H    1.854918  -1.292835   0.290440
| 22> 		H    2.777081   0.373756  -0.254265
| 23> *
| 24>
| 25>                          ****END OF INPUT****

CARTESIAN COORDINATES (ANGSTROEM)
---------------------------------
  C     -0.630951   -0.457181    0.090616
  O     -0.520166   -1.558908   -0.057547
  C      0.617984    0.410379   -0.036410
  C      1.816006   -0.182983    0.031163
  H     -1.418382    0.003094    0.077449
  H      0.510537    1.646582   -0.248373
  H      1.854918   -1.292835    0.290440
  H      2.777081    0.373756   -0.254265

 Total Charge           Charge          ....    0
 Multiplicity           Mult            ....    1
 Number of Electrons    NEL             ....   30
 Basis Dimension        Dim             ....   76

ORBITAL ENERGIES
----------------

  NO   OCC          E(Eh)            E(eV)
   0   2.0000     -19.137696      -520.7632
   1   2.0000     -10.255037      -279.0537
   2   2.0000     -10.207881      -277.7706
   3   2.0000     -10.202848      -277.6336
   4   2.0000      -1.105562       -30.0839
   5   2.0000      -0.773246       -21.0411
   6   2.0000      -0.663570       -18.0566
   7   2.0000      -0.554867       -15.0987
   8   2.0000      -0.493344       -13.4246
   9   2.0000      -0.457864       -12.4591
  10   2.0000      -0.432865       -11.7788
  11   2.0000      -0.416077       -11.3220
  12   2.0000      -0.363652        -9.8955
  13   2.0000      -0.278269        -7.5721
  14   2.0000      -0.253770        -6.9054
  15   0.0000      -0.050061        -1.3622
  16   0.0000       0.057780         1.5723
  17   0.0000       0.064050         1.7429
  18   0.0000       0.090009         2.4493
  19   0.0000       0.125583         3.4173

MULLIKEN ATOMIC CHARGES
-----------------------
   0 C :    0.322643
   1 O :   -0.119160
   2 C :   -0.233079
   3 C :    0.026459
   4 H :   -0.108721
   5 H :    0.020381
   6 H :    0.047839
   7 H :    0.043638
Sum of atomic charges:    0.0000000

LOEWDIN ATOMIC CHARGES
----------------------
   0 C :   -0.057872
   1 O :    0.106558
   2 C :   -0.099176
   3 C :   -0.016218
   4 H :   -0.052940
   5 H :    0.040344
   6 H :    0.039162
   7 H :    0.040142

  Mayer bond orders larger than 0.100000
B(  0-C ,  1-O ) :   2.2912 B(  0-C ,  2-C ) :   0.9943 B(  0-C ,  4-H ) :   0.9275
B(  2-C ,  3-C ) :   1.9906 B(  2-C ,  5-H ) :   0.9223 B(  3-C ,  6-H ) :   0.9248
B(  3-C ,  7-H ) :   0.9430

-----------------------------------------------------------------------------
         ABSORPTION SPECTRUM VIA TRANSITION ELECTRIC DIPOLE MOMENTS
-----------------------------------------------------------------------------
State   Energy    Wavelength  fosc         T2        TX        TY        TZ
        (cm-1)      (nm)                 (au**2)    (au)      (au)      (au)
-----------------------------------------------------------------------------
   1   31873.0    313.7   0.000229825   0.00237  -0.03536   0.03351  -0.00100

FINAL SINGLE POINT ENERGY      -191.588421038433

DIPOLE MOMENT
-------------
                                X             Y             Z
Electronic contribution:     -2.26766      -1.82309       0.18180
Nuclear contribution   :      2.33790       2.47438      -0.12518
                        -----------------------------------------
Total Dipole Moment    :      0.07024       0.65129       0.05663
                        -----------------------------------------
Magnitude (a.u.)       :      0.65751
Magnitude (Debye)      :      1.67126

Rotational constants in cm-1:     0.756608     0.223127     0.173719
Rotational constants in MHz : 22682.550209  6689.175320  5207.957688

                             ****ORCA TERMINATED NORMALLY****
TOTAL RUN TIME: 0 days 0 hours 2 minutes 57 seconds 990 msec
