                         Program Version 5.0.3 -  RELEASE  -
|  1> ! HF-3c
|  2> !TightSCF
|  3> %scf
|  4>  ConvForced true
|  5>  convergence tight
|  6>  MaxIter 500
|  7> end
|  8>
|  9> %tddft
| 10>  nroots 1
| 11> end
| 12>
| 13> # 	11625
| 14> * xyz 0 1
| 15> 		C   -1.185096  -0.370411  -0.093304
| 16> 		O   -1.531725  -1.363576   0.537103
| 17> 		C   -0.007738   0.492991   0.228758
| 18> 		C    1.253468   0.022854  -0.030081
| 19> 		H   -1.798998  -0.072520  -0.842713
| 20> 		H   -0.166164   1.484543   0.530741
| 21> 		H    1.393381  -1.031304  -0.528586
| 22> 		H    2.082812   0.834400   0.178415
| 23> *
| 24>
| 25>                          ****END OF INPUT****

CARTESIAN COORDINATES (ANGSTROEM)
---------------------------------
  C     -1.185096   -0.370411   -0.093304
  O     -1.531725   -1.363576    0.537103
  C     -0.007738    0.492991    0.228758
  C      1.253468    0.022854   -0.030081
  H     -1.798998   -0.072520   -0.842713
  H     -0.166164    1.484543    0.530741
  H      1.393381   -1.031304   -0.528586
  H      2.082812    0.834400    0.178415

 Total Charge           Charge          ....    0
 Multiplicity           Mult            ....    1
 Number of Electrons    NEL             ....   30
 Basis Dimension        Dim             ....   24

ORBITAL ENERGIES
----------------

  NO   OCC          E(Eh)            E(eV)
   0   2.0000     -20.368204      -554.2470
   1   2.0000     -11.293401      -307.3091
   2   2.0000     -11.180993      -304.2503
   3   2.0000     -11.179346      -304.2055
   4   2.0000      -1.393261       -37.9126
   5   2.0000      -1.063402       -28.9366
   6   2.0000      -0.881763       -23.9940
   7   2.0000      -0.762392       -20.7457
   8   2.0000      -0.695085       -18.9142
   9   2.0000      -0.607202       -16.5228
  10   2.0000      -0.587611       -15.9897
  11   2.0000      -0.539796       -14.6886
  12   2.0000      -0.498704       -13.5704
  13   2.0000      -0.415590       -11.3088
  14   2.0000      -0.387285       -10.5385
  15   0.0000       0.167875         4.5681
  16   0.0000       0.226548         6.1647
  17   0.0000       0.519844        14.1457
  18   0.0000       0.562840        15.3157
  19   0.0000       0.638372        17.3710

MULLIKEN ATOMIC CHARGES
-----------------------
   0 C :    0.143797
   1 O :   -0.335483
   2 C :   -0.183214
   3 C :   -0.206807
   4 H :    0.138568
   5 H :    0.145631
   6 H :    0.151838
   7 H :    0.145670
Sum of atomic charges:   -0.0000000

LOEWDIN ATOMIC CHARGES
----------------------
   0 C :    0.140574
   1 O :   -0.245671
   2 C :   -0.138371
   3 C :   -0.125774
   4 H :    0.067833
   5 H :    0.091657
   6 H :    0.107191
   7 H :    0.102560

  Mayer bond orders larger than 0.100000
B(  0-C ,  1-O ) :   1.9357 B(  0-C ,  2-C ) :   0.9993 B(  0-C ,  4-H ) :   0.9335
B(  2-C ,  3-C ) :   1.9756 B(  2-C ,  5-H ) :   0.9558 B(  3-C ,  6-H ) :   0.9603
B(  3-C ,  7-H ) :   0.9601

-----------------------------------------------------------------------------
         ABSORPTION SPECTRUM VIA TRANSITION ELECTRIC DIPOLE MOMENTS
-----------------------------------------------------------------------------
State   Energy    Wavelength  fosc         T2        TX        TY        TZ
        (cm-1)      (nm)                 (au**2)    (au)      (au)      (au)
-----------------------------------------------------------------------------
   1   32797.6    304.9   0.000039930   0.00040   0.01860   0.00295   0.00679

Dispersion correction           -0.025047003
FINAL SINGLE POINT ENERGY      -189.310161732322

DIPOLE MOMENT
-------------
                                X             Y             Z
Electronic contribution:     -2.34080      -1.61147       0.71015
Nuclear contribution   :      2.89047       2.38616      -1.23092
                        -----------------------------------------
Total Dipole Moment    :      0.54968       0.77469      -0.52076
                        -----------------------------------------
Magnitude (a.u.)       :      1.08327
Magnitude (Debye)      :      2.75346

Rotational constants in cm-1:     0.879006     0.175376     0.157352
Rotational constants in MHz : 26351.949116  5257.627632  4717.287148

                             ****ORCA TERMINATED NORMALLY****
TOTAL RUN TIME: 0 days 0 hours 0 minutes 12 seconds 315 msec
