                         Program Version 5.0.3 -  RELEASE  -
|  1> ! B3LYP cc-pVDZ
|  2> !TightSCF
|  3> %scf
|  4>  ConvForced true
|  5>  convergence tight
|  6>  MaxIter 500
|  7> end
|  8>
|  9> %tddft
| 10>  nroots 1
| 11> end
| 12>
| 13> # 	23667
| 14> * xyz 0 1
| 15> 		C   -0.589783  -0.401299  -0.014898
| 16> 		O   -0.546422  -1.644310   0.015217
| 17> 		C    0.569625   0.441155   0.014051
| 18> 		C    1.858429  -0.169167   0.010027
| 19> 		H   -1.495808   0.233895  -0.104183
| 20> 		H    0.388699   1.479340  -0.014825
| 21> 		H    1.987727  -1.189685  -0.263544
| 22> 		H    2.811894   0.400296   0.038713
| 23> *
| 24>
| 25>                          ****END OF INPUT****

CARTESIAN COORDINATES (ANGSTROEM)
---------------------------------
  C     -0.589783   -0.401299   -0.014898
  O     -0.546422   -1.644310    0.015217
  C      0.569625    0.441155    0.014051
  C      1.858429   -0.169167    0.010027
  H     -1.495808    0.233895   -0.104183
  H      0.388699    1.479340   -0.014825
  H      1.987727   -1.189685   -0.263544
  H      2.811894    0.400296    0.038713

 Total Charge           Charge          ....    0
 Multiplicity           Mult            ....    1
 Number of Electrons    NEL             ....   30
 Basis Dimension        Dim             ....   76

ORBITAL ENERGIES
----------------

  NO   OCC          E(Eh)            E(eV)
   0   2.0000     -19.134015      -520.6630
   1   2.0000     -10.270303      -279.4692
   2   2.0000     -10.229053      -278.3467
   3   2.0000     -10.210601      -277.8446
   4   2.0000      -1.023878       -27.8611
   5   2.0000      -0.787363       -21.4252
   6   2.0000      -0.670821       -18.2540
   7   2.0000      -0.546809       -14.8794
   8   2.0000      -0.502929       -13.6854
   9   2.0000      -0.444762       -12.1026
  10   2.0000      -0.412067       -11.2129
  11   2.0000      -0.395419       -10.7599
  12   2.0000      -0.384950       -10.4750
  13   2.0000      -0.274671        -7.4742
  14   2.0000      -0.254270        -6.9190
  15   0.0000      -0.087874        -2.3912
  16   0.0000       0.052493         1.4284
  17   0.0000       0.070021         1.9054
  18   0.0000       0.088760         2.4153
  19   0.0000       0.130753         3.5580

MULLIKEN ATOMIC CHARGES
-----------------------
   0 C :    0.198692
   1 O :   -0.224118
   2 C :   -0.089335
   3 C :    0.060737
   4 H :   -0.020923
   5 H :   -0.015631
   6 H :    0.046011
   7 H :    0.044567
Sum of atomic charges:   -0.0000000

LOEWDIN ATOMIC CHARGES
----------------------
   0 C :   -0.033027
   1 O :   -0.039117
   2 C :   -0.065625
   3 C :    0.060376
   4 H :   -0.002966
   5 H :    0.019468
   6 H :    0.027432
   7 H :    0.033460

  Mayer bond orders larger than 0.100000
B(  0-C ,  1-O ) :   2.1365 B(  0-C ,  2-C ) :   1.1256 B(  0-C ,  4-H ) :   0.9167
B(  1-O ,  3-C ) :   0.1229 B(  2-C ,  3-C ) :   1.8794 B(  2-C ,  5-H ) :   0.9528
B(  3-C ,  6-H ) :   0.9478 B(  3-C ,  7-H ) :   0.9561

-----------------------------------------------------------------------------
         ABSORPTION SPECTRUM VIA TRANSITION ELECTRIC DIPOLE MOMENTS
-----------------------------------------------------------------------------
State   Energy    Wavelength  fosc         T2        TX        TY        TZ
        (cm-1)      (nm)                 (au**2)    (au)      (au)      (au)
-----------------------------------------------------------------------------
   1   24182.0    413.5   0.000036482   0.00050   0.00600  -0.01168   0.01801

FINAL SINGLE POINT ENERGY      -191.682663386955

DIPOLE MOMENT
-------------
                                X             Y             Z
Electronic contribution:     -1.81944      -1.69695       0.23492
Nuclear contribution   :      2.30976       2.65205      -0.32284
                        -----------------------------------------
Total Dipole Moment    :      0.49032       0.95511      -0.08792
                        -----------------------------------------
Magnitude (a.u.)       :      1.07721
Magnitude (Debye)      :      2.73805

Rotational constants in cm-1:     0.686100     0.216382     0.164799
Rotational constants in MHz : 20568.747249  6486.962720  4940.558972

                             ****ORCA TERMINATED NORMALLY****
TOTAL RUN TIME: 0 days 0 hours 2 minutes 42 seconds 690 msec
