                         Program Version 5.0.3 -  RELEASE  -
|  1> ! B3LYP cc-pVDZ
|  2> !TightSCF
|  3> %scf
|  4>  ConvForced true
|  5>  convergence tight
|  6>  MaxIter 500
|  7> end
|  8>
|  9> %tddft
| 10>  nroots 1
| 11> end
| 12>
| 13> # 	20718
| 14> * xyz 0 1
| 15> 		C   -0.573196  -0.430841   0.034249
| 16> 		O   -0.605943  -1.616547  -0.014158
| 17> 		C    0.657151   0.355736  -0.043699
| 18> 		C    1.830636  -0.087752  -0.002739
| 19> 		H   -1.511684   0.089365  -0.020102
| 20> 		H    0.553691   1.338911   0.203664
| 21> 		H    2.007747  -1.131543   0.250830
| 22> 		H    2.711931   0.545307  -0.062791
| 23> *
| 24>
| 25>                          ****END OF INPUT****

CARTESIAN COORDINATES (ANGSTROEM)
---------------------------------
  C     -0.573196   -0.430841    0.034249
  O     -0.605943   -1.616547   -0.014158
  C      0.657151    0.355736   -0.043699
  C      1.830636   -0.087752   -0.002739
  H     -1.511684    0.089365   -0.020102
  H      0.553691    1.338911    0.203664
  H      2.007747   -1.131543    0.250830
  H      2.711931    0.545307   -0.062791

 Total Charge           Charge          ....    0
 Multiplicity           Mult            ....    1
 Number of Electrons    NEL             ....   30
 Basis Dimension        Dim             ....   76

ORBITAL ENERGIES
----------------

  NO   OCC          E(Eh)            E(eV)
   0   2.0000     -19.133706      -520.6546
   1   2.0000     -10.264871      -279.3213
   2   2.0000     -10.200370      -277.5662
   3   2.0000     -10.182342      -277.0756
   4   2.0000      -1.057662       -28.7805
   5   2.0000      -0.815305       -22.1856
   6   2.0000      -0.660004       -17.9596
   7   2.0000      -0.547822       -14.9070
   8   2.0000      -0.521350       -14.1866
   9   2.0000      -0.453837       -12.3495
  10   2.0000      -0.433197       -11.7879
  11   2.0000      -0.411054       -11.1854
  12   2.0000      -0.373824       -10.1723
  13   2.0000      -0.293145        -7.9769
  14   2.0000      -0.252293        -6.8652
  15   0.0000      -0.062860        -1.7105
  16   0.0000       0.064026         1.7422
  17   0.0000       0.076389         2.0787
  18   0.0000       0.101973         2.7748
  19   0.0000       0.131777         3.5858

MULLIKEN ATOMIC CHARGES
-----------------------
   0 C :    0.180791
   1 O :   -0.173126
   2 C :   -0.079597
   3 C :    0.093571
   4 H :   -0.036500
   5 H :   -0.035562
   6 H :    0.024951
   7 H :    0.025473
Sum of atomic charges:   -0.0000000

LOEWDIN ATOMIC CHARGES
----------------------
   0 C :   -0.042941
   1 O :    0.020351
   2 C :   -0.086805
   3 C :    0.032085
   4 H :   -0.010482
   5 H :    0.018758
   6 H :    0.033664
   7 H :    0.035371

  Mayer bond orders larger than 0.100000
B(  0-C ,  1-O ) :   2.2265 B(  0-C ,  2-C ) :   1.0580 B(  0-C ,  4-H ) :   0.9229
B(  2-C ,  3-C ) :   2.0057 B(  2-C ,  5-H ) :   0.9329 B(  3-C ,  6-H ) :   0.9309
B(  3-C ,  7-H ) :   0.9303

-----------------------------------------------------------------------------
         ABSORPTION SPECTRUM VIA TRANSITION ELECTRIC DIPOLE MOMENTS
-----------------------------------------------------------------------------
State   Energy    Wavelength  fosc         T2        TX        TY        TZ
        (cm-1)      (nm)                 (au**2)    (au)      (au)      (au)
-----------------------------------------------------------------------------
   1   28463.8    351.3   0.000540287   0.00625  -0.06799  -0.02206  -0.03377

FINAL SINGLE POINT ENERGY      -191.650781573615

DIPOLE MOMENT
-------------
                                X             Y             Z
Electronic contribution:     -1.97344      -1.70708      -0.22108
Nuclear contribution   :      2.37148       2.57848       0.34831
                        -----------------------------------------
Total Dipole Moment    :      0.39805       0.87141       0.12722
                        -----------------------------------------
Magnitude (a.u.)       :      0.96643
Magnitude (Debye)      :      2.45646

Rotational constants in cm-1:     0.871521     0.207669     0.168209
Rotational constants in MHz : 26127.537765  6225.761341  5042.773660

                             ****ORCA TERMINATED NORMALLY****
TOTAL RUN TIME: 0 days 0 hours 3 minutes 21 seconds 633 msec
