                         Program Version 5.0.3 -  RELEASE  -
|  1> ! B3LYP cc-pVDZ
|  2> !TightSCF
|  3> %scf
|  4>  ConvForced true
|  5>  convergence tight
|  6>  MaxIter 500
|  7> end
|  8>
|  9> %tddft
| 10>  nroots 1
| 11> end
| 12>
| 13> # 	26174
| 14> * xyz 0 1
| 15> 		C   -0.581225  -0.403068   0.007025
| 16> 		O   -0.574113  -1.629860  -0.003794
| 17> 		C    0.565054   0.376183   0.032268
| 18> 		C    1.875805  -0.108541   0.008159
| 19> 		H   -1.481805   0.257168  -0.187954
| 20> 		H    0.363171   1.367593  -0.075607
| 21> 		H    2.100514  -1.226303  -0.029300
| 22> 		H    2.874236   0.372409  -0.224509
| 23> *
| 24>
| 25>                          ****END OF INPUT****

CARTESIAN COORDINATES (ANGSTROEM)
---------------------------------
  C     -0.581225   -0.403068    0.007025
  O     -0.574113   -1.629860   -0.003794
  C      0.565054    0.376183    0.032268
  C      1.875805   -0.108541    0.008159
  H     -1.481805    0.257168   -0.187954
  H      0.363171    1.367593   -0.075607
  H      2.100514   -1.226303   -0.029300
  H      2.874236    0.372409   -0.224509

 Total Charge           Charge          ....    0
 Multiplicity           Mult            ....    1
 Number of Electrons    NEL             ....   30
 Basis Dimension        Dim             ....   76

ORBITAL ENERGIES
----------------

  NO   OCC          E(Eh)            E(eV)
   0   2.0000     -19.132849      -520.6313
   1   2.0000     -10.267851      -279.4024
   2   2.0000     -10.236391      -278.5464
   3   2.0000     -10.203310      -277.6462
   4   2.0000      -1.033730       -28.1292
   5   2.0000      -0.797648       -21.7051
   6   2.0000      -0.674514       -18.3545
   7   2.0000      -0.544324       -14.8118
   8   2.0000      -0.507184       -13.8012
   9   2.0000      -0.449812       -12.2400
  10   2.0000      -0.417172       -11.3518
  11   2.0000      -0.396702       -10.7948
  12   2.0000      -0.372563       -10.1380
  13   2.0000      -0.280591        -7.6353
  14   2.0000      -0.254468        -6.9244
  15   0.0000      -0.087578        -2.3831
  16   0.0000       0.057618         1.5679
  17   0.0000       0.071746         1.9523
  18   0.0000       0.079654         2.1675
  19   0.0000       0.127834         3.4785

MULLIKEN ATOMIC CHARGES
-----------------------
   0 C :    0.169649
   1 O :   -0.205601
   2 C :   -0.019958
   3 C :    0.006417
   4 H :   -0.024140
   5 H :   -0.038862
   6 H :    0.057086
   7 H :    0.055410
Sum of atomic charges:   -0.0000000

LOEWDIN ATOMIC CHARGES
----------------------
   0 C :   -0.054138
   1 O :   -0.017655
   2 C :   -0.071251
   3 C :    0.043571
   4 H :    0.001499
   5 H :    0.013214
   6 H :    0.043415
   7 H :    0.041346

  Mayer bond orders larger than 0.100000
B(  0-C ,  1-O ) :   2.1622 B(  0-C ,  2-C ) :   1.1487 B(  0-C ,  4-H ) :   0.9063
B(  1-O ,  3-C ) :   0.1289 B(  2-C ,  3-C ) :   1.8620 B(  2-C ,  5-H ) :   0.9481
B(  3-C ,  6-H ) :   0.9460 B(  3-C ,  7-H ) :   0.9580

-----------------------------------------------------------------------------
         ABSORPTION SPECTRUM VIA TRANSITION ELECTRIC DIPOLE MOMENTS
-----------------------------------------------------------------------------
State   Energy    Wavelength  fosc         T2        TX        TY        TZ
        (cm-1)      (nm)                 (au**2)    (au)      (au)      (au)
-----------------------------------------------------------------------------
   1   24261.3    412.2   0.000197313   0.00268  -0.04269  -0.02008   0.02125

FINAL SINGLE POINT ENERGY      -191.672202334894

DIPOLE MOMENT
-------------
                                X             Y             Z
Electronic contribution:     -1.91118      -1.60265       0.39531
Nuclear contribution   :      2.46429       2.50851      -0.48462
                        -----------------------------------------
Total Dipole Moment    :      0.55311       0.90586      -0.08931
                        -----------------------------------------
Magnitude (a.u.)       :      1.06512
Magnitude (Debye)      :      2.70733

Rotational constants in cm-1:     0.739091     0.211391     0.164721
Rotational constants in MHz : 22157.378009  6337.340572  4938.203470

                             ****ORCA TERMINATED NORMALLY****
TOTAL RUN TIME: 0 days 0 hours 3 minutes 16 seconds 90 msec
