                         Program Version 5.0.3 -  RELEASE  -
|  1> ! HF-3c
|  2> !TightSCF
|  3> %scf
|  4>  ConvForced true
|  5>  convergence tight
|  6>  MaxIter 500
|  7> end
|  8>
|  9> %tddft
| 10>  nroots 1
| 11> end
| 12>
| 13> # 	6569
| 14> * xyz 0 1
| 15> 		C   -1.179417  -0.304318  -0.021250
| 16> 		O   -1.484911  -1.248994   0.657730
| 17> 		C   -0.018679   0.478386   0.207193
| 18> 		C    1.230927   0.021343  -0.179420
| 19> 		H   -1.921280   0.045822  -0.813950
| 20> 		H   -0.134946   1.546498   0.559328
| 21> 		H    1.398656  -1.068724  -0.490938
| 22> 		H    2.126745   0.505595   0.078400
| 23> *
| 24>
| 25>                          ****END OF INPUT****

CARTESIAN COORDINATES (ANGSTROEM)
---------------------------------
  C     -1.179417   -0.304318   -0.021250
  O     -1.484911   -1.248994    0.657730
  C     -0.018679    0.478386    0.207193
  C      1.230927    0.021343   -0.179420
  H     -1.921280    0.045822   -0.813950
  H     -0.134946    1.546498    0.559328
  H      1.398656   -1.068724   -0.490938
  H      2.126745    0.505595    0.078400

 Total Charge           Charge          ....    0
 Multiplicity           Mult            ....    1
 Number of Electrons    NEL             ....   30
 Basis Dimension        Dim             ....   24

ORBITAL ENERGIES
----------------

  NO   OCC          E(Eh)            E(eV)
   0   2.0000     -20.371554      -554.3382
   1   2.0000     -11.300330      -307.4976
   2   2.0000     -11.190572      -304.5109
   3   2.0000     -11.179118      -304.1993
   4   2.0000      -1.411422       -38.4067
   5   2.0000      -1.069117       -29.0922
   6   2.0000      -0.890890       -24.2423
   7   2.0000      -0.748827       -20.3766
   8   2.0000      -0.689060       -18.7503
   9   2.0000      -0.628977       -17.1153
  10   2.0000      -0.605066       -16.4647
  11   2.0000      -0.539328       -14.6759
  12   2.0000      -0.499400       -13.5894
  13   2.0000      -0.414877       -11.2894
  14   2.0000      -0.384065       -10.4509
  15   0.0000       0.161143         4.3849
  16   0.0000       0.225103         6.1254
  17   0.0000       0.559326        15.2200
  18   0.0000       0.603889        16.4327
  19   0.0000       0.665505        18.1093

MULLIKEN ATOMIC CHARGES
-----------------------
   0 C :    0.161408
   1 O :   -0.342502
   2 C :   -0.166089
   3 C :   -0.225512
   4 H :    0.137708
   5 H :    0.154862
   6 H :    0.142590
   7 H :    0.137534
Sum of atomic charges:   -0.0000000

LOEWDIN ATOMIC CHARGES
----------------------
   0 C :    0.142544
   1 O :   -0.246550
   2 C :   -0.124544
   3 C :   -0.135996
   4 H :    0.076543
   5 H :    0.105986
   6 H :    0.096687
   7 H :    0.085331

  Mayer bond orders larger than 0.100000
B(  0-C ,  1-O ) :   1.9263 B(  0-C ,  2-C ) :   1.0266 B(  0-C ,  4-H ) :   0.9123
B(  2-C ,  3-C ) :   1.9650 B(  2-C ,  5-H ) :   0.9451 B(  3-C ,  6-H ) :   0.9648
B(  3-C ,  7-H ) :   0.9684

-----------------------------------------------------------------------------
         ABSORPTION SPECTRUM VIA TRANSITION ELECTRIC DIPOLE MOMENTS
-----------------------------------------------------------------------------
State   Energy    Wavelength  fosc         T2        TX        TY        TZ
        (cm-1)      (nm)                 (au**2)    (au)      (au)      (au)
-----------------------------------------------------------------------------
   1   34138.0    292.9   0.000172944   0.00167  -0.03978  -0.00342  -0.00860

Dispersion correction           -0.025119224
FINAL SINGLE POINT ENERGY      -189.309755482278

DIPOLE MOMENT
-------------
                                X             Y             Z
Electronic contribution:     -2.41189      -1.32278       0.79001
Nuclear contribution   :      2.82684       2.06248      -1.28341
                        -----------------------------------------
Total Dipole Moment    :      0.41496       0.73970      -0.49339
                        -----------------------------------------
Magnitude (a.u.)       :      0.98121
Magnitude (Debye)      :      2.49405

Rotational constants in cm-1:     0.869481     0.183483     0.164237
Rotational constants in MHz : 26066.372106  5500.667454  4923.701491

                             ****ORCA TERMINATED NORMALLY****
TOTAL RUN TIME: 0 days 0 hours 0 minutes 7 seconds 189 msec
