                         Program Version 5.0.3 -  RELEASE  -
|  1> ! HF-3c
|  2> !TightSCF
|  3> %scf
|  4>  ConvForced true
|  5>  convergence tight
|  6>  MaxIter 500
|  7> end
|  8>
|  9> %tddft
| 10>  nroots 1
| 11> end
| 12>
| 13> # 	21586
| 14> * xyz 0 1
| 15> 		C   -0.538652  -0.393473  -0.030390
| 16> 		O   -0.554441  -1.610428   0.033454
| 17> 		C    0.557879   0.424714   0.036754
| 18> 		C    1.838558  -0.185124  -0.018011
| 19> 		H   -1.433524   0.156446  -0.267436
| 20> 		H    0.333728   1.380376   0.056268
| 21> 		H    1.967852  -1.283313  -0.340690
| 22> 		H    2.715917   0.414026   0.181297
| 23> *
| 24>
| 25>                          ****END OF INPUT****

CARTESIAN COORDINATES (ANGSTROEM)
---------------------------------
  C     -0.538652   -0.393473   -0.030390
  O     -0.554441   -1.610428    0.033454
  C      0.557879    0.424714    0.036754
  C      1.838558   -0.185124   -0.018011
  H     -1.433524    0.156446   -0.267436
  H      0.333728    1.380376    0.056268
  H      1.967852   -1.283313   -0.340690
  H      2.715917    0.414026    0.181297

 Total Charge           Charge          ....    0
 Multiplicity           Mult            ....    1
 Number of Electrons    NEL             ....   30
 Basis Dimension        Dim             ....   24

ORBITAL ENERGIES
----------------

  NO   OCC          E(Eh)            E(eV)
   0   2.0000     -20.340682      -553.4981
   1   2.0000     -11.283749      -307.0464
   2   2.0000     -11.209756      -305.0330
   3   2.0000     -11.186235      -304.3929
   4   2.0000      -1.385157       -37.6921
   5   2.0000      -1.084279       -29.5047
   6   2.0000      -0.913864       -24.8675
   7   2.0000      -0.749868       -20.4049
   8   2.0000      -0.716625       -19.5004
   9   2.0000      -0.611763       -16.6469
  10   2.0000      -0.587340       -15.9823
  11   2.0000      -0.550472       -14.9791
  12   2.0000      -0.534489       -14.5442
  13   2.0000      -0.409443       -11.1415
  14   2.0000      -0.367695       -10.0055
  15   0.0000       0.102740         2.7957
  16   0.0000       0.311970         8.4891
  17   0.0000       0.562356        15.3025
  18   0.0000       0.630557        17.1583
  19   0.0000       0.715214        19.4620

MULLIKEN ATOMIC CHARGES
-----------------------
   0 C :    0.147121
   1 O :   -0.363696
   2 C :   -0.213820
   3 C :   -0.160600
   4 H :    0.128000
   5 H :    0.144335
   6 H :    0.172327
   7 H :    0.146333
Sum of atomic charges:    0.0000000

LOEWDIN ATOMIC CHARGES
----------------------
   0 C :    0.136589
   1 O :   -0.276607
   2 C :   -0.165087
   3 C :   -0.057701
   4 H :    0.063653
   5 H :    0.084767
   6 H :    0.120601
   7 H :    0.093785

  Mayer bond orders larger than 0.100000
B(  0-C ,  1-O ) :   1.8472 B(  0-C ,  2-C ) :   1.1063 B(  0-C ,  4-H ) :   0.9275
B(  1-O ,  3-C ) :   0.1092 B(  2-C ,  3-C ) :   1.8599 B(  2-C ,  5-H ) :   0.9637
B(  3-C ,  6-H ) :   0.9574 B(  3-C ,  7-H ) :   0.9681

-----------------------------------------------------------------------------
         ABSORPTION SPECTRUM VIA TRANSITION ELECTRIC DIPOLE MOMENTS
-----------------------------------------------------------------------------
State   Energy    Wavelength  fosc         T2        TX        TY        TZ
        (cm-1)      (nm)                 (au**2)    (au)      (au)      (au)
-----------------------------------------------------------------------------
   1   30170.0    331.5   0.000025114   0.00027   0.00917   0.00166  -0.01368

Dispersion correction           -0.026281404
FINAL SINGLE POINT ENERGY      -189.312331744669

DIPOLE MOMENT
-------------
                                X             Y             Z
Electronic contribution:     -1.61966      -1.55700       0.22822
Nuclear contribution   :      2.20804       2.41286      -0.34862
                        -----------------------------------------
Total Dipole Moment    :      0.58837       0.85586      -0.12041
                        -----------------------------------------
Magnitude (a.u.)       :      1.04555
Magnitude (Debye)      :      2.65757

Rotational constants in cm-1:     0.716666     0.225174     0.172300
Rotational constants in MHz : 21485.107849  6750.535084  5165.424768

                             ****ORCA TERMINATED NORMALLY****
TOTAL RUN TIME: 0 days 0 hours 0 minutes 11 seconds 158 msec
