                         Program Version 5.0.3 -  RELEASE  -
|  1> ! B3LYP cc-pVDZ
|  2> !TightSCF
|  3> %scf
|  4>  ConvForced true
|  5>  convergence tight
|  6>  MaxIter 500
|  7> end
|  8>
|  9> %tddft
| 10>  nroots 1
| 11> end
| 12>
| 13> # 	17092
| 14> * xyz 0 1
| 15> 		C   -1.197858  -0.385115  -0.026303
| 16> 		O   -1.762195  -1.082455   0.816707
| 17> 		C    0.076102   0.440270   0.215662
| 18> 		C    1.192301   0.189325  -0.196197
| 19> 		H   -1.481367  -0.287561  -1.018467
| 20> 		H   -0.137135   1.233561   0.827731
| 21> 		H    1.227722  -0.625363  -0.782756
| 22> 		H    2.045720   0.583833   0.152376
| 23> *
| 24>
| 25>                          ****END OF INPUT****

CARTESIAN COORDINATES (ANGSTROEM)
---------------------------------
  C     -1.197858   -0.385115   -0.026303
  O     -1.762195   -1.082455    0.816707
  C      0.076102    0.440270    0.215662
  C      1.192301    0.189325   -0.196197
  H     -1.481367   -0.287561   -1.018467
  H     -0.137135    1.233561    0.827731
  H      1.227722   -0.625363   -0.782756
  H      2.045720    0.583833    0.152376

 Total Charge           Charge          ....    0
 Multiplicity           Mult            ....    1
 Number of Electrons    NEL             ....   30
 Basis Dimension        Dim             ....   76

ORBITAL ENERGIES
----------------

  NO   OCC          E(Eh)            E(eV)
   0   2.0000     -19.150730      -521.1179
   1   2.0000     -10.280213      -279.7388
   2   2.0000     -10.183557      -277.1087
   3   2.0000     -10.171584      -276.7829
   4   2.0000      -1.041725       -28.3468
   5   2.0000      -0.824525       -22.4365
   6   2.0000      -0.662290       -18.0218
   7   2.0000      -0.578303       -15.7364
   8   2.0000      -0.505739       -13.7618
   9   2.0000      -0.476232       -12.9589
  10   2.0000      -0.444409       -12.0930
  11   2.0000      -0.394761       -10.7420
  12   2.0000      -0.369554       -10.0561
  13   2.0000      -0.305440        -8.3114
  14   2.0000      -0.256261        -6.9732
  15   0.0000      -0.043603        -1.1865
  16   0.0000       0.020840         0.5671
  17   0.0000       0.093050         2.5320
  18   0.0000       0.104192         2.8352
  19   0.0000       0.120495         3.2788

MULLIKEN ATOMIC CHARGES
-----------------------
   0 C :    0.196494
   1 O :   -0.197618
   2 C :   -0.119721
   3 C :    0.208891
   4 H :   -0.013562
   5 H :   -0.028241
   6 H :   -0.034196
   7 H :   -0.012047
Sum of atomic charges:    0.0000000

LOEWDIN ATOMIC CHARGES
----------------------
   0 C :    0.024096
   1 O :   -0.004692
   2 C :   -0.044376
   3 C :   -0.010375
   4 H :   -0.016214
   5 H :    0.018535
   6 H :    0.014776
   7 H :    0.018250

  Mayer bond orders larger than 0.100000
B(  0-C ,  1-O ) :   2.2144 B(  0-C ,  2-C ) :   0.9746 B(  0-C ,  4-H ) :   0.9243
B(  2-C ,  3-C ) :   2.0878 B(  2-C ,  5-H ) :   0.9424 B(  3-C ,  6-H ) :   0.9054
B(  3-C ,  7-H ) :   0.9246

-----------------------------------------------------------------------------
         ABSORPTION SPECTRUM VIA TRANSITION ELECTRIC DIPOLE MOMENTS
-----------------------------------------------------------------------------
State   Energy    Wavelength  fosc         T2        TX        TY        TZ
        (cm-1)      (nm)                 (au**2)    (au)      (au)      (au)
-----------------------------------------------------------------------------
   1   31444.5    318.0   0.000163856   0.00172   0.03769   0.01136  -0.01288

FINAL SINGLE POINT ENERGY      -191.606409537058

DIPOLE MOMENT
-------------
                                X             Y             Z
Electronic contribution:     -2.69685      -1.19074       1.04539
Nuclear contribution   :      3.25211       1.73773      -1.57520
                        -----------------------------------------
Total Dipole Moment    :      0.55526       0.54699      -0.52981
                        -----------------------------------------
Magnitude (a.u.)       :      0.94245
Magnitude (Debye)      :      2.39552

Rotational constants in cm-1:     1.245506     0.157388     0.156688
Rotational constants in MHz : 37339.338231  4718.374120  4697.385714

                             ****ORCA TERMINATED NORMALLY****
TOTAL RUN TIME: 0 days 0 hours 3 minutes 27 seconds 626 msec
