                         Program Version 5.0.3 -  RELEASE  -
|  1> ! B3LYP cc-pVDZ
|  2> !TightSCF
|  3> %scf
|  4>  ConvForced true
|  5>  convergence tight
|  6>  MaxIter 500
|  7> end
|  8>
|  9> %tddft
| 10>  nroots 1
| 11> end
| 12>
| 13> # 	11875
| 14> * xyz 0 1
| 15> 		C   -1.195610  -0.364646  -0.072946
| 16> 		O   -2.019283  -0.600390  -0.834114
| 17> 		C   -0.058325   0.490066  -0.267909
| 18> 		C    1.155285   0.082119   0.210925
| 19> 		H   -1.041298  -0.759632   0.828929
| 20> 		H   -0.163616   1.454858  -0.905337
| 21> 		H    1.194627  -0.908746   0.932156
| 22> 		H    2.180994   0.651128   0.076342
| 23> *
| 24>
| 25>                          ****END OF INPUT****

CARTESIAN COORDINATES (ANGSTROEM)
---------------------------------
  C     -1.195610   -0.364646   -0.072946
  O     -2.019283   -0.600390   -0.834114
  C     -0.058325    0.490066   -0.267909
  C      1.155285    0.082119    0.210925
  H     -1.041298   -0.759632    0.828929
  H     -0.163616    1.454858   -0.905337
  H      1.194627   -0.908746    0.932156
  H      2.180994    0.651128    0.076342

 Total Charge           Charge          ....    0
 Multiplicity           Mult            ....    1
 Number of Electrons    NEL             ....   30
 Basis Dimension        Dim             ....   76

ORBITAL ENERGIES
----------------

  NO   OCC          E(Eh)            E(eV)
   0   2.0000     -19.138025      -520.7721
   1   2.0000     -10.259003      -279.1617
   2   2.0000     -10.237069      -278.5648
   3   2.0000     -10.208632      -277.7910
   4   2.0000      -1.083909       -29.4947
   5   2.0000      -0.800582       -21.7850
   6   2.0000      -0.648186       -17.6380
   7   2.0000      -0.570402       -15.5214
   8   2.0000      -0.474441       -12.9102
   9   2.0000      -0.466858       -12.7039
  10   2.0000      -0.439569       -11.9613
  11   2.0000      -0.405635       -11.0379
  12   2.0000      -0.373852       -10.1730
  13   2.0000      -0.287701        -7.8287
  14   2.0000      -0.254646        -6.9293
  15   0.0000      -0.055421        -1.5081
  16   0.0000       0.035538         0.9670
  17   0.0000       0.056935         1.5493
  18   0.0000       0.079136         2.1534
  19   0.0000       0.127828         3.4784

MULLIKEN ATOMIC CHARGES
-----------------------
   0 C :    0.246912
   1 O :   -0.143306
   2 C :   -0.104148
   3 C :   -0.073696
   4 H :   -0.073298
   5 H :    0.025058
   6 H :    0.055008
   7 H :    0.067470
Sum of atomic charges:   -0.0000000

LOEWDIN ATOMIC CHARGES
----------------------
   0 C :   -0.089012
   1 O :    0.074118
   2 C :   -0.064627
   3 C :   -0.031888
   4 H :   -0.028861
   5 H :    0.043110
   6 H :    0.047552
   7 H :    0.049608

  Mayer bond orders larger than 0.100000
B(  0-C ,  1-O ) :   2.2704 B(  0-C ,  2-C ) :   1.0489 B(  0-C ,  4-H ) :   0.9181
B(  2-C ,  3-C ) :   1.9261 B(  2-C ,  5-H ) :   0.9382 B(  3-C ,  6-H ) :   0.9322
B(  3-C ,  7-H ) :   0.9427

-----------------------------------------------------------------------------
         ABSORPTION SPECTRUM VIA TRANSITION ELECTRIC DIPOLE MOMENTS
-----------------------------------------------------------------------------
State   Energy    Wavelength  fosc         T2        TX        TY        TZ
        (cm-1)      (nm)                 (au**2)    (au)      (au)      (au)
-----------------------------------------------------------------------------
   1   31371.6    318.8   0.000048336   0.00051   0.01307   0.01833  -0.00070

FINAL SINGLE POINT ENERGY      -191.622297539307

DIPOLE MOMENT
-------------
                                X             Y             Z
Electronic contribution:     -3.28685      -0.56637      -1.29826
Nuclear contribution   :      4.11022       0.85002       1.80064
                        -----------------------------------------
Total Dipole Moment    :      0.82337       0.28364       0.50239
                        -----------------------------------------
Magnitude (a.u.)       :      1.00538
Magnitude (Debye)      :      2.55546

Rotational constants in cm-1:     1.354677     0.163355     0.151718
Rotational constants in MHz : 40612.201822  4897.247178  4548.383532

                             ****ORCA TERMINATED NORMALLY****
TOTAL RUN TIME: 0 days 0 hours 3 minutes 16 seconds 838 msec
