                         Program Version 5.0.3 -  RELEASE  -
|  1> ! B3LYP cc-pVDZ
|  2> !TightSCF
|  3> %scf
|  4>  ConvForced true
|  5>  convergence tight
|  6>  MaxIter 500
|  7> end
|  8>
|  9> %tddft
| 10>  nroots 1
| 11> end
| 12>
| 13> # 	23922
| 14> * xyz 0 1
| 15> 		C   -0.599902  -0.422090   0.062857
| 16> 		O   -0.566210  -1.653212  -0.033867
| 17> 		C    0.597636   0.453642  -0.047271
| 18> 		C    1.870765  -0.127514   0.034012
| 19> 		H   -1.492723   0.068238   0.028436
| 20> 		H    0.431542   1.547102  -0.043002
| 21> 		H    1.985300  -1.365863   0.122041
| 22> 		H    2.757964   0.390813  -0.175173
| 23> *
| 24>
| 25>                          ****END OF INPUT****

CARTESIAN COORDINATES (ANGSTROEM)
---------------------------------
  C     -0.599902   -0.422090    0.062857
  O     -0.566210   -1.653212   -0.033867
  C      0.597636    0.453642   -0.047271
  C      1.870765   -0.127514    0.034012
  H     -1.492723    0.068238    0.028436
  H      0.431542    1.547102   -0.043002
  H      1.985300   -1.365863    0.122041
  H      2.757964    0.390813   -0.175173

 Total Charge           Charge          ....    0
 Multiplicity           Mult            ....    1
 Number of Electrons    NEL             ....   30
 Basis Dimension        Dim             ....   76

ORBITAL ENERGIES
----------------

  NO   OCC          E(Eh)            E(eV)
   0   2.0000     -19.134185      -520.6676
   1   2.0000     -10.266907      -279.3767
   2   2.0000     -10.230147      -278.3764
   3   2.0000     -10.214967      -277.9634
   4   2.0000      -1.029125       -28.0039
   5   2.0000      -0.779194       -21.2029
   6   2.0000      -0.661776       -18.0078
   7   2.0000      -0.552296       -15.0287
   8   2.0000      -0.498649       -13.5689
   9   2.0000      -0.435862       -11.8604
  10   2.0000      -0.422263       -11.4904
  11   2.0000      -0.388606       -10.5745
  12   2.0000      -0.371940       -10.1210
  13   2.0000      -0.277587        -7.5535
  14   2.0000      -0.254305        -6.9200
  15   0.0000      -0.078719        -2.1420
  16   0.0000       0.046491         1.2651
  17   0.0000       0.068138         1.8541
  18   0.0000       0.078381         2.1329
  19   0.0000       0.126498         3.4422

MULLIKEN ATOMIC CHARGES
-----------------------
   0 C :    0.242952
   1 O :   -0.218915
   2 C :   -0.128325
   3 C :    0.020536
   4 H :   -0.036354
   5 H :    0.007816
   6 H :    0.081926
   7 H :    0.030365
Sum of atomic charges:    0.0000000

LOEWDIN ATOMIC CHARGES
----------------------
   0 C :   -0.013122
   1 O :   -0.027219
   2 C :   -0.078534
   3 C :    0.026693
   4 H :   -0.017471
   5 H :    0.031034
   6 H :    0.064454
   7 H :    0.014166

  Mayer bond orders larger than 0.100000
B(  0-C ,  1-O ) :   2.1463 B(  0-C ,  2-C ) :   1.0776 B(  0-C ,  4-H ) :   0.9352
B(  1-O ,  3-C ) :   0.1002 B(  2-C ,  3-C ) :   1.9131 B(  2-C ,  5-H ) :   0.9455
B(  3-C ,  6-H ) :   0.9330 B(  3-C ,  7-H ) :   0.9484

-----------------------------------------------------------------------------
         ABSORPTION SPECTRUM VIA TRANSITION ELECTRIC DIPOLE MOMENTS
-----------------------------------------------------------------------------
State   Energy    Wavelength  fosc         T2        TX        TY        TZ
        (cm-1)      (nm)                 (au**2)    (au)      (au)      (au)
-----------------------------------------------------------------------------
   1   25773.7    388.0   0.000058756   0.00075   0.02095   0.00543   0.01679

FINAL SINGLE POINT ENERGY      -191.665688204940

DIPOLE MOMENT
-------------
                                X             Y             Z
Electronic contribution:     -1.92591      -1.44418       0.09219
Nuclear contribution   :      2.29727       2.38776      -0.06305
                        -----------------------------------------
Total Dipole Moment    :      0.37136       0.94358       0.02915
                        -----------------------------------------
Magnitude (a.u.)       :      1.01445
Magnitude (Debye)      :      2.57852

Rotational constants in cm-1:     0.698756     0.208511     0.161066
Rotational constants in MHz : 20948.165995  6251.001634  4828.646264

                             ****ORCA TERMINATED NORMALLY****
TOTAL RUN TIME: 0 days 0 hours 3 minutes 19 seconds 234 msec
