                         Program Version 5.0.3 -  RELEASE  -
|  1> ! B3LYP cc-pVDZ
|  2> !TightSCF
|  3> %scf
|  4>  ConvForced true
|  5>  convergence tight
|  6>  MaxIter 500
|  7> end
|  8>
|  9> %tddft
| 10>  nroots 1
| 11> end
| 12>
| 13> # 	29905
| 14> * xyz 0 1
| 15> 		C   -0.633219  -0.397454   0.062389
| 16> 		O   -0.501984  -1.618040  -0.034700
| 17> 		C    0.588893   0.432821  -0.044403
| 18> 		C    1.834210  -0.182352   0.016173
| 19> 		H   -1.626455   0.180874   0.086578
| 20> 		H    0.406634   1.463142  -0.091381
| 21> 		H    1.819240  -1.418031   0.176435
| 22> 		H    2.966357   0.477192  -0.038521
| 23> *
| 24>
| 25>                          ****END OF INPUT****

CARTESIAN COORDINATES (ANGSTROEM)
---------------------------------
  C     -0.633219   -0.397454    0.062389
  O     -0.501984   -1.618040   -0.034700
  C      0.588893    0.432821   -0.044403
  C      1.834210   -0.182352    0.016173
  H     -1.626455    0.180874    0.086578
  H      0.406634    1.463142   -0.091381
  H      1.819240   -1.418031    0.176435
  H      2.966357    0.477192   -0.038521

 Total Charge           Charge          ....    0
 Multiplicity           Mult            ....    1
 Number of Electrons    NEL             ....   30
 Basis Dimension        Dim             ....   76

ORBITAL ENERGIES
----------------

  NO   OCC          E(Eh)            E(eV)
   0   2.0000     -19.138120      -520.7747
   1   2.0000     -10.280509      -279.7469
   2   2.0000     -10.246789      -278.8293
   3   2.0000     -10.205737      -277.7122
   4   2.0000      -1.036790       -28.2125
   5   2.0000      -0.777323       -21.1520
   6   2.0000      -0.643094       -17.4995
   7   2.0000      -0.529992       -14.4218
   8   2.0000      -0.494454       -13.4548
   9   2.0000      -0.438553       -11.9336
  10   2.0000      -0.409041       -11.1306
  11   2.0000      -0.393744       -10.7143
  12   2.0000      -0.361392        -9.8340
  13   2.0000      -0.277309        -7.5460
  14   2.0000      -0.256949        -6.9919
  15   0.0000      -0.075827        -2.0634
  16   0.0000       0.039107         1.0642
  17   0.0000       0.049748         1.3537
  18   0.0000       0.065882         1.7927
  19   0.0000       0.114904         3.1267

MULLIKEN ATOMIC CHARGES
-----------------------
   0 C :    0.170132
   1 O :   -0.211100
   2 C :   -0.032939
   3 C :   -0.074124
   4 H :    0.002029
   5 H :   -0.025688
   6 H :    0.094671
   7 H :    0.077019
Sum of atomic charges:   -0.0000000

LOEWDIN ATOMIC CHARGES
----------------------
   0 C :   -0.024836
   1 O :   -0.024770
   2 C :   -0.087821
   3 C :   -0.011316
   4 H :    0.006393
   5 H :    0.011591
   6 H :    0.066884
   7 H :    0.063875

  Mayer bond orders larger than 0.100000
B(  0-C ,  1-O ) :   2.1375 B(  0-C ,  2-C ) :   1.0740 B(  0-C ,  4-H ) :   0.9108
B(  2-C ,  3-C ) :   1.8990 B(  2-C ,  5-H ) :   0.9516 B(  3-C ,  6-H ) :   0.9080
B(  3-C ,  7-H ) :   0.9321

-----------------------------------------------------------------------------
         ABSORPTION SPECTRUM VIA TRANSITION ELECTRIC DIPOLE MOMENTS
-----------------------------------------------------------------------------
State   Energy    Wavelength  fosc         T2        TX        TY        TZ
        (cm-1)      (nm)                 (au**2)    (au)      (au)      (au)
-----------------------------------------------------------------------------
   1   26886.6    371.9   0.000116236   0.00142   0.01238   0.00516  -0.03526

FINAL SINGLE POINT ENERGY      -191.645059368198

DIPOLE MOMENT
-------------
                                X             Y             Z
Electronic contribution:     -1.93019      -1.57438      -0.05265
Nuclear contribution   :      2.19138       2.44639       0.12509
                        -----------------------------------------
Total Dipole Moment    :      0.26119       0.87201       0.07244
                        -----------------------------------------
Magnitude (a.u.)       :      0.91316
Magnitude (Debye)      :      2.32107

Rotational constants in cm-1:     0.673896     0.220453     0.166577
Rotational constants in MHz : 20202.887206  6609.012157  4993.840564

                             ****ORCA TERMINATED NORMALLY****
TOTAL RUN TIME: 0 days 0 hours 3 minutes 26 seconds 858 msec
