                         Program Version 5.0.3 -  RELEASE  -
|  1> ! B3LYP cc-pVDZ
|  2> !TightSCF
|  3> %scf
|  4>  ConvForced true
|  5>  convergence tight
|  6>  MaxIter 500
|  7> end
|  8>
|  9> %tddft
| 10>  nroots 1
| 11> end
| 12>
| 13> # 	28802
| 14> * xyz 0 1
| 15> 		C   -0.614270  -0.432524   0.000981
| 16> 		O   -0.524723  -1.577639  -0.004458
| 17> 		C    0.657146   0.404580  -0.027609
| 18> 		C    1.792521  -0.174542   0.007901
| 19> 		H   -1.614004   0.065751   0.119788
| 20> 		H    0.514106   1.517293   0.099759
| 21> 		H    1.864502  -1.301035   0.108137
| 22> 		H    2.651768   0.429558  -0.034780
| 23> *
| 24>
| 25>                          ****END OF INPUT****

CARTESIAN COORDINATES (ANGSTROEM)
---------------------------------
  C     -0.614270   -0.432524    0.000981
  O     -0.524723   -1.577639   -0.004458
  C      0.657146    0.404580   -0.027609
  C      1.792521   -0.174542    0.007901
  H     -1.614004    0.065751    0.119788
  H      0.514106    1.517293    0.099759
  H      1.864502   -1.301035    0.108137
  H      2.651768    0.429558   -0.034780

 Total Charge           Charge          ....    0
 Multiplicity           Mult            ....    1
 Number of Electrons    NEL             ....   30
 Basis Dimension        Dim             ....   76

ORBITAL ENERGIES
----------------

  NO   OCC          E(Eh)            E(eV)
   0   2.0000     -19.138379      -520.7818
   1   2.0000     -10.271212      -279.4939
   2   2.0000     -10.195167      -277.4246
   3   2.0000     -10.192985      -277.3652
   4   2.0000      -1.085260       -29.5314
   5   2.0000      -0.796981       -21.6870
   6   2.0000      -0.640037       -17.4163
   7   2.0000      -0.537077       -14.6146
   8   2.0000      -0.509785       -13.8720
   9   2.0000      -0.452713       -12.3189
  10   2.0000      -0.432680       -11.7738
  11   2.0000      -0.419129       -11.4051
  12   2.0000      -0.373201       -10.1553
  13   2.0000      -0.292167        -7.9503
  14   2.0000      -0.253845        -6.9075
  15   0.0000      -0.050450        -1.3728
  16   0.0000       0.067810         1.8452
  17   0.0000       0.074383         2.0241
  18   0.0000       0.095351         2.5946
  19   0.0000       0.119566         3.2536

MULLIKEN ATOMIC CHARGES
-----------------------
   0 C :    0.166871
   1 O :   -0.134272
   2 C :   -0.157081
   3 C :    0.108371
   4 H :   -0.029073
   5 H :   -0.007334
   6 H :    0.041727
   7 H :    0.010791
Sum of atomic charges:    0.0000000

LOEWDIN ATOMIC CHARGES
----------------------
   0 C :   -0.062147
   1 O :    0.059514
   2 C :   -0.092269
   3 C :    0.007074
   4 H :   -0.009927
   5 H :    0.030215
   6 H :    0.043698
   7 H :    0.023842

  Mayer bond orders larger than 0.100000
B(  0-C ,  1-O ) :   2.2649 B(  0-C ,  2-C ) :   0.9988 B(  0-C ,  4-H ) :   0.9098
B(  2-C ,  3-C ) :   2.0246 B(  2-C ,  5-H ) :   0.9377 B(  3-C ,  6-H ) :   0.9190
B(  3-C ,  7-H ) :   0.9279

-----------------------------------------------------------------------------
         ABSORPTION SPECTRUM VIA TRANSITION ELECTRIC DIPOLE MOMENTS
-----------------------------------------------------------------------------
State   Energy    Wavelength  fosc         T2        TX        TY        TZ
        (cm-1)      (nm)                 (au**2)    (au)      (au)      (au)
-----------------------------------------------------------------------------
   1   31580.0    316.7   0.000204811   0.00214  -0.01489  -0.02110  -0.03832

FINAL SINGLE POINT ENERGY      -191.646512959156

DIPOLE MOMENT
-------------
                                X             Y             Z
Electronic contribution:     -1.82681      -1.72314      -0.21861
Nuclear contribution   :      2.04871       2.45565       0.27480
                        -----------------------------------------
Total Dipole Moment    :      0.22190       0.73251       0.05619
                        -----------------------------------------
Magnitude (a.u.)       :      0.76744
Magnitude (Debye)      :      1.95068

Rotational constants in cm-1:     0.776874     0.224641     0.174426
Rotational constants in MHz : 23290.097910  6734.582275  5229.159401

                             ****ORCA TERMINATED NORMALLY****
TOTAL RUN TIME: 0 days 0 hours 3 minutes 23 seconds 337 msec
