                         Program Version 5.0.3 -  RELEASE  -
|  1> ! B3LYP cc-pVDZ
|  2> !TightSCF
|  3> %scf
|  4>  ConvForced true
|  5>  convergence tight
|  6>  MaxIter 500
|  7> end
|  8>
|  9> %tddft
| 10>  nroots 1
| 11> end
| 12>
| 13> # 	7963
| 14> * xyz 0 1
| 15> 		C   -1.208561  -0.350468   0.018984
| 16> 		O   -1.311644  -1.472003   0.349751
| 17> 		C    0.015037   0.477141   0.199843
| 18> 		C    1.274140  -0.051732  -0.058783
| 19> 		H   -2.021399   0.186628  -0.611506
| 20> 		H   -0.140888   1.523916   0.237351
| 21> 		H    1.409504  -1.077274  -0.211505
| 22> 		H    1.990042   0.738080   0.076871
| 23> *
| 24>
| 25>                          ****END OF INPUT****

CARTESIAN COORDINATES (ANGSTROEM)
---------------------------------
  C     -1.208561   -0.350468    0.018984
  O     -1.311644   -1.472003    0.349751
  C      0.015037    0.477141    0.199843
  C      1.274140   -0.051732   -0.058783
  H     -2.021399    0.186628   -0.611506
  H     -0.140888    1.523916    0.237351
  H      1.409504   -1.077274   -0.211505
  H      1.990042    0.738080    0.076871

 Total Charge           Charge          ....    0
 Multiplicity           Mult            ....    1
 Number of Electrons    NEL             ....   30
 Basis Dimension        Dim             ....   76

ORBITAL ENERGIES
----------------

  NO   OCC          E(Eh)            E(eV)
   0   2.0000     -19.140177      -520.8307
   1   2.0000     -10.275652      -279.6147
   2   2.0000     -10.213232      -277.9162
   3   2.0000     -10.205457      -277.7046
   4   2.0000      -1.068366       -29.0717
   5   2.0000      -0.789315       -21.4784
   6   2.0000      -0.655044       -17.8247
   7   2.0000      -0.542983       -14.7753
   8   2.0000      -0.508565       -13.8388
   9   2.0000      -0.453283       -12.3345
  10   2.0000      -0.430178       -11.7057
  11   2.0000      -0.405456       -11.0330
  12   2.0000      -0.391001       -10.6397
  13   2.0000      -0.282727        -7.6934
  14   2.0000      -0.252965        -6.8835
  15   0.0000      -0.059270        -1.6128
  16   0.0000       0.031585         0.8595
  17   0.0000       0.073692         2.0053
  18   0.0000       0.091284         2.4840
  19   0.0000       0.119522         3.2523

MULLIKEN ATOMIC CHARGES
-----------------------
   0 C :    0.149378
   1 O :   -0.157139
   2 C :   -0.098458
   3 C :    0.088448
   4 H :   -0.025259
   5 H :   -0.010469
   6 H :    0.022316
   7 H :    0.031181
Sum of atomic charges:    0.0000000

LOEWDIN ATOMIC CHARGES
----------------------
   0 C :   -0.064625
   1 O :    0.033681
   2 C :   -0.058227
   3 C :    0.024687
   4 H :   -0.008991
   5 H :    0.019212
   6 H :    0.020379
   7 H :    0.033885

  Mayer bond orders larger than 0.100000
B(  0-C ,  1-O ) :   2.2397 B(  0-C ,  2-C ) :   1.0303 B(  0-C ,  4-H ) :   0.8936
B(  2-C ,  3-C ) :   1.9707 B(  2-C ,  5-H ) :   0.9382 B(  3-C ,  6-H ) :   0.9470
B(  3-C ,  7-H ) :   0.9446

-----------------------------------------------------------------------------
         ABSORPTION SPECTRUM VIA TRANSITION ELECTRIC DIPOLE MOMENTS
-----------------------------------------------------------------------------
State   Energy    Wavelength  fosc         T2        TX        TY        TZ
        (cm-1)      (nm)                 (au**2)    (au)      (au)      (au)
-----------------------------------------------------------------------------
   1   30141.0    331.8   0.000821896   0.00898   0.09183   0.01323  -0.01923

FINAL SINGLE POINT ENERGY      -191.653998978243

DIPOLE MOMENT
-------------
                                X             Y             Z
Electronic contribution:     -1.97135      -1.89598       0.70886
Nuclear contribution   :      2.40268       2.69402      -0.94290
                        -----------------------------------------
Total Dipole Moment    :      0.43133       0.79803      -0.23404
                        -----------------------------------------
Magnitude (a.u.)       :      0.93685
Magnitude (Debye)      :      2.38128

Rotational constants in cm-1:     0.799703     0.196204     0.162257
Rotational constants in MHz : 23974.485697  5882.056254  4864.329965

                             ****ORCA TERMINATED NORMALLY****
TOTAL RUN TIME: 0 days 0 hours 3 minutes 24 seconds 560 msec
