                         Program Version 5.0.3 -  RELEASE  -
|  1> ! HF-3c
|  2> !TightSCF
|  3> %scf
|  4>  ConvForced true
|  5>  convergence tight
|  6>  MaxIter 500
|  7> end
|  8>
|  9> %tddft
| 10>  nroots 1
| 11> end
| 12>
| 13> # 	31908
| 14> * xyz 0 1
| 15> 		C   -0.561158  -0.399185   0.015957
| 16> 		O   -0.602191  -1.682821  -0.004069
| 17> 		C    0.669915   0.400258  -0.015823
| 18> 		C    1.818347  -0.069572   0.025274
| 19> 		H   -1.467151   0.221720   0.018996
| 20> 		H    0.374538   1.344437  -0.101783
| 21> 		H    1.805035  -1.328735  -0.209044
| 22> 		H    2.843445   0.535129   0.054834
| 23> *
| 24>
| 25>                          ****END OF INPUT****

CARTESIAN COORDINATES (ANGSTROEM)
---------------------------------
  C     -0.561158   -0.399185    0.015957
  O     -0.602191   -1.682821   -0.004069
  C      0.669915    0.400258   -0.015823
  C      1.818347   -0.069572    0.025274
  H     -1.467151    0.221720    0.018996
  H      0.374538    1.344437   -0.101783
  H      1.805035   -1.328735   -0.209044
  H      2.843445    0.535129    0.054834

 Total Charge           Charge          ....    0
 Multiplicity           Mult            ....    1
 Number of Electrons    NEL             ....   30
 Basis Dimension        Dim             ....   24

ORBITAL ENERGIES
----------------

  NO   OCC          E(Eh)            E(eV)
   0   2.0000     -20.342269      -553.5413
   1   2.0000     -11.276556      -306.8507
   2   2.0000     -11.195326      -304.6403
   3   2.0000     -11.188755      -304.4615
   4   2.0000      -1.346510       -36.6404
   5   2.0000      -1.105076       -30.0707
   6   2.0000      -0.898956       -24.4618
   7   2.0000      -0.732170       -19.9234
   8   2.0000      -0.697377       -18.9766
   9   2.0000      -0.608221       -16.5505
  10   2.0000      -0.573366       -15.6021
  11   2.0000      -0.525029       -14.2868
  12   2.0000      -0.486187       -13.2298
  13   2.0000      -0.416026       -11.3207
  14   2.0000      -0.399752       -10.8778
  15   0.0000       0.130328         3.5464
  16   0.0000       0.320628         8.7247
  17   0.0000       0.463429        12.6106
  18   0.0000       0.507521        13.8103
  19   0.0000       0.655241        17.8300

MULLIKEN ATOMIC CHARGES
-----------------------
   0 C :    0.156691
   1 O :   -0.348114
   2 C :   -0.230953
   3 C :   -0.184742
   4 H :    0.137737
   5 H :    0.140072
   6 H :    0.173034
   7 H :    0.156274
Sum of atomic charges:    0.0000000

LOEWDIN ATOMIC CHARGES
----------------------
   0 C :    0.153467
   1 O :   -0.275018
   2 C :   -0.172814
   3 C :   -0.106574
   4 H :    0.076136
   5 H :    0.081307
   6 H :    0.131972
   7 H :    0.111523

  Mayer bond orders larger than 0.100000
B(  0-C ,  1-O ) :   1.8976 B(  0-C ,  2-C ) :   1.0272 B(  0-C ,  4-H ) :   0.9345
B(  2-C ,  3-C ) :   1.9555 B(  2-C ,  5-H ) :   0.9526 B(  3-C ,  6-H ) :   0.9345
B(  3-C ,  7-H ) :   0.9530

-----------------------------------------------------------------------------
         ABSORPTION SPECTRUM VIA TRANSITION ELECTRIC DIPOLE MOMENTS
-----------------------------------------------------------------------------
State   Energy    Wavelength  fosc         T2        TX        TY        TZ
        (cm-1)      (nm)                 (au**2)    (au)      (au)      (au)
-----------------------------------------------------------------------------
   1   29681.1    336.9   0.000018413   0.00020   0.00587  -0.00340   0.01258

Dispersion correction           -0.026192186
FINAL SINGLE POINT ENERGY      -189.295522440251

DIPOLE MOMENT
-------------
                                X             Y             Z
Electronic contribution:     -1.75253      -1.62420       0.16731
Nuclear contribution   :      2.17825       2.51211      -0.22248
                        -----------------------------------------
Total Dipole Moment    :      0.42572       0.88791      -0.05517
                        -----------------------------------------
Magnitude (a.u.)       :      0.98624
Magnitude (Debye)      :      2.50683

Rotational constants in cm-1:     0.788706     0.205179     0.163047
Rotational constants in MHz : 23644.824288  6151.107403  4888.023444

                             ****ORCA TERMINATED NORMALLY****
TOTAL RUN TIME: 0 days 0 hours 0 minutes 11 seconds 569 msec
