                         Program Version 5.0.3 -  RELEASE  -
|  1> ! B3LYP cc-pVDZ
|  2> !TightSCF
|  3> %scf
|  4>  ConvForced true
|  5>  convergence tight
|  6>  MaxIter 500
|  7> end
|  8>
|  9> %tddft
| 10>  nroots 1
| 11> end
| 12>
| 13> # 	16191
| 14> * xyz 0 1
| 15> 		C   -1.235209  -0.280368   0.018186
| 16> 		O   -1.874961  -0.804254  -0.870402
| 17> 		C   -0.009974   0.500746  -0.274503
| 18> 		C    1.185700   0.054986   0.170645
| 19> 		H   -1.426239  -0.728637   1.088218
| 20> 		H    0.059820   1.305011  -1.138324
| 21> 		H    1.162819  -0.697855   0.930004
| 22> 		H    2.098528   0.601208   0.042880
| 23> *
| 24>
| 25>                          ****END OF INPUT****

CARTESIAN COORDINATES (ANGSTROEM)
---------------------------------
  C     -1.235209   -0.280368    0.018186
  O     -1.874961   -0.804254   -0.870402
  C     -0.009974    0.500746   -0.274503
  C      1.185700    0.054986    0.170645
  H     -1.426239   -0.728637    1.088218
  H      0.059820    1.305011   -1.138324
  H      1.162819   -0.697855    0.930004
  H      2.098528    0.601208    0.042880

 Total Charge           Charge          ....    0
 Multiplicity           Mult            ....    1
 Number of Electrons    NEL             ....   30
 Basis Dimension        Dim             ....   76

ORBITAL ENERGIES
----------------

  NO   OCC          E(Eh)            E(eV)
   0   2.0000     -19.143997      -520.9346
   1   2.0000     -10.287330      -279.9325
   2   2.0000     -10.219513      -278.0871
   3   2.0000     -10.208075      -277.7758
   4   2.0000      -1.050759       -28.5926
   5   2.0000      -0.796776       -21.6814
   6   2.0000      -0.643027       -17.4977
   7   2.0000      -0.557258       -15.1638
   8   2.0000      -0.482109       -13.1189
   9   2.0000      -0.467397       -12.7185
  10   2.0000      -0.428579       -11.6622
  11   2.0000      -0.395009       -10.7487
  12   2.0000      -0.374679       -10.1955
  13   2.0000      -0.288861        -7.8603
  14   2.0000      -0.256331        -6.9751
  15   0.0000      -0.060596        -1.6489
  16   0.0000       0.012934         0.3520
  17   0.0000       0.063735         1.7343
  18   0.0000       0.085126         2.3164
  19   0.0000       0.113589         3.0909

MULLIKEN ATOMIC CHARGES
-----------------------
   0 C :    0.148246
   1 O :   -0.180731
   2 C :   -0.105312
   3 C :    0.046517
   4 H :   -0.000023
   5 H :    0.042145
   6 H :    0.016167
   7 H :    0.032991
Sum of atomic charges:    0.0000000

LOEWDIN ATOMIC CHARGES
----------------------
   0 C :   -0.036308
   1 O :    0.004721
   2 C :   -0.064232
   3 C :   -0.011982
   4 H :    0.005288
   5 H :    0.053633
   6 H :    0.020224
   7 H :    0.028656

  Mayer bond orders larger than 0.100000
B(  0-C ,  1-O ) :   2.1791 B(  0-C ,  2-C ) :   1.0033 B(  0-C ,  4-H ) :   0.9085
B(  2-C ,  3-C ) :   1.9814 B(  2-C ,  5-H ) :   0.9314 B(  3-C ,  6-H ) :   0.9487
B(  3-C ,  7-H ) :   0.9476

-----------------------------------------------------------------------------
         ABSORPTION SPECTRUM VIA TRANSITION ELECTRIC DIPOLE MOMENTS
-----------------------------------------------------------------------------
State   Energy    Wavelength  fosc         T2        TX        TY        TZ
        (cm-1)      (nm)                 (au**2)    (au)      (au)      (au)
-----------------------------------------------------------------------------
   1   29822.8    335.3   0.001919091   0.02118  -0.13101   0.00670  -0.06307

FINAL SINGLE POINT ENERGY      -191.650535132262

DIPOLE MOMENT
-------------
                                X             Y             Z
Electronic contribution:     -2.97077      -0.62601      -1.25593
Nuclear contribution   :      3.68553       1.04810       1.79529
                        -----------------------------------------
Total Dipole Moment    :      0.71476       0.42209       0.53936
                        -----------------------------------------
Magnitude (a.u.)       :      0.98992
Magnitude (Debye)      :      2.51619

Rotational constants in cm-1:     1.098161     0.162552     0.155480
Rotational constants in MHz : 32922.042762  4873.199071  4661.164593

                             ****ORCA TERMINATED NORMALLY****
TOTAL RUN TIME: 0 days 0 hours 3 minutes 16 seconds 25 msec
