                         Program Version 5.0.3 -  RELEASE  -
|  1> ! HF-3c
|  2> !TightSCF
|  3> %scf
|  4>  ConvForced true
|  5>  convergence tight
|  6>  MaxIter 500
|  7> end
|  8>
|  9> %tddft
| 10>  nroots 1
| 11> end
| 12>
| 13> # 	28360
| 14> * xyz 0 1
| 15> 		C   -0.553540  -0.421408  -0.075796
| 16> 		O   -0.586468  -1.678236   0.049627
| 17> 		C    0.641820   0.467476   0.065466
| 18> 		C    1.844513  -0.136137  -0.035965
| 19> 		H   -1.551515   0.211706  -0.263804
| 20> 		H    0.373207   1.509634   0.193745
| 21> 		H    1.834288  -1.222448  -0.208708
| 22> 		H    2.590133   0.468711   0.062372
| 23> *
| 24>
| 25>                          ****END OF INPUT****

CARTESIAN COORDINATES (ANGSTROEM)
---------------------------------
  C     -0.553540   -0.421408   -0.075796
  O     -0.586468   -1.678236    0.049627
  C      0.641820    0.467476    0.065466
  C      1.844513   -0.136137   -0.035965
  H     -1.551515    0.211706   -0.263804
  H      0.373207    1.509634    0.193745
  H      1.834288   -1.222448   -0.208708
  H      2.590133    0.468711    0.062372

 Total Charge           Charge          ....    0
 Multiplicity           Mult            ....    1
 Number of Electrons    NEL             ....   30
 Basis Dimension        Dim             ....   24

ORBITAL ENERGIES
----------------

  NO   OCC          E(Eh)            E(eV)
   0   2.0000     -20.346155      -553.6470
   1   2.0000     -11.276861      -306.8590
   2   2.0000     -11.197462      -304.6984
   3   2.0000     -11.192700      -304.5689
   4   2.0000      -1.358032       -36.9539
   5   2.0000      -1.086344       -29.5609
   6   2.0000      -0.895998       -24.3814
   7   2.0000      -0.732943       -19.9444
   8   2.0000      -0.706670       -19.2295
   9   2.0000      -0.606722       -16.5097
  10   2.0000      -0.588914       -16.0252
  11   2.0000      -0.543627       -14.7928
  12   2.0000      -0.513023       -13.9601
  13   2.0000      -0.404074       -10.9954
  14   2.0000      -0.391708       -10.6589
  15   0.0000       0.123336         3.3561
  16   0.0000       0.289230         7.8703
  17   0.0000       0.523867        14.2552
  18   0.0000       0.603827        16.4310
  19   0.0000       0.617437        16.8013

MULLIKEN ATOMIC CHARGES
-----------------------
   0 C :    0.165870
   1 O :   -0.357410
   2 C :   -0.163931
   3 C :   -0.243394
   4 H :    0.127038
   5 H :    0.147117
   6 H :    0.177740
   7 H :    0.146970
Sum of atomic charges:   -0.0000000

LOEWDIN ATOMIC CHARGES
----------------------
   0 C :    0.150684
   1 O :   -0.278170
   2 C :   -0.117191
   3 C :   -0.131867
   4 H :    0.073754
   5 H :    0.094065
   6 H :    0.122095
   7 H :    0.086630

  Mayer bond orders larger than 0.100000
B(  0-C ,  1-O ) :   1.9031 B(  0-C ,  2-C ) :   1.0283 B(  0-C ,  4-H ) :   0.9215
B(  2-C ,  3-C ) :   1.9403 B(  2-C ,  5-H ) :   0.9606 B(  3-C ,  6-H ) :   0.9532
B(  3-C ,  7-H ) :   0.9688

-----------------------------------------------------------------------------
         ABSORPTION SPECTRUM VIA TRANSITION ELECTRIC DIPOLE MOMENTS
-----------------------------------------------------------------------------
State   Energy    Wavelength  fosc         T2        TX        TY        TZ
        (cm-1)      (nm)                 (au**2)    (au)      (au)      (au)
-----------------------------------------------------------------------------
   1   30498.9    327.9   0.000060961   0.00066  -0.02258   0.00304   0.01179

Dispersion correction           -0.025908015
FINAL SINGLE POINT ENERGY      -189.325268288403

DIPOLE MOMENT
-------------
                                X             Y             Z
Electronic contribution:     -1.63968      -1.70126       0.09669
Nuclear contribution   :      1.88737       2.69444      -0.20361
                        -----------------------------------------
Total Dipole Moment    :      0.24768       0.99318      -0.10693
                        -----------------------------------------
Magnitude (a.u.)       :      1.02917
Magnitude (Debye)      :      2.61595

Rotational constants in cm-1:     0.716422     0.208686     0.162643
Rotational constants in MHz : 21477.803487  6256.245387  4875.927581

                             ****ORCA TERMINATED NORMALLY****
TOTAL RUN TIME: 0 days 0 hours 0 minutes 15 seconds 748 msec
