                         Program Version 5.0.3 -  RELEASE  -
|  1> ! B3LYP cc-pVDZ
|  2> !TightSCF
|  3> %scf
|  4>  ConvForced true
|  5>  convergence tight
|  6>  MaxIter 500
|  7> end
|  8>
|  9> %tddft
| 10>  nroots 1
| 11> end
| 12>
| 13> # 	25046
| 14> * xyz 0 1
| 15> 		C   -0.598321  -0.407271   0.006484
| 16> 		O   -0.568329  -1.630634   0.001321
| 17> 		C    0.599298   0.431129  -0.020160
| 18> 		C    1.860612  -0.153964   0.026820
| 19> 		H   -1.482227  -0.024059  -0.076103
| 20> 		H    0.449338   1.488781   0.129753
| 21> 		H    2.144325  -1.240119  -0.077876
| 22> 		H    2.684405   0.473449  -0.153874
| 23> *
| 24>
| 25>                          ****END OF INPUT****

CARTESIAN COORDINATES (ANGSTROEM)
---------------------------------
  C     -0.598321   -0.407271    0.006484
  O     -0.568329   -1.630634    0.001321
  C      0.599298    0.431129   -0.020160
  C      1.860612   -0.153964    0.026820
  H     -1.482227   -0.024059   -0.076103
  H      0.449338    1.488781    0.129753
  H      2.144325   -1.240119   -0.077876
  H      2.684405    0.473449   -0.153874

 Total Charge           Charge          ....    0
 Multiplicity           Mult            ....    1
 Number of Electrons    NEL             ....   30
 Basis Dimension        Dim             ....   76

ORBITAL ENERGIES
----------------

  NO   OCC          E(Eh)            E(eV)
   0   2.0000     -19.126574      -520.4605
   1   2.0000     -10.255025      -279.0534
   2   2.0000     -10.220507      -278.1141
   3   2.0000     -10.210570      -277.8437
   4   2.0000      -1.032470       -28.0949
   5   2.0000      -0.785611       -21.3776
   6   2.0000      -0.668767       -18.1981
   7   2.0000      -0.565796       -15.3961
   8   2.0000      -0.506109       -13.7719
   9   2.0000      -0.444067       -12.0837
  10   2.0000      -0.418067       -11.3762
  11   2.0000      -0.392399       -10.6777
  12   2.0000      -0.381027       -10.3683
  13   2.0000      -0.279012        -7.5923
  14   2.0000      -0.248998        -6.7756
  15   0.0000      -0.078048        -2.1238
  16   0.0000       0.053537         1.4568
  17   0.0000       0.077131         2.0988
  18   0.0000       0.089507         2.4356
  19   0.0000       0.130124         3.5408

MULLIKEN ATOMIC CHARGES
-----------------------
   0 C :    0.268490
   1 O :   -0.216196
   2 C :   -0.123326
   3 C :    0.058777
   4 H :   -0.070120
   5 H :   -0.000583
   6 H :    0.058541
   7 H :    0.024417
Sum of atomic charges:   -0.0000000

LOEWDIN ATOMIC CHARGES
----------------------
   0 C :   -0.016749
   1 O :   -0.017913
   2 C :   -0.066517
   3 C :    0.040750
   4 H :   -0.031204
   5 H :    0.027182
   6 H :    0.044672
   7 H :    0.019781

  Mayer bond orders larger than 0.100000
B(  0-C ,  1-O ) :   2.1655 B(  0-C ,  2-C ) :   1.0869 B(  0-C ,  4-H ) :   0.9466
B(  1-O ,  3-C ) :   0.1081 B(  2-C ,  3-C ) :   1.9239 B(  2-C ,  5-H ) :   0.9438
B(  3-C ,  6-H ) :   0.9511 B(  3-C ,  7-H ) :   0.9468

-----------------------------------------------------------------------------
         ABSORPTION SPECTRUM VIA TRANSITION ELECTRIC DIPOLE MOMENTS
-----------------------------------------------------------------------------
State   Energy    Wavelength  fosc         T2        TX        TY        TZ
        (cm-1)      (nm)                 (au**2)    (au)      (au)      (au)
-----------------------------------------------------------------------------
   1   24868.4    402.1   0.000200083   0.00265   0.04899   0.00859   0.01323

FINAL SINGLE POINT ENERGY      -191.666472007499

DIPOLE MOMENT
-------------
                                X             Y             Z
Electronic contribution:     -2.02077      -1.50820       0.14040
Nuclear contribution   :      2.40411       2.44165      -0.16703
                        -----------------------------------------
Total Dipole Moment    :      0.38334       0.93346      -0.02663
                        -----------------------------------------
Magnitude (a.u.)       :      1.00946
Magnitude (Debye)      :      2.56584

Rotational constants in cm-1:     0.728381     0.211871     0.164343
Rotational constants in MHz : 21836.314164  6351.738774  4926.885561

                             ****ORCA TERMINATED NORMALLY****
TOTAL RUN TIME: 0 days 0 hours 3 minutes 4 seconds 618 msec
