                         Program Version 5.0.3 -  RELEASE  -
|  1> ! B3LYP cc-pVDZ
|  2> !TightSCF
|  3> %scf
|  4>  ConvForced true
|  5>  convergence tight
|  6>  MaxIter 500
|  7> end
|  8>
|  9> %tddft
| 10>  nroots 1
| 11> end
| 12>
| 13> # 	29557
| 14> * xyz 0 1
| 15> 		C   -0.593499  -0.433729   0.063108
| 16> 		O   -0.574139  -1.604857  -0.032407
| 17> 		C    0.655764   0.385338  -0.083588
| 18> 		C    1.806667  -0.140372   0.025550
| 19> 		H   -1.450136   0.099738   0.243504
| 20> 		H    0.451890   1.513135  -0.031717
| 21> 		H    2.066237  -1.194543   0.102568
| 22> 		H    2.746406   0.578488   0.139859
| 23> *
| 24>
| 25>                          ****END OF INPUT****

CARTESIAN COORDINATES (ANGSTROEM)
---------------------------------
  C     -0.593499   -0.433729    0.063108
  O     -0.574139   -1.604857   -0.032407
  C      0.655764    0.385338   -0.083588
  C      1.806667   -0.140372    0.025550
  H     -1.450136    0.099738    0.243504
  H      0.451890    1.513135   -0.031717
  H      2.066237   -1.194543    0.102568
  H      2.746406    0.578488    0.139859

 Total Charge           Charge          ....    0
 Multiplicity           Mult            ....    1
 Number of Electrons    NEL             ....   30
 Basis Dimension        Dim             ....   76

ORBITAL ENERGIES
----------------

  NO   OCC          E(Eh)            E(eV)
   0   2.0000     -19.135608      -520.7064
   1   2.0000     -10.264357      -279.3073
   2   2.0000     -10.208105      -277.7767
   3   2.0000     -10.196200      -277.4527
   4   2.0000      -1.065848       -29.0032
   5   2.0000      -0.799318       -21.7506
   6   2.0000      -0.655716       -17.8429
   7   2.0000      -0.546145       -14.8614
   8   2.0000      -0.504641       -13.7320
   9   2.0000      -0.454471       -12.3668
  10   2.0000      -0.428011       -11.6468
  11   2.0000      -0.408013       -11.1026
  12   2.0000      -0.364721        -9.9246
  13   2.0000      -0.295801        -8.0492
  14   2.0000      -0.252822        -6.8796
  15   0.0000      -0.054622        -1.4864
  16   0.0000       0.054817         1.4916
  17   0.0000       0.067926         1.8484
  18   0.0000       0.091186         2.4813
  19   0.0000       0.127721         3.4755

MULLIKEN ATOMIC CHARGES
-----------------------
   0 C :    0.224392
   1 O :   -0.165971
   2 C :   -0.134358
   3 C :    0.049908
   4 H :   -0.049612
   5 H :    0.001250
   6 H :    0.034205
   7 H :    0.040187
Sum of atomic charges:    0.0000000

LOEWDIN ATOMIC CHARGES
----------------------
   0 C :   -0.039005
   1 O :    0.033386
   2 C :   -0.096053
   3 C :    0.004216
   4 H :   -0.021001
   5 H :    0.037008
   6 H :    0.032669
   7 H :    0.048780

  Mayer bond orders larger than 0.100000
B(  0-C ,  1-O ) :   2.2468 B(  0-C ,  2-C ) :   1.0372 B(  0-C ,  4-H ) :   0.9237
B(  2-C ,  3-C ) :   2.0023 B(  2-C ,  5-H ) :   0.9268 B(  3-C ,  6-H ) :   0.9345
B(  3-C ,  7-H ) :   0.9339

-----------------------------------------------------------------------------
         ABSORPTION SPECTRUM VIA TRANSITION ELECTRIC DIPOLE MOMENTS
-----------------------------------------------------------------------------
State   Energy    Wavelength  fosc         T2        TX        TY        TZ
        (cm-1)      (nm)                 (au**2)    (au)      (au)      (au)
-----------------------------------------------------------------------------
   1   30231.2    330.8   0.000128270   0.00140  -0.02287  -0.02236  -0.01933

FINAL SINGLE POINT ENERGY      -191.648028910287

DIPOLE MOMENT
-------------
                                X             Y             Z
Electronic contribution:     -2.15579      -1.92072      -0.29329
Nuclear contribution   :      2.42050       2.72172       0.42564
                        -----------------------------------------
Total Dipole Moment    :      0.26471       0.80101       0.13234
                        -----------------------------------------
Magnitude (a.u.)       :      0.85393
Magnitude (Debye)      :      2.17052

Rotational constants in cm-1:     0.796993     0.213752     0.169386
Rotational constants in MHz : 23893.245475  6408.111515  5078.058172

                             ****ORCA TERMINATED NORMALLY****
TOTAL RUN TIME: 0 days 0 hours 3 minutes 17 seconds 631 msec
