                         Program Version 5.0.3 -  RELEASE  -
|  1> ! B3LYP cc-pVDZ
|  2> !TightSCF
|  3> %scf
|  4>  ConvForced true
|  5>  convergence tight
|  6>  MaxIter 500
|  7> end
|  8>
|  9> %tddft
| 10>  nroots 1
| 11> end
| 12>
| 13> # 	14146
| 14> * xyz 0 1
| 15> 		C   -1.210764  -0.273377   0.009589
| 16> 		O   -1.287220  -1.380940  -0.451952
| 17> 		C    0.052598   0.562737  -0.160118
| 18> 		C    1.247021   0.049565   0.119568
| 19> 		H   -2.079475   0.156087   0.364170
| 20> 		H   -0.131243   1.443193  -0.349862
| 21> 		H    1.218579  -1.184798   0.360827
| 22> 		H    2.230579   0.685748   0.059215
| 23> *
| 24>
| 25>                          ****END OF INPUT****

CARTESIAN COORDINATES (ANGSTROEM)
---------------------------------
  C     -1.210764   -0.273377    0.009589
  O     -1.287220   -1.380940   -0.451952
  C      0.052598    0.562737   -0.160118
  C      1.247021    0.049565    0.119568
  H     -2.079475    0.156087    0.364170
  H     -0.131243    1.443193   -0.349862
  H      1.218579   -1.184798    0.360827
  H      2.230579    0.685748    0.059215

 Total Charge           Charge          ....    0
 Multiplicity           Mult            ....    1
 Number of Electrons    NEL             ....   30
 Basis Dimension        Dim             ....   76

ORBITAL ENERGIES
----------------

  NO   OCC          E(Eh)            E(eV)
   0   2.0000     -19.136719      -520.7366
   1   2.0000     -10.269007      -279.4339
   2   2.0000     -10.225802      -278.2582
   3   2.0000     -10.188045      -277.2308
   4   2.0000      -1.051071       -28.6011
   5   2.0000      -0.793045       -21.5798
   6   2.0000      -0.648609       -17.6496
   7   2.0000      -0.562236       -15.2992
   8   2.0000      -0.512382       -13.9426
   9   2.0000      -0.437033       -11.8923
  10   2.0000      -0.433711       -11.8019
  11   2.0000      -0.389965       -10.6115
  12   2.0000      -0.371295       -10.1034
  13   2.0000      -0.288388        -7.8474
  14   2.0000      -0.250669        -6.8211
  15   0.0000      -0.050362        -1.3704
  16   0.0000       0.027406         0.7458
  17   0.0000       0.062295         1.6951
  18   0.0000       0.082282         2.2390
  19   0.0000       0.121247         3.2993

MULLIKEN ATOMIC CHARGES
-----------------------
   0 C :    0.184048
   1 O :   -0.189129
   2 C :    0.063305
   3 C :   -0.049192
   4 H :   -0.031825
   5 H :   -0.099863
   6 H :    0.066207
   7 H :    0.056450
Sum of atomic charges:    0.0000000

LOEWDIN ATOMIC CHARGES
----------------------
   0 C :   -0.008636
   1 O :    0.008309
   2 C :   -0.042049
   3 C :   -0.019663
   4 H :   -0.015431
   5 H :   -0.031573
   6 H :    0.061402
   7 H :    0.047643

  Mayer bond orders larger than 0.100000
B(  0-C ,  1-O ) :   2.1913 B(  0-C ,  2-C ) :   1.0184 B(  0-C ,  4-H ) :   0.9334
B(  2-C ,  3-C ) :   1.9805 B(  2-C ,  5-H ) :   0.9478 B(  3-C ,  6-H ) :   0.9174
B(  3-C ,  7-H ) :   0.9386

-----------------------------------------------------------------------------
         ABSORPTION SPECTRUM VIA TRANSITION ELECTRIC DIPOLE MOMENTS
-----------------------------------------------------------------------------
State   Energy    Wavelength  fosc         T2        TX        TY        TZ
        (cm-1)      (nm)                 (au**2)    (au)      (au)      (au)
-----------------------------------------------------------------------------
   1   30434.0    328.6   0.000047518   0.00051   0.01446   0.01726   0.00264

FINAL SINGLE POINT ENERGY      -191.611893079023

DIPOLE MOMENT
-------------
                                X             Y             Z
Electronic contribution:     -2.12676      -1.28500      -0.57861
Nuclear contribution   :      2.37116       2.14839       0.88229
                        -----------------------------------------
Total Dipole Moment    :      0.24440       0.86339       0.30367
                        -----------------------------------------
Magnitude (a.u.)       :      0.94731
Magnitude (Debye)      :      2.40787

Rotational constants in cm-1:     0.817912     0.195122     0.163255
Rotational constants in MHz : 24520.385493  5849.600485  4894.275370

                             ****ORCA TERMINATED NORMALLY****
TOTAL RUN TIME: 0 days 0 hours 3 minutes 22 seconds 810 msec
