                         Program Version 5.0.3 -  RELEASE  -
|  1> ! HF-3c
|  2> !TightSCF
|  3> %scf
|  4>  ConvForced true
|  5>  convergence tight
|  6>  MaxIter 500
|  7> end
|  8>
|  9> %tddft
| 10>  nroots 1
| 11> end
| 12>
| 13> # 	14091
| 14> * xyz 0 1
| 15> 		C   -1.297647  -0.274212  -0.022990
| 16> 		O   -1.645178  -1.058397  -0.808291
| 17> 		C    0.017446   0.451487  -0.180347
| 18> 		C    1.211534   0.036088   0.241151
| 19> 		H   -1.614554  -0.347769   0.986203
| 20> 		H   -0.041625   1.462953  -0.927998
| 21> 		H    1.257560  -0.935960   0.803137
| 22> 		H    2.142177   0.657934  -0.064412
| 23> *
| 24>
| 25>                          ****END OF INPUT****

CARTESIAN COORDINATES (ANGSTROEM)
---------------------------------
  C     -1.297647   -0.274212   -0.022990
  O     -1.645178   -1.058397   -0.808291
  C      0.017446    0.451487   -0.180347
  C      1.211534    0.036088    0.241151
  H     -1.614554   -0.347769    0.986203
  H     -0.041625    1.462953   -0.927998
  H      1.257560   -0.935960    0.803137
  H      2.142177    0.657934   -0.064412

 Total Charge           Charge          ....    0
 Multiplicity           Mult            ....    1
 Number of Electrons    NEL             ....   30
 Basis Dimension        Dim             ....   24

ORBITAL ENERGIES
----------------

  NO   OCC          E(Eh)            E(eV)
   0   2.0000     -20.396821      -555.0257
   1   2.0000     -11.315170      -307.9014
   2   2.0000     -11.176038      -304.1155
   3   2.0000     -11.169013      -303.9243
   4   2.0000      -1.450236       -39.4629
   5   2.0000      -1.057095       -28.7650
   6   2.0000      -0.875422       -23.8214
   7   2.0000      -0.760109       -20.6836
   8   2.0000      -0.665832       -18.1182
   9   2.0000      -0.634981       -17.2787
  10   2.0000      -0.598648       -16.2900
  11   2.0000      -0.549021       -14.9396
  12   2.0000      -0.498920       -13.5763
  13   2.0000      -0.404256       -11.0004
  14   2.0000      -0.392007       -10.6670
  15   0.0000       0.184610         5.0235
  16   0.0000       0.233295         6.3483
  17   0.0000       0.496315        13.5054
  18   0.0000       0.564610        15.3638
  19   0.0000       0.583960        15.8903

MULLIKEN ATOMIC CHARGES
-----------------------
   0 C :    0.167139
   1 O :   -0.341247
   2 C :   -0.141613
   3 C :   -0.250206
   4 H :    0.140635
   5 H :    0.140962
   6 H :    0.137678
   7 H :    0.146652
Sum of atomic charges:   -0.0000000

LOEWDIN ATOMIC CHARGES
----------------------
   0 C :    0.142425
   1 O :   -0.227847
   2 C :   -0.113912
   3 C :   -0.169057
   4 H :    0.070906
   5 H :    0.102791
   6 H :    0.092023
   7 H :    0.102670

  Mayer bond orders larger than 0.100000
B(  0-C ,  1-O ) :   1.9491 B(  0-C ,  2-C ) :   0.9735 B(  0-C ,  4-H ) :   0.9198
B(  2-C ,  3-C ) :   2.0057 B(  2-C ,  5-H ) :   0.9433 B(  3-C ,  6-H ) :   0.9616
B(  3-C ,  7-H ) :   0.9580

-----------------------------------------------------------------------------
         ABSORPTION SPECTRUM VIA TRANSITION ELECTRIC DIPOLE MOMENTS
-----------------------------------------------------------------------------
State   Energy    Wavelength  fosc         T2        TX        TY        TZ
        (cm-1)      (nm)                 (au**2)    (au)      (au)      (au)
-----------------------------------------------------------------------------
   1   34995.0    285.8   0.000568852   0.00535   0.06457   0.00085  -0.03437

Dispersion correction           -0.024890717
FINAL SINGLE POINT ENERGY      -189.285410825340

DIPOLE MOMENT
-------------
                                X             Y             Z
Electronic contribution:     -2.88175      -1.09258      -1.00617
Nuclear contribution   :      3.31754       1.67874       1.52022
                        -----------------------------------------
Total Dipole Moment    :      0.43579       0.58617       0.51405
                        -----------------------------------------
Magnitude (a.u.)       :      0.89317
Magnitude (Debye)      :      2.27025

Rotational constants in cm-1:     0.984592     0.166651     0.160184
Rotational constants in MHz : 29517.328334  4996.060755  4802.198967

                             ****ORCA TERMINATED NORMALLY****
TOTAL RUN TIME: 0 days 0 hours 0 minutes 13 seconds 215 msec
