                         Program Version 5.0.3 -  RELEASE  -
|  1> ! HF-3c
|  2> !TightSCF
|  3> %scf
|  4>  ConvForced true
|  5>  convergence tight
|  6>  MaxIter 500
|  7> end
|  8>
|  9> %tddft
| 10>  nroots 1
| 11> end
| 12>
| 13> # 	19282
| 14> * xyz 0 1
| 15> 		C   -1.187055  -0.383032  -0.096613
| 16> 		O   -1.355583  -1.612576  -0.169233
| 17> 		C   -0.002651   0.491780  -0.121280
| 18> 		C    1.174736   0.045273  -0.010115
| 19> 		H   -2.162192   0.219330   0.399362
| 20> 		H   -0.042118   1.625915   0.106553
| 21> 		H    1.367306  -0.996607  -0.094040
| 22> 		H    2.157645   0.609487  -0.016642
| 23> *
| 24>
| 25>                          ****END OF INPUT****

CARTESIAN COORDINATES (ANGSTROEM)
---------------------------------
  C     -1.187055   -0.383032   -0.096613
  O     -1.355583   -1.612576   -0.169233
  C     -0.002651    0.491780   -0.121280
  C      1.174736    0.045273   -0.010115
  H     -2.162192    0.219330    0.399362
  H     -0.042118    1.625915    0.106553
  H      1.367306   -0.996607   -0.094040
  H      2.157645    0.609487   -0.016642

 Total Charge           Charge          ....    0
 Multiplicity           Mult            ....    1
 Number of Electrons    NEL             ....   30
 Basis Dimension        Dim             ....   24

ORBITAL ENERGIES
----------------

  NO   OCC          E(Eh)            E(eV)
   0   2.0000     -20.357913      -553.9670
   1   2.0000     -11.288880      -307.1860
   2   2.0000     -11.201013      -304.7950
   3   2.0000     -11.195823      -304.6538
   4   2.0000      -1.373936       -37.3867
   5   2.0000      -1.106561       -30.1111
   6   2.0000      -0.881514       -23.9872
   7   2.0000      -0.738387       -20.0925
   8   2.0000      -0.686719       -18.6866
   9   2.0000      -0.615340       -16.7443
  10   2.0000      -0.584185       -15.8965
  11   2.0000      -0.527380       -14.3508
  12   2.0000      -0.507167       -13.8007
  13   2.0000      -0.416877       -11.3438
  14   2.0000      -0.394255       -10.7282
  15   0.0000       0.133802         3.6409
  16   0.0000       0.308486         8.3943
  17   0.0000       0.476062        12.9543
  18   0.0000       0.536231        14.5916
  19   0.0000       0.594494        16.1770

MULLIKEN ATOMIC CHARGES
-----------------------
   0 C :    0.179365
   1 O :   -0.349907
   2 C :   -0.189742
   3 C :   -0.217851
   4 H :    0.122458
   5 H :    0.157199
   6 H :    0.148001
   7 H :    0.150476
Sum of atomic charges:    0.0000000

LOEWDIN ATOMIC CHARGES
----------------------
   0 C :    0.156058
   1 O :   -0.265200
   2 C :   -0.145383
   3 C :   -0.120176
   4 H :    0.072264
   5 H :    0.108737
   6 H :    0.092220
   7 H :    0.101480

  Mayer bond orders larger than 0.100000
B(  0-C ,  1-O ) :   1.9145 B(  0-C ,  2-C ) :   1.0222 B(  0-C ,  4-H ) :   0.9134
B(  2-C ,  3-C ) :   1.9588 B(  2-C ,  5-H ) :   0.9459 B(  3-C ,  6-H ) :   0.9579
B(  3-C ,  7-H ) :   0.9586

-----------------------------------------------------------------------------
         ABSORPTION SPECTRUM VIA TRANSITION ELECTRIC DIPOLE MOMENTS
-----------------------------------------------------------------------------
State   Energy    Wavelength  fosc         T2        TX        TY        TZ
        (cm-1)      (nm)                 (au**2)    (au)      (au)      (au)
-----------------------------------------------------------------------------
   1   30291.0    330.1   0.000134397   0.00146  -0.02247  -0.00012  -0.03092

Dispersion correction           -0.025305443
FINAL SINGLE POINT ENERGY      -189.313301118070

DIPOLE MOMENT
-------------
                                X             Y             Z
Electronic contribution:     -2.09511      -1.82579      -0.52468
Nuclear contribution   :      2.59900       2.85477       0.70750
                        -----------------------------------------
Total Dipole Moment    :      0.50389       1.02899       0.18282
                        -----------------------------------------
Magnitude (a.u.)       :      1.16024
Magnitude (Debye)      :      2.94908

Rotational constants in cm-1:     0.852718     0.189246     0.155828
Rotational constants in MHz : 25563.851193  5673.445436  4671.595162

                             ****ORCA TERMINATED NORMALLY****
TOTAL RUN TIME: 0 days 0 hours 0 minutes 12 seconds 299 msec
