                         Program Version 5.0.3 -  RELEASE  -
|  1> ! B3LYP cc-pVDZ
|  2> !TightSCF
|  3> %scf
|  4>  ConvForced true
|  5>  convergence tight
|  6>  MaxIter 500
|  7> end
|  8>
|  9> %tddft
| 10>  nroots 1
| 11> end
| 12>
| 13> # 	9966
| 14> * xyz 0 1
| 15> 		C   -1.166029  -0.331201   0.020846
| 16> 		O   -1.403698  -1.356940  -0.581783
| 17> 		C   -0.001150   0.568734  -0.174673
| 18> 		C    1.213810  -0.012825   0.159624
| 19> 		H   -1.923663   0.065419   0.694743
| 20> 		H   -0.059297   1.523748  -0.596420
| 21> 		H    1.310624  -1.016891   0.509213
| 22> 		H    2.004074   0.549783  -0.043244
| 23> *
| 24>
| 25>                          ****END OF INPUT****

CARTESIAN COORDINATES (ANGSTROEM)
---------------------------------
  C     -1.166029   -0.331201    0.020846
  O     -1.403698   -1.356940   -0.581783
  C     -0.001150    0.568734   -0.174673
  C      1.213810   -0.012825    0.159624
  H     -1.923663    0.065419    0.694743
  H     -0.059297    1.523748   -0.596420
  H      1.310624   -1.016891    0.509213
  H      2.004074    0.549783   -0.043244

 Total Charge           Charge          ....    0
 Multiplicity           Mult            ....    1
 Number of Electrons    NEL             ....   30
 Basis Dimension        Dim             ....   76

ORBITAL ENERGIES
----------------

  NO   OCC          E(Eh)            E(eV)
   0   2.0000     -19.141592      -520.8692
   1   2.0000     -10.275787      -279.6184
   2   2.0000     -10.207501      -277.7602
   3   2.0000     -10.200884      -277.5802
   4   2.0000      -1.046350       -28.4726
   5   2.0000      -0.793243       -21.5852
   6   2.0000      -0.658298       -17.9132
   7   2.0000      -0.561734       -15.2856
   8   2.0000      -0.510871       -13.9015
   9   2.0000      -0.444738       -12.1019
  10   2.0000      -0.438617       -11.9354
  11   2.0000      -0.409370       -11.1395
  12   2.0000      -0.374534       -10.1916
  13   2.0000      -0.279492        -7.6054
  14   2.0000      -0.253126        -6.8879
  15   0.0000      -0.045734        -1.2445
  16   0.0000      -0.004697        -0.1278
  17   0.0000       0.087407         2.3785
  18   0.0000       0.100313         2.7297
  19   0.0000       0.111597         3.0367

MULLIKEN ATOMIC CHARGES
-----------------------
   0 C :    0.188473
   1 O :   -0.187569
   2 C :   -0.092820
   3 C :    0.097426
   4 H :   -0.021008
   5 H :   -0.000521
   6 H :    0.025588
   7 H :   -0.009571
Sum of atomic charges:   -0.0000000

LOEWDIN ATOMIC CHARGES
----------------------
   0 C :   -0.021571
   1 O :    0.002589
   2 C :   -0.038918
   3 C :    0.020365
   4 H :   -0.011937
   5 H :    0.022968
   6 H :    0.026848
   7 H :   -0.000343

  Mayer bond orders larger than 0.100000
B(  0-C ,  1-O ) :   2.2205 B(  0-C ,  2-C ) :   0.9996 B(  0-C ,  4-H ) :   0.9188
B(  2-C ,  3-C ) :   2.0049 B(  2-C ,  5-H ) :   0.9476 B(  3-C ,  6-H ) :   0.9556
B(  3-C ,  7-H ) :   0.9502

-----------------------------------------------------------------------------
         ABSORPTION SPECTRUM VIA TRANSITION ELECTRIC DIPOLE MOMENTS
-----------------------------------------------------------------------------
State   Energy    Wavelength  fosc         T2        TX        TY        TZ
        (cm-1)      (nm)                 (au**2)    (au)      (au)      (au)
-----------------------------------------------------------------------------
   1   31592.8    316.5   0.000331946   0.00346   0.05368  -0.01919  -0.01447

FINAL SINGLE POINT ENERGY      -191.637748676354

DIPOLE MOMENT
-------------
                                X             Y             Z
Electronic contribution:     -2.17593      -1.43381      -0.76543
Nuclear contribution   :      2.60996       2.23413       1.10339
                        -----------------------------------------
Total Dipole Moment    :      0.43403       0.80032       0.33796
                        -----------------------------------------
Magnitude (a.u.)       :      0.97114
Magnitude (Debye)      :      2.46844

Rotational constants in cm-1:     0.809516     0.189810     0.164553
Rotational constants in MHz : 24268.669220  5690.348952  4933.185141

                             ****ORCA TERMINATED NORMALLY****
TOTAL RUN TIME: 0 days 0 hours 3 minutes 14 seconds 927 msec
