                         Program Version 5.0.3 -  RELEASE  -
|  1> ! HF-3c
|  2> !TightSCF
|  3> %scf
|  4>  ConvForced true
|  5>  convergence tight
|  6>  MaxIter 500
|  7> end
|  8>
|  9> %tddft
| 10>  nroots 1
| 11> end
| 12>
| 13> # 	2894
| 14> * xyz 0 1
| 15> 		C   -1.157555  -0.392378  -0.003363
| 16> 		O   -1.766457  -0.878265   0.978953
| 17> 		C    0.038199   0.447105   0.291256
| 18> 		C    1.183751   0.062510  -0.175223
| 19> 		H   -1.592931  -0.398738  -1.205185
| 20> 		H   -0.195495   1.286317   1.039971
| 21> 		H    1.268610  -0.819908  -0.799534
| 22> 		H    2.214316   0.682529  -0.130489
| 23> *
| 24>
| 25>                          ****END OF INPUT****

CARTESIAN COORDINATES (ANGSTROEM)
---------------------------------
  C     -1.157555   -0.392378   -0.003363
  O     -1.766457   -0.878265    0.978953
  C      0.038199    0.447105    0.291256
  C      1.183751    0.062510   -0.175223
  H     -1.592931   -0.398738   -1.205185
  H     -0.195495    1.286317    1.039971
  H      1.268610   -0.819908   -0.799534
  H      2.214316    0.682529   -0.130489

 Total Charge           Charge          ....    0
 Multiplicity           Mult            ....    1
 Number of Electrons    NEL             ....   30
 Basis Dimension        Dim             ....   24

ORBITAL ENERGIES
----------------

  NO   OCC          E(Eh)            E(eV)
   0   2.0000     -20.349640      -553.7419
   1   2.0000     -11.279187      -306.9223
   2   2.0000     -11.189162      -304.4726
   3   2.0000     -11.179536      -304.2106
   4   2.0000      -1.367770       -37.2189
   5   2.0000      -1.080901       -29.4128
   6   2.0000      -0.854554       -23.2536
   7   2.0000      -0.739191       -20.1144
   8   2.0000      -0.645185       -17.5564
   9   2.0000      -0.627162       -17.0659
  10   2.0000      -0.582752       -15.8575
  11   2.0000      -0.517831       -14.0909
  12   2.0000      -0.482989       -13.1428
  13   2.0000      -0.404682       -11.0120
  14   2.0000      -0.392871       -10.6906
  15   0.0000       0.164629         4.4798
  16   0.0000       0.254415         6.9230
  17   0.0000       0.462578        12.5874
  18   0.0000       0.515328        14.0228
  19   0.0000       0.606546        16.5050

MULLIKEN ATOMIC CHARGES
-----------------------
   0 C :    0.172376
   1 O :   -0.351063
   2 C :   -0.171589
   3 C :   -0.232987
   4 H :    0.143477
   5 H :    0.162309
   6 H :    0.133647
   7 H :    0.143830
Sum of atomic charges:    0.0000000

LOEWDIN ATOMIC CHARGES
----------------------
   0 C :    0.148910
   1 O :   -0.268118
   2 C :   -0.125539
   3 C :   -0.149683
   4 H :    0.095122
   5 H :    0.112694
   6 H :    0.084875
   7 H :    0.101739

  Mayer bond orders larger than 0.100000
B(  0-C ,  1-O ) :   1.9343 B(  0-C ,  2-C ) :   0.9953 B(  0-C ,  4-H ) :   0.9023
B(  2-C ,  3-C ) :   1.9958 B(  2-C ,  5-H ) :   0.9422 B(  3-C ,  6-H ) :   0.9632
B(  3-C ,  7-H ) :   0.9570

-----------------------------------------------------------------------------
         ABSORPTION SPECTRUM VIA TRANSITION ELECTRIC DIPOLE MOMENTS
-----------------------------------------------------------------------------
State   Energy    Wavelength  fosc         T2        TX        TY        TZ
        (cm-1)      (nm)                 (au**2)    (au)      (au)      (au)
-----------------------------------------------------------------------------
   1   31791.7    314.5   0.000460489   0.00477  -0.06659  -0.00600  -0.01729

Dispersion correction           -0.024955418
FINAL SINGLE POINT ENERGY      -189.303634809656

DIPOLE MOMENT
-------------
                                X             Y             Z
Electronic contribution:     -2.69116      -1.01063       1.28559
Nuclear contribution   :      3.29603       1.48964      -2.08230
                        -----------------------------------------
Total Dipole Moment    :      0.60487       0.47901      -0.79671
                        -----------------------------------------
Magnitude (a.u.)       :      1.10909
Magnitude (Debye)      :      2.81907

Rotational constants in cm-1:     1.047560     0.163720     0.158570
Rotational constants in MHz : 31405.045454  4908.193546  4753.806050

                             ****ORCA TERMINATED NORMALLY****
TOTAL RUN TIME: 0 days 0 hours 0 minutes 15 seconds 737 msec
