                         Program Version 5.0.3 -  RELEASE  -
|  1> ! HF-3c
|  2> !TightSCF
|  3> %scf
|  4>  ConvForced true
|  5>  convergence tight
|  6>  MaxIter 500
|  7> end
|  8>
|  9> %tddft
| 10>  nroots 1
| 11> end
| 12>
| 13> # 	20014
| 14> * xyz 0 1
| 15> 		C   -0.587057  -0.404644   0.015039
| 16> 		O   -0.545569  -1.625601  -0.001302
| 17> 		C    0.628291   0.423146  -0.050517
| 18> 		C    1.811165  -0.156237   0.018817
| 19> 		H   -1.538743   0.116906   0.098980
| 20> 		H    0.509773   1.491455   0.094321
| 21> 		H    1.939500  -1.194400  -0.095524
| 22> 		H    2.624041   0.295330   0.132344
| 23> *
| 24>
| 25>                          ****END OF INPUT****

CARTESIAN COORDINATES (ANGSTROEM)
---------------------------------
  C     -0.587057   -0.404644    0.015039
  O     -0.545569   -1.625601   -0.001302
  C      0.628291    0.423146   -0.050517
  C      1.811165   -0.156237    0.018817
  H     -1.538743    0.116906    0.098980
  H      0.509773    1.491455    0.094321
  H      1.939500   -1.194400   -0.095524
  H      2.624041    0.295330    0.132344

 Total Charge           Charge          ....    0
 Multiplicity           Mult            ....    1
 Number of Electrons    NEL             ....   30
 Basis Dimension        Dim             ....   24

ORBITAL ENERGIES
----------------

  NO   OCC          E(Eh)            E(eV)
   0   2.0000     -20.365350      -554.1693
   1   2.0000     -11.297024      -307.4076
   2   2.0000     -11.200642      -304.7850
   3   2.0000     -11.199546      -304.7551
   4   2.0000      -1.397584       -38.0302
   5   2.0000      -1.096287       -29.8315
   6   2.0000      -0.913966       -24.8703
   7   2.0000      -0.771947       -21.0057
   8   2.0000      -0.717253       -19.5174
   9   2.0000      -0.631949       -17.1962
  10   2.0000      -0.608243       -16.5511
  11   2.0000      -0.544379       -14.8133
  12   2.0000      -0.542715       -14.7680
  13   2.0000      -0.422156       -11.4874
  14   2.0000      -0.402168       -10.9435
  15   0.0000       0.123606         3.3635
  16   0.0000       0.300999         8.1906
  17   0.0000       0.571712        15.5571
  18   0.0000       0.637220        17.3396
  19   0.0000       0.705688        19.2027

MULLIKEN ATOMIC CHARGES
-----------------------
   0 C :    0.160336
   1 O :   -0.346655
   2 C :   -0.162752
   3 C :   -0.247499
   4 H :    0.140187
   5 H :    0.147709
   6 H :    0.165620
   7 H :    0.143052
Sum of atomic charges:    0.0000000

LOEWDIN ATOMIC CHARGES
----------------------
   0 C :    0.146185
   1 O :   -0.256396
   2 C :   -0.115161
   3 C :   -0.132406
   4 H :    0.075057
   5 H :    0.094333
   6 H :    0.107152
   7 H :    0.081236

  Mayer bond orders larger than 0.100000
B(  0-C ,  1-O ) :   1.9060 B(  0-C ,  2-C ) :   1.0282 B(  0-C ,  4-H ) :   0.9292
B(  2-C ,  3-C ) :   1.9466 B(  2-C ,  5-H ) :   0.9586 B(  3-C ,  6-H ) :   0.9575
B(  3-C ,  7-H ) :   0.9692

-----------------------------------------------------------------------------
         ABSORPTION SPECTRUM VIA TRANSITION ELECTRIC DIPOLE MOMENTS
-----------------------------------------------------------------------------
State   Energy    Wavelength  fosc         T2        TX        TY        TZ
        (cm-1)      (nm)                 (au**2)    (au)      (au)      (au)
-----------------------------------------------------------------------------
   1   31683.5    315.6   0.000096656   0.00100  -0.03106  -0.00110  -0.00620

Dispersion correction           -0.026267737
FINAL SINGLE POINT ENERGY      -189.325666400424

DIPOLE MOMENT
-------------
                                X             Y             Z
Electronic contribution:     -1.97100      -1.55329      -0.15517
Nuclear contribution   :      2.15998       2.45226       0.21513
                        -----------------------------------------
Total Dipole Moment    :      0.18898       0.89897       0.05996
                        -----------------------------------------
Magnitude (a.u.)       :      0.92057
Magnitude (Debye)      :      2.33991

Rotational constants in cm-1:     0.745427     0.220972     0.170733
Rotational constants in MHz : 22347.340620  6624.561098  5118.449469

                             ****ORCA TERMINATED NORMALLY****
TOTAL RUN TIME: 0 days 0 hours 0 minutes 13 seconds 428 msec
