                         Program Version 5.0.3 -  RELEASE  -
|  1> ! B3LYP cc-pVDZ
|  2> !TightSCF
|  3> %scf
|  4>  ConvForced true
|  5>  convergence tight
|  6>  MaxIter 500
|  7> end
|  8>
|  9> %tddft
| 10>  nroots 1
| 11> end
| 12>
| 13> # 	8181
| 14> * xyz 0 1
| 15> 		C   -1.156805  -0.285858   0.026034
| 16> 		O   -1.186618  -1.449086  -0.153517
| 17> 		C   -0.007902   0.540724   0.013913
| 18> 		C    1.233766  -0.057373  -0.026908
| 19> 		H   -2.236225   0.142641   0.099187
| 20> 		H   -0.096328   1.627963  -0.247120
| 21> 		H    1.252787  -1.165061   0.307896
| 22> 		H    2.172448   0.610155  -0.005528
| 23> *
| 24>
| 25>                          ****END OF INPUT****

CARTESIAN COORDINATES (ANGSTROEM)
---------------------------------
  C     -1.156805   -0.285858    0.026034
  O     -1.186618   -1.449086   -0.153517
  C     -0.007902    0.540724    0.013913
  C      1.233766   -0.057373   -0.026908
  H     -2.236225    0.142641    0.099187
  H     -0.096328    1.627963   -0.247120
  H      1.252787   -1.165061    0.307896
  H      2.172448    0.610155   -0.005528

 Total Charge           Charge          ....    0
 Multiplicity           Mult            ....    1
 Number of Electrons    NEL             ....   30
 Basis Dimension        Dim             ....   76

ORBITAL ENERGIES
----------------

  NO   OCC          E(Eh)            E(eV)
   0   2.0000     -19.130668      -520.5719
   1   2.0000     -10.268160      -279.4109
   2   2.0000     -10.231335      -278.4088
   3   2.0000     -10.210751      -277.8487
   4   2.0000      -1.063621       -28.9426
   5   2.0000      -0.794723       -21.6255
   6   2.0000      -0.651172       -17.7193
   7   2.0000      -0.526879       -14.3371
   8   2.0000      -0.513018       -13.9599
   9   2.0000      -0.443285       -12.0624
  10   2.0000      -0.419034       -11.4025
  11   2.0000      -0.406180       -11.0527
  12   2.0000      -0.379963       -10.3393
  13   2.0000      -0.286749        -7.8028
  14   2.0000      -0.247856        -6.7445
  15   0.0000      -0.074719        -2.0332
  16   0.0000       0.050335         1.3697
  17   0.0000       0.070715         1.9243
  18   0.0000       0.083885         2.2826
  19   0.0000       0.115801         3.1511

MULLIKEN ATOMIC CHARGES
-----------------------
   0 C :    0.153543
   1 O :   -0.166340
   2 C :   -0.098365
   3 C :    0.007363
   4 H :   -0.037270
   5 H :    0.017021
   6 H :    0.067465
   7 H :    0.056584
Sum of atomic charges:   -0.0000000

LOEWDIN ATOMIC CHARGES
----------------------
   0 C :   -0.081550
   1 O :    0.022381
   2 C :   -0.087788
   3 C :    0.020780
   4 H :   -0.007997
   5 H :    0.039140
   6 H :    0.049699
   7 H :    0.045335

  Mayer bond orders larger than 0.100000
B(  0-C ,  1-O ) :   2.2131 B(  0-C ,  2-C ) :   1.0607 B(  0-C ,  4-H ) :   0.9241
B(  1-O ,  3-C ) :   0.1030 B(  2-C ,  3-C ) :   1.9186 B(  2-C ,  5-H ) :   0.9443
B(  3-C ,  6-H ) :   0.9310 B(  3-C ,  7-H ) :   0.9399

-----------------------------------------------------------------------------
         ABSORPTION SPECTRUM VIA TRANSITION ELECTRIC DIPOLE MOMENTS
-----------------------------------------------------------------------------
State   Energy    Wavelength  fosc         T2        TX        TY        TZ
        (cm-1)      (nm)                 (au**2)    (au)      (au)      (au)
-----------------------------------------------------------------------------
   1   25982.0    384.9   0.000345179   0.00437  -0.04902  -0.00858   0.04355

FINAL SINGLE POINT ENERGY      -191.668213389081

DIPOLE MOMENT
-------------
                                X             Y             Z
Electronic contribution:     -1.65826      -1.61278      -0.17388
Nuclear contribution   :      2.15359       2.43531       0.28668
                        -----------------------------------------
Total Dipole Moment    :      0.49533       0.82253       0.11280
                        -----------------------------------------
Magnitude (a.u.)       :      0.96676
Magnitude (Debye)      :      2.45732

Rotational constants in cm-1:     0.760364     0.217585     0.170399
Rotational constants in MHz : 22795.125961  6523.023373  5108.432142

                             ****ORCA TERMINATED NORMALLY****
TOTAL RUN TIME: 0 days 0 hours 3 minutes 17 seconds 458 msec
