                         Program Version 5.0.3 -  RELEASE  -
|  1> ! HF-3c
|  2> !TightSCF
|  3> %scf
|  4>  ConvForced true
|  5>  convergence tight
|  6>  MaxIter 500
|  7> end
|  8>
|  9> %tddft
| 10>  nroots 1
| 11> end
| 12>
| 13> # 	23837
| 14> * xyz 0 1
| 15> 		C   -0.590566  -0.423819   0.005891
| 16> 		O   -0.523852  -1.589381  -0.016332
| 17> 		C    0.548673   0.401836   0.022268
| 18> 		C    1.869786  -0.151698  -0.002261
| 19> 		H   -1.682548   0.105333   0.060479
| 20> 		H    0.475150   1.594154  -0.151922
| 21> 		H    1.824967  -1.416463   0.188460
| 22> 		H    2.840949   0.267297  -0.165640
| 23> *
| 24>
| 25>                          ****END OF INPUT****

CARTESIAN COORDINATES (ANGSTROEM)
---------------------------------
  C     -0.590566   -0.423819    0.005891
  O     -0.523852   -1.589381   -0.016332
  C      0.548673    0.401836    0.022268
  C      1.869786   -0.151698   -0.002261
  H     -1.682548    0.105333    0.060479
  H      0.475150    1.594154   -0.151922
  H      1.824967   -1.416463    0.188460
  H      2.840949    0.267297   -0.165640

 Total Charge           Charge          ....    0
 Multiplicity           Mult            ....    1
 Number of Electrons    NEL             ....   30
 Basis Dimension        Dim             ....   24

ORBITAL ENERGIES
----------------

  NO   OCC          E(Eh)            E(eV)
   0   2.0000     -20.354787      -553.8819
   1   2.0000     -11.299209      -307.4671
   2   2.0000     -11.185100      -304.3621
   3   2.0000     -11.169590      -303.9400
   4   2.0000      -1.426201       -38.8089
   5   2.0000      -1.040921       -28.3249
   6   2.0000      -0.873736       -23.7756
   7   2.0000      -0.722896       -19.6710
   8   2.0000      -0.673231       -18.3195
   9   2.0000      -0.605570       -16.4784
  10   2.0000      -0.577474       -15.7139
  11   2.0000      -0.554546       -15.0900
  12   2.0000      -0.474422       -12.9097
  13   2.0000      -0.398672       -10.8484
  14   2.0000      -0.358742        -9.7619
  15   0.0000       0.123491         3.3604
  16   0.0000       0.327226         8.9043
  17   0.0000       0.463920        12.6239
  18   0.0000       0.519829        14.1453
  19   0.0000       0.577681        15.7195

MULLIKEN ATOMIC CHARGES
-----------------------
   0 C :    0.170959
   1 O :   -0.378867
   2 C :   -0.180703
   3 C :   -0.178615
   4 H :    0.128088
   5 H :    0.134628
   6 H :    0.159554
   7 H :    0.144956
Sum of atomic charges:    0.0000000

LOEWDIN ATOMIC CHARGES
----------------------
   0 C :    0.137639
   1 O :   -0.272798
   2 C :   -0.157137
   3 C :   -0.086842
   4 H :    0.072865
   5 H :    0.093569
   6 H :    0.119899
   7 H :    0.092804

  Mayer bond orders larger than 0.100000
B(  0-C ,  1-O ) :   1.8714 B(  0-C ,  2-C ) :   1.0720 B(  0-C ,  4-H ) :   0.9058
B(  2-C ,  3-C ) :   1.8876 B(  2-C ,  5-H ) :   0.9574 B(  3-C ,  6-H ) :   0.9514
B(  3-C ,  7-H ) :   0.9674

-----------------------------------------------------------------------------
         ABSORPTION SPECTRUM VIA TRANSITION ELECTRIC DIPOLE MOMENTS
-----------------------------------------------------------------------------
State   Energy    Wavelength  fosc         T2        TX        TY        TZ
        (cm-1)      (nm)                 (au**2)    (au)      (au)      (au)
-----------------------------------------------------------------------------
   1   34041.6    293.8   0.000292301   0.00283  -0.04925   0.00133   0.01998

Dispersion correction           -0.025448126
FINAL SINGLE POINT ENERGY      -189.268821380601

DIPOLE MOMENT
-------------
                                X             Y             Z
Electronic contribution:     -1.66902      -1.46227       0.05028
Nuclear contribution   :      2.09053       2.30449      -0.06332
                        -----------------------------------------
Total Dipole Moment    :      0.42151       0.84222      -0.01304
                        -----------------------------------------
Magnitude (a.u.)       :      0.94190
Magnitude (Debye)      :      2.39413

Rotational constants in cm-1:     0.706583     0.220634     0.168473
Rotational constants in MHz : 21182.837627  6614.439278  5050.680848

                             ****ORCA TERMINATED NORMALLY****
TOTAL RUN TIME: 0 days 0 hours 0 minutes 10 seconds 114 msec
