                         Program Version 5.0.3 -  RELEASE  -
|  1> ! HF-3c
|  2> !TightSCF
|  3> %scf
|  4>  ConvForced true
|  5>  convergence tight
|  6>  MaxIter 500
|  7> end
|  8>
|  9> %tddft
| 10>  nroots 1
| 11> end
| 12>
| 13> # 	1763
| 14> * xyz 0 1
| 15> 		C   -1.227743  -0.334434   0.045842
| 16> 		O   -1.281919  -1.577971  -0.018253
| 17> 		C   -0.039587   0.545956  -0.089933
| 18> 		C    1.307988  -0.047012  -0.028820
| 19> 		H   -2.097043   0.273826  -0.015807
| 20> 		H   -0.094533   1.687271   0.044948
| 21> 		H    1.294223  -1.088126   0.023401
| 22> 		H    2.203874   0.559588   0.068261
| 23> *
| 24>
| 25>                          ****END OF INPUT****

CARTESIAN COORDINATES (ANGSTROEM)
---------------------------------
  C     -1.227743   -0.334434    0.045842
  O     -1.281919   -1.577971   -0.018253
  C     -0.039587    0.545956   -0.089933
  C      1.307988   -0.047012   -0.028820
  H     -2.097043    0.273826   -0.015807
  H     -0.094533    1.687271    0.044948
  H      1.294223   -1.088126    0.023401
  H      2.203874    0.559588    0.068261

 Total Charge           Charge          ....    0
 Multiplicity           Mult            ....    1
 Number of Electrons    NEL             ....   30
 Basis Dimension        Dim             ....   24

ORBITAL ENERGIES
----------------

  NO   OCC          E(Eh)            E(eV)
   0   2.0000     -20.354147      -553.8645
   1   2.0000     -11.288523      -307.1763
   2   2.0000     -11.190958      -304.5215
   3   2.0000     -11.176343      -304.1238
   4   2.0000      -1.371415       -37.3181
   5   2.0000      -1.041635       -28.3443
   6   2.0000      -0.898321       -24.4446
   7   2.0000      -0.746129       -20.3032
   8   2.0000      -0.685177       -18.6446
   9   2.0000      -0.601451       -16.3663
  10   2.0000      -0.582624       -15.8540
  11   2.0000      -0.529351       -14.4044
  12   2.0000      -0.518370       -14.1056
  13   2.0000      -0.412757       -11.2317
  14   2.0000      -0.356559        -9.7025
  15   0.0000       0.101605         2.7648
  16   0.0000       0.278776         7.5859
  17   0.0000       0.547486        14.8978
  18   0.0000       0.592279        16.1167
  19   0.0000       0.657579        17.8936

MULLIKEN ATOMIC CHARGES
-----------------------
   0 C :    0.139714
   1 O :   -0.349622
   2 C :   -0.160238
   3 C :   -0.208885
   4 H :    0.134231
   5 H :    0.140506
   6 H :    0.156029
   7 H :    0.148265
Sum of atomic charges:    0.0000000

LOEWDIN ATOMIC CHARGES
----------------------
   0 C :    0.137672
   1 O :   -0.266849
   2 C :   -0.130393
   3 C :   -0.099977
   4 H :    0.068712
   5 H :    0.094743
   6 H :    0.098532
   7 H :    0.097560

  Mayer bond orders larger than 0.100000
B(  0-C ,  1-O ) :   1.8815 B(  0-C ,  2-C ) :   1.0572 B(  0-C ,  4-H ) :   0.9311
B(  2-C ,  3-C ) :   1.8921 B(  2-C ,  5-H ) :   0.9624 B(  3-C ,  6-H ) :   0.9653
B(  3-C ,  7-H ) :   0.9684

-----------------------------------------------------------------------------
         ABSORPTION SPECTRUM VIA TRANSITION ELECTRIC DIPOLE MOMENTS
-----------------------------------------------------------------------------
State   Energy    Wavelength  fosc         T2        TX        TY        TZ
        (cm-1)      (nm)                 (au**2)    (au)      (au)      (au)
-----------------------------------------------------------------------------
   1   29880.5    334.7   0.000196840   0.00217   0.04638   0.00368   0.00196

Dispersion correction           -0.024945972
FINAL SINGLE POINT ENERGY      -189.319910877852

DIPOLE MOMENT
-------------
                                X             Y             Z
Electronic contribution:     -1.98987      -1.77050      -0.08445
Nuclear contribution   :      2.46370       2.78736       0.18336
                        -----------------------------------------
Total Dipole Moment    :      0.47383       1.01686       0.09891
                        -----------------------------------------
Magnitude (a.u.)       :      1.12619
Magnitude (Debye)      :      2.86254

Rotational constants in cm-1:     0.710112     0.193780     0.152547
Rotational constants in MHz : 21288.633333  5809.375965  4573.252408

                             ****ORCA TERMINATED NORMALLY****
TOTAL RUN TIME: 0 days 0 hours 0 minutes 11 seconds 88 msec
