                         Program Version 5.0.3 -  RELEASE  -
|  1> ! B3LYP cc-pVDZ
|  2> !TightSCF
|  3> %scf
|  4>  ConvForced true
|  5>  convergence tight
|  6>  MaxIter 500
|  7> end
|  8>
|  9> %tddft
| 10>  nroots 1
| 11> end
| 12>
| 13> # 	25900
| 14> * xyz 0 1
| 15> 		C   -0.538917  -0.418544   0.052625
| 16> 		O   -0.605843  -1.667617  -0.051441
| 17> 		C    0.568963   0.412532  -0.013270
| 18> 		C    1.909152  -0.085747   0.027508
| 19> 		H   -1.601605   0.198453   0.321564
| 20> 		H    0.415369   1.466702  -0.429867
| 21> 		H    1.891220  -1.433522   0.240926
| 22> 		H    2.768315   0.576763  -0.148444
| 23> *
| 24>
| 25>                          ****END OF INPUT****

CARTESIAN COORDINATES (ANGSTROEM)
---------------------------------
  C     -0.538917   -0.418544    0.052625
  O     -0.605843   -1.667617   -0.051441
  C      0.568963    0.412532   -0.013270
  C      1.909152   -0.085747    0.027508
  H     -1.601605    0.198453    0.321564
  H      0.415369    1.466702   -0.429867
  H      1.891220   -1.433522    0.240926
  H      2.768315    0.576763   -0.148444

 Total Charge           Charge          ....    0
 Multiplicity           Mult            ....    1
 Number of Electrons    NEL             ....   30
 Basis Dimension        Dim             ....   76

ORBITAL ENERGIES
----------------

  NO   OCC          E(Eh)            E(eV)
   0   2.0000     -19.140556      -520.8410
   1   2.0000     -10.282845      -279.8104
   2   2.0000     -10.256011      -279.0802
   3   2.0000     -10.221822      -278.1499
   4   2.0000      -1.022866       -27.8336
   5   2.0000      -0.792991       -21.5784
   6   2.0000      -0.662112       -18.0170
   7   2.0000      -0.516557       -14.0562
   8   2.0000      -0.498474       -13.5642
   9   2.0000      -0.437375       -11.9016
  10   2.0000      -0.417954       -11.3731
  11   2.0000      -0.386620       -10.5205
  12   2.0000      -0.360511        -9.8100
  13   2.0000      -0.280857        -7.6425
  14   2.0000      -0.254849        -6.9348
  15   0.0000      -0.091438        -2.4881
  16   0.0000       0.031445         0.8557
  17   0.0000       0.036399         0.9905
  18   0.0000       0.066500         1.8096
  19   0.0000       0.099667         2.7121

MULLIKEN ATOMIC CHARGES
-----------------------
   0 C :    0.143972
   1 O :   -0.221779
   2 C :   -0.078354
   3 C :   -0.028171
   4 H :   -0.012409
   5 H :    0.032517
   6 H :    0.105446
   7 H :    0.058778
Sum of atomic charges:   -0.0000000

LOEWDIN ATOMIC CHARGES
----------------------
   0 C :   -0.043961
   1 O :   -0.045800
   2 C :   -0.102323
   3 C :    0.021689
   4 H :    0.002255
   5 H :    0.047125
   6 H :    0.086739
   7 H :    0.034278

  Mayer bond orders larger than 0.100000
B(  0-C ,  1-O ) :   2.1160 B(  0-C ,  2-C ) :   1.1245 B(  0-C ,  4-H ) :   0.8909
B(  1-O ,  3-C ) :   0.1200 B(  2-C ,  3-C ) :   1.8615 B(  2-C ,  5-H ) :   0.9371
B(  3-C ,  6-H ) :   0.9127 B(  3-C ,  7-H ) :   0.9356

-----------------------------------------------------------------------------
         ABSORPTION SPECTRUM VIA TRANSITION ELECTRIC DIPOLE MOMENTS
-----------------------------------------------------------------------------
State   Energy    Wavelength  fosc         T2        TX        TY        TZ
        (cm-1)      (nm)                 (au**2)    (au)      (au)      (au)
-----------------------------------------------------------------------------
   1   23768.6    420.7   0.000223313   0.00309   0.01716  -0.00546   0.05262

FINAL SINGLE POINT ENERGY      -191.641524123754

DIPOLE MOMENT
-------------
                                X             Y             Z
Electronic contribution:     -1.44330      -1.60545      -0.02801
Nuclear contribution   :      2.10050       2.54597      -0.01319
                        -----------------------------------------
Total Dipole Moment    :      0.65720       0.94051      -0.04121
                        -----------------------------------------
Magnitude (a.u.)       :      1.14812
Magnitude (Debye)      :      2.91828

Rotational constants in cm-1:     0.713724     0.201718     0.158625
Rotational constants in MHz : 21396.905697  6047.366382  4755.455296

                             ****ORCA TERMINATED NORMALLY****
TOTAL RUN TIME: 0 days 0 hours 3 minutes 23 seconds 529 msec
