                         Program Version 5.0.3 -  RELEASE  -
|  1> ! B3LYP cc-pVDZ
|  2> !TightSCF
|  3> %scf
|  4>  ConvForced true
|  5>  convergence tight
|  6>  MaxIter 500
|  7> end
|  8>
|  9> %tddft
| 10>  nroots 1
| 11> end
| 12>
| 13> # 	16914
| 14> * xyz 0 1
| 15> 		C   -1.201336  -0.269019   0.051866
| 16> 		O   -1.932153  -0.792436   0.891717
| 17> 		C    0.028135   0.470977   0.314103
| 18> 		C    1.202424   0.206232  -0.212353
| 19> 		H   -1.406817  -0.548388  -1.007177
| 20> 		H   -0.201031   1.168089   0.850174
| 21> 		H    1.358255  -0.874948  -0.794234
| 22> 		H    2.151503   0.632714  -0.076522
| 23> *
| 24>
| 25>                          ****END OF INPUT****

CARTESIAN COORDINATES (ANGSTROEM)
---------------------------------
  C     -1.201336   -0.269019    0.051866
  O     -1.932153   -0.792436    0.891717
  C      0.028135    0.470977    0.314103
  C      1.202424    0.206232   -0.212353
  H     -1.406817   -0.548388   -1.007177
  H     -0.201031    1.168089    0.850174
  H      1.358255   -0.874948   -0.794234
  H      2.151503    0.632714   -0.076522

 Total Charge           Charge          ....    0
 Multiplicity           Mult            ....    1
 Number of Electrons    NEL             ....   30
 Basis Dimension        Dim             ....   76

ORBITAL ENERGIES
----------------

  NO   OCC          E(Eh)            E(eV)
   0   2.0000     -19.142945      -520.9060
   1   2.0000     -10.277798      -279.6731
   2   2.0000     -10.222532      -278.1692
   3   2.0000     -10.195170      -277.4247
   4   2.0000      -1.039537       -28.2872
   5   2.0000      -0.813977       -22.1494
   6   2.0000      -0.661835       -18.0094
   7   2.0000      -0.581893       -15.8341
   8   2.0000      -0.498605       -13.5677
   9   2.0000      -0.474790       -12.9197
  10   2.0000      -0.434540       -11.8244
  11   2.0000      -0.383486       -10.4352
  12   2.0000      -0.372249       -10.1294
  13   2.0000      -0.295645        -8.0449
  14   2.0000      -0.254654        -6.9295
  15   0.0000      -0.060525        -1.6470
  16   0.0000       0.014887         0.4051
  17   0.0000       0.069848         1.9007
  18   0.0000       0.100202         2.7266
  19   0.0000       0.109614         2.9828

MULLIKEN ATOMIC CHARGES
-----------------------
   0 C :    0.132912
   1 O :   -0.202593
   2 C :    0.102386
   3 C :    0.005443
   4 H :   -0.016020
   5 H :   -0.089345
   6 H :    0.040282
   7 H :    0.026936
Sum of atomic charges:    0.0000000

LOEWDIN ATOMIC CHARGES
----------------------
   0 C :   -0.003657
   1 O :   -0.011904
   2 C :   -0.027426
   3 C :    0.000303
   4 H :   -0.003821
   5 H :   -0.023121
   6 H :    0.049242
   7 H :    0.020384

  Mayer bond orders larger than 0.100000
B(  0-C ,  1-O ) :   2.1796 B(  0-C ,  2-C ) :   1.0258 B(  0-C ,  4-H ) :   0.9254
B(  2-C ,  3-C ) :   1.9731 B(  2-C ,  5-H ) :   0.9475 B(  3-C ,  6-H ) :   0.9378
B(  3-C ,  7-H ) :   0.9521

-----------------------------------------------------------------------------
         ABSORPTION SPECTRUM VIA TRANSITION ELECTRIC DIPOLE MOMENTS
-----------------------------------------------------------------------------
State   Energy    Wavelength  fosc         T2        TX        TY        TZ
        (cm-1)      (nm)                 (au**2)    (au)      (au)      (au)
-----------------------------------------------------------------------------
   1   29074.0    343.9   0.000487891   0.00552   0.01830  -0.02677  -0.06688

FINAL SINGLE POINT ENERGY      -191.615545331760

DIPOLE MOMENT
-------------
                                X             Y             Z
Electronic contribution:     -2.88135      -0.37065       1.46339
Nuclear contribution   :      3.68065       0.83935      -1.96412
                        -----------------------------------------
Total Dipole Moment    :      0.79930       0.46870      -0.50073
                        -----------------------------------------
Magnitude (a.u.)       :      1.05323
Magnitude (Debye)      :      2.67709

Rotational constants in cm-1:     1.344387     0.154755     0.149401
Rotational constants in MHz : 40303.698331  4639.445301  4478.930026

                             ****ORCA TERMINATED NORMALLY****
TOTAL RUN TIME: 0 days 0 hours 3 minutes 17 seconds 886 msec
