                         Program Version 5.0.3 -  RELEASE  -
|  1> ! B3LYP cc-pVDZ
|  2> !TightSCF
|  3> %scf
|  4>  ConvForced true
|  5>  convergence tight
|  6>  MaxIter 500
|  7> end
|  8>
|  9> %tddft
| 10>  nroots 1
| 11> end
| 12>
| 13> # 	7465
| 14> * xyz 0 1
| 15> 		C   -1.209462  -0.299336  -0.010295
| 16> 		O   -1.439947  -1.214272  -0.702026
| 17> 		C   -0.011373   0.516796  -0.144448
| 18> 		C    1.225796   0.038564   0.107227
| 19> 		H   -2.015525  -0.202746   0.711548
| 20> 		H   -0.112512   1.613641  -0.550403
| 21> 		H    1.429461  -1.009880   0.573553
| 22> 		H    2.157653   0.583021   0.016416
| 23> *
| 24>
| 25>                          ****END OF INPUT****

CARTESIAN COORDINATES (ANGSTROEM)
---------------------------------
  C     -1.209462   -0.299336   -0.010295
  O     -1.439947   -1.214272   -0.702026
  C     -0.011373    0.516796   -0.144448
  C      1.225796    0.038564    0.107227
  H     -2.015525   -0.202746    0.711548
  H     -0.112512    1.613641   -0.550403
  H      1.429461   -1.009880    0.573553
  H      2.157653    0.583021    0.016416

 Total Charge           Charge          ....    0
 Multiplicity           Mult            ....    1
 Number of Electrons    NEL             ....   30
 Basis Dimension        Dim             ....   76

ORBITAL ENERGIES
----------------

  NO   OCC          E(Eh)            E(eV)
   0   2.0000     -19.133351      -520.6449
   1   2.0000     -10.269604      -279.4501
   2   2.0000     -10.216031      -277.9923
   3   2.0000     -10.215143      -277.9682
   4   2.0000      -1.071728       -29.1632
   5   2.0000      -0.788859       -21.4659
   6   2.0000      -0.647691       -17.6246
   7   2.0000      -0.554030       -15.0759
   8   2.0000      -0.499354       -13.5881
   9   2.0000      -0.462161       -12.5760
  10   2.0000      -0.440562       -11.9883
  11   2.0000      -0.389416       -10.5966
  12   2.0000      -0.369779       -10.0622
  13   2.0000      -0.286491        -7.7958
  14   2.0000      -0.247083        -6.7235
  15   0.0000      -0.034249        -0.9320
  16   0.0000      -0.000415        -0.0113
  17   0.0000       0.073823         2.0088
  18   0.0000       0.085443         2.3250
  19   0.0000       0.104894         2.8543

MULLIKEN ATOMIC CHARGES
-----------------------
   0 C :    0.169873
   1 O :   -0.154275
   2 C :   -0.102250
   3 C :    0.002497
   4 H :   -0.032549
   5 H :    0.042334
   6 H :    0.042417
   7 H :    0.031953
Sum of atomic charges:    0.0000000

LOEWDIN ATOMIC CHARGES
----------------------
   0 C :   -0.059217
   1 O :    0.041932
   2 C :   -0.072946
   3 C :   -0.021534
   4 H :   -0.009916
   5 H :    0.053756
   6 H :    0.041344
   7 H :    0.026580

  Mayer bond orders larger than 0.100000
B(  0-C ,  1-O ) :   2.2563 B(  0-C ,  2-C ) :   0.9664 B(  0-C ,  4-H ) :   0.9431
B(  2-C ,  3-C ) :   2.0151 B(  2-C ,  5-H ) :   0.9253 B(  3-C ,  6-H ) :   0.9495
B(  3-C ,  7-H ) :   0.9501

-----------------------------------------------------------------------------
         ABSORPTION SPECTRUM VIA TRANSITION ELECTRIC DIPOLE MOMENTS
-----------------------------------------------------------------------------
State   Energy    Wavelength  fosc         T2        TX        TY        TZ
        (cm-1)      (nm)                 (au**2)    (au)      (au)      (au)
-----------------------------------------------------------------------------
   1   32867.8    304.2   0.000013633   0.00014  -0.00419   0.00079  -0.01088

FINAL SINGLE POINT ENERGY      -191.629724797381

DIPOLE MOMENT
-------------
                                X             Y             Z
Electronic contribution:     -2.38146      -1.25937      -0.99790
Nuclear contribution   :      2.79287       1.93744       1.43654
                        -----------------------------------------
Total Dipole Moment    :      0.41141       0.67807       0.43864
                        -----------------------------------------
Magnitude (a.u.)       :      0.90633
Magnitude (Debye)      :      2.30372

Rotational constants in cm-1:     0.880979     0.184746     0.164702
Rotational constants in MHz : 26411.097879  5538.535636  4937.634013

                             ****ORCA TERMINATED NORMALLY****
TOTAL RUN TIME: 0 days 0 hours 3 minutes 27 seconds 901 msec
