                         Program Version 5.0.3 -  RELEASE  -
|  1> ! HF-3c
|  2> !TightSCF
|  3> %scf
|  4>  ConvForced true
|  5>  convergence tight
|  6>  MaxIter 500
|  7> end
|  8>
|  9> %tddft
| 10>  nroots 1
| 11> end
| 12>
| 13> # 	14414
| 14> * xyz 0 1
| 15> 		C   -1.174151  -0.379280   0.029042
| 16> 		O   -1.806099  -0.946184   0.933243
| 17> 		C    0.019447   0.466075   0.198154
| 18> 		C    1.174370   0.059620  -0.249920
| 19> 		H   -1.578846  -0.448066  -0.968029
| 20> 		H   -0.124388   1.466854   0.906909
| 21> 		H    1.298390  -0.883648  -0.726314
| 22> 		H    2.162371   0.687974  -0.092593
| 23> *
| 24>
| 25>                          ****END OF INPUT****

CARTESIAN COORDINATES (ANGSTROEM)
---------------------------------
  C     -1.174151   -0.379280    0.029042
  O     -1.806099   -0.946184    0.933243
  C      0.019447    0.466075    0.198154
  C      1.174370    0.059620   -0.249920
  H     -1.578846   -0.448066   -0.968029
  H     -0.124388    1.466854    0.906909
  H      1.298390   -0.883648   -0.726314
  H      2.162371    0.687974   -0.092593

 Total Charge           Charge          ....    0
 Multiplicity           Mult            ....    1
 Number of Electrons    NEL             ....   30
 Basis Dimension        Dim             ....   24

ORBITAL ENERGIES
----------------

  NO   OCC          E(Eh)            E(eV)
   0   2.0000     -20.363196      -554.1107
   1   2.0000     -11.290217      -307.2224
   2   2.0000     -11.193098      -304.5797
   3   2.0000     -11.182299      -304.2858
   4   2.0000      -1.381986       -37.6057
   5   2.0000      -1.085072       -29.5263
   6   2.0000      -0.879246       -23.9255
   7   2.0000      -0.757523       -20.6132
   8   2.0000      -0.669274       -18.2119
   9   2.0000      -0.626617       -17.0511
  10   2.0000      -0.592756       -16.1297
  11   2.0000      -0.526326       -14.3221
  12   2.0000      -0.489032       -13.3072
  13   2.0000      -0.411624       -11.2009
  14   2.0000      -0.405332       -11.0296
  15   0.0000       0.164075         4.4647
  16   0.0000       0.244832         6.6622
  17   0.0000       0.491921        13.3859
  18   0.0000       0.563199        15.3254
  19   0.0000       0.633299        17.2329

MULLIKEN ATOMIC CHARGES
-----------------------
   0 C :    0.150191
   1 O :   -0.338222
   2 C :   -0.158641
   3 C :   -0.240603
   4 H :    0.140112
   5 H :    0.163058
   6 H :    0.138476
   7 H :    0.145629
Sum of atomic charges:    0.0000000

LOEWDIN ATOMIC CHARGES
----------------------
   0 C :    0.143405
   1 O :   -0.252723
   2 C :   -0.121295
   3 C :   -0.153784
   4 H :    0.074684
   5 H :    0.120294
   6 H :    0.087298
   7 H :    0.102121

  Mayer bond orders larger than 0.100000
B(  0-C ,  1-O ) :   1.9325 B(  0-C ,  2-C ) :   1.0035 B(  0-C ,  4-H ) :   0.9276
B(  2-C ,  3-C ) :   1.9954 B(  2-C ,  5-H ) :   0.9353 B(  3-C ,  6-H ) :   0.9635
B(  3-C ,  7-H ) :   0.9577

-----------------------------------------------------------------------------
         ABSORPTION SPECTRUM VIA TRANSITION ELECTRIC DIPOLE MOMENTS
-----------------------------------------------------------------------------
State   Energy    Wavelength  fosc         T2        TX        TY        TZ
        (cm-1)      (nm)                 (au**2)    (au)      (au)      (au)
-----------------------------------------------------------------------------
   1   32141.1    311.1   0.000082430   0.00084   0.02211   0.01623   0.00958

Dispersion correction           -0.024983889
FINAL SINGLE POINT ENERGY      -189.316896960338

DIPOLE MOMENT
-------------
                                X             Y             Z
Electronic contribution:     -2.75581      -1.04958       1.13386
Nuclear contribution   :      3.42903       1.60157      -1.73722
                        -----------------------------------------
Total Dipole Moment    :      0.67322       0.55199      -0.60337
                        -----------------------------------------
Magnitude (a.u.)       :      1.05923
Magnitude (Debye)      :      2.69236

Rotational constants in cm-1:     1.116788     0.159230     0.154638
Rotational constants in MHz : 33480.461503  4773.591581  4635.926840

                             ****ORCA TERMINATED NORMALLY****
TOTAL RUN TIME: 0 days 0 hours 0 minutes 8 seconds 927 msec
