                         Program Version 5.0.3 -  RELEASE  -
|  1> ! B3LYP cc-pVDZ
|  2> !TightSCF
|  3> %scf
|  4>  ConvForced true
|  5>  convergence tight
|  6>  MaxIter 500
|  7> end
|  8>
|  9> %tddft
| 10>  nroots 1
| 11> end
| 12>
| 13> # 	24683
| 14> * xyz 0 1
| 15> 		C   -0.500148  -0.419678   0.050114
| 16> 		O   -0.612008  -1.647071  -0.009121
| 17> 		C    0.634382   0.407355  -0.091795
| 18> 		C    1.804180  -0.128577   0.011403
| 19> 		H   -1.582856   0.167244   0.074886
| 20> 		H    0.462611   1.496754   0.198940
| 21> 		H    2.012124  -1.106119  -0.035634
| 22> 		H    2.707348   0.531394   0.290447
| 23> *
| 24>
| 25>                          ****END OF INPUT****

CARTESIAN COORDINATES (ANGSTROEM)
---------------------------------
  C     -0.500148   -0.419678    0.050114
  O     -0.612008   -1.647071   -0.009121
  C      0.634382    0.407355   -0.091795
  C      1.804180   -0.128577    0.011403
  H     -1.582856    0.167244    0.074886
  H      0.462611    1.496754    0.198940
  H      2.012124   -1.106119   -0.035634
  H      2.707348    0.531394    0.290447

 Total Charge           Charge          ....    0
 Multiplicity           Mult            ....    1
 Number of Electrons    NEL             ....   30
 Basis Dimension        Dim             ....   76

ORBITAL ENERGIES
----------------

  NO   OCC          E(Eh)            E(eV)
   0   2.0000     -19.135922      -520.7149
   1   2.0000     -10.278190      -279.6838
   2   2.0000     -10.217067      -278.0205
   3   2.0000     -10.208082      -277.7760
   4   2.0000      -1.031585       -28.0709
   5   2.0000      -0.822868       -22.3914
   6   2.0000      -0.666465       -18.1354
   7   2.0000      -0.544364       -14.8129
   8   2.0000      -0.504381       -13.7249
   9   2.0000      -0.457313       -12.4441
  10   2.0000      -0.411028       -11.1847
  11   2.0000      -0.396936       -10.8012
  12   2.0000      -0.381225       -10.3737
  13   2.0000      -0.299339        -8.1454
  14   2.0000      -0.249367        -6.7856
  15   0.0000      -0.077389        -2.1059
  16   0.0000       0.045306         1.2328
  17   0.0000       0.060247         1.6394
  18   0.0000       0.091719         2.4958
  19   0.0000       0.119147         3.2422

MULLIKEN ATOMIC CHARGES
-----------------------
   0 C :    0.134258
   1 O :   -0.208061
   2 C :   -0.092214
   3 C :    0.123292
   4 H :   -0.024903
   5 H :    0.020497
   6 H :    0.004519
   7 H :    0.042612
Sum of atomic charges:   -0.0000000

LOEWDIN ATOMIC CHARGES
----------------------
   0 C :   -0.039502
   1 O :   -0.031752
   2 C :   -0.097920
   3 C :    0.066379
   4 H :   -0.005588
   5 H :    0.050382
   6 H :    0.008688
   7 H :    0.049314

  Mayer bond orders larger than 0.100000
B(  0-C ,  1-O ) :   2.1628 B(  0-C ,  2-C ) :   1.0933 B(  0-C ,  4-H ) :   0.8992
B(  2-C ,  3-C ) :   1.9382 B(  2-C ,  5-H ) :   0.9291 B(  3-C ,  6-H ) :   0.9425
B(  3-C ,  7-H ) :   0.9422

-----------------------------------------------------------------------------
         ABSORPTION SPECTRUM VIA TRANSITION ELECTRIC DIPOLE MOMENTS
-----------------------------------------------------------------------------
State   Energy    Wavelength  fosc         T2        TX        TY        TZ
        (cm-1)      (nm)                 (au**2)    (au)      (au)      (au)
-----------------------------------------------------------------------------
   1   25322.1    394.9   0.001003255   0.01304   0.10459  -0.00071   0.04587

FINAL SINGLE POINT ENERGY      -191.661368476334

DIPOLE MOMENT
-------------
                                X             Y             Z
Electronic contribution:     -1.53509      -1.92506      -0.36359
Nuclear contribution   :      2.21728       2.80833       0.49426
                        -----------------------------------------
Total Dipole Moment    :      0.68219       0.88327       0.13067
                        -----------------------------------------
Magnitude (a.u.)       :      1.12366
Magnitude (Debye)      :      2.85612

Rotational constants in cm-1:     0.793598     0.211343     0.167781
Rotational constants in MHz : 23791.459633  6335.912773  5029.943805

                             ****ORCA TERMINATED NORMALLY****
TOTAL RUN TIME: 0 days 0 hours 3 minutes 27 seconds 695 msec
