                         Program Version 5.0.3 -  RELEASE  -
|  1> ! HF-3c
|  2> !TightSCF
|  3> %scf
|  4>  ConvForced true
|  5>  convergence tight
|  6>  MaxIter 500
|  7> end
|  8>
|  9> %tddft
| 10>  nroots 1
| 11> end
| 12>
| 13> # 	14924
| 14> * xyz 0 1
| 15> 		C   -1.126466  -0.260574  -0.031686
| 16> 		O   -1.276747  -1.455178  -0.254967
| 17> 		C    0.000375   0.476029  -0.107747
| 18> 		C    1.174568  -0.047831   0.052608
| 19> 		H   -2.042286   0.427951   0.327736
| 20> 		H   -0.157611   1.556218  -0.206146
| 21> 		H    1.254815  -1.199290   0.205267
| 22> 		H    2.141317   0.522935   0.061593
| 23> *
| 24>
| 25>                          ****END OF INPUT****

CARTESIAN COORDINATES (ANGSTROEM)
---------------------------------
  C     -1.126466   -0.260574   -0.031686
  O     -1.276747   -1.455178   -0.254967
  C      0.000375    0.476029   -0.107747
  C      1.174568   -0.047831    0.052608
  H     -2.042286    0.427951    0.327736
  H     -0.157611    1.556218   -0.206146
  H      1.254815   -1.199290    0.205267
  H      2.141317    0.522935    0.061593

 Total Charge           Charge          ....    0
 Multiplicity           Mult            ....    1
 Number of Electrons    NEL             ....   30
 Basis Dimension        Dim             ....   24

ORBITAL ENERGIES
----------------

  NO   OCC          E(Eh)            E(eV)
   0   2.0000     -20.347863      -553.6935
   1   2.0000     -11.288100      -307.1648
   2   2.0000     -11.202032      -304.8228
   3   2.0000     -11.194560      -304.6195
   4   2.0000      -1.384513       -37.6745
   5   2.0000      -1.111807       -30.2538
   6   2.0000      -0.908712       -24.7273
   7   2.0000      -0.721697       -19.6384
   8   2.0000      -0.706534       -19.2258
   9   2.0000      -0.620327       -16.8800
  10   2.0000      -0.589657       -16.0454
  11   2.0000      -0.537075       -14.6145
  12   2.0000      -0.514649       -14.0043
  13   2.0000      -0.406521       -11.0620
  14   2.0000      -0.395995       -10.7756
  15   0.0000       0.128697         3.5020
  16   0.0000       0.328458         8.9378
  17   0.0000       0.514792        14.0082
  18   0.0000       0.580256        15.7896
  19   0.0000       0.625815        17.0293

MULLIKEN ATOMIC CHARGES
-----------------------
   0 C :    0.169817
   1 O :   -0.360056
   2 C :   -0.214227
   3 C :   -0.181537
   4 H :    0.124247
   5 H :    0.150359
   6 H :    0.161848
   7 H :    0.149549
Sum of atomic charges:   -0.0000000

LOEWDIN ATOMIC CHARGES
----------------------
   0 C :    0.148273
   1 O :   -0.273605
   2 C :   -0.165534
   3 C :   -0.089258
   4 H :    0.069941
   5 H :    0.097946
   6 H :    0.112462
   7 H :    0.099776

  Mayer bond orders larger than 0.100000
B(  0-C ,  1-O ) :   1.8731 B(  0-C ,  2-C ) :   1.0863 B(  0-C ,  4-H ) :   0.9104
B(  2-C ,  3-C ) :   1.9065 B(  2-C ,  5-H ) :   0.9474 B(  3-C ,  6-H ) :   0.9535
B(  3-C ,  7-H ) :   0.9620

-----------------------------------------------------------------------------
         ABSORPTION SPECTRUM VIA TRANSITION ELECTRIC DIPOLE MOMENTS
-----------------------------------------------------------------------------
State   Energy    Wavelength  fosc         T2        TX        TY        TZ
        (cm-1)      (nm)                 (au**2)    (au)      (au)      (au)
-----------------------------------------------------------------------------
   1   31582.9    316.6   0.000202225   0.00211   0.04328  -0.00394   0.01481

Dispersion correction           -0.026373057
FINAL SINGLE POINT ENERGY      -189.316515911397

DIPOLE MOMENT
-------------
                                X             Y             Z
Electronic contribution:     -1.80138      -1.61483      -0.42947
Nuclear contribution   :      2.35591       2.54606       0.67855
                        -----------------------------------------
Total Dipole Moment    :      0.55453       0.93123       0.24908
                        -----------------------------------------
Magnitude (a.u.)       :      1.11208
Magnitude (Debye)      :      2.82669

Rotational constants in cm-1:     0.802507     0.217688     0.173329
Rotational constants in MHz : 24058.569439  6526.135699  5196.258908

                             ****ORCA TERMINATED NORMALLY****
TOTAL RUN TIME: 0 days 0 hours 0 minutes 10 seconds 563 msec
