                         Program Version 5.0.3 -  RELEASE  -
|  1> ! HF-3c
|  2> !TightSCF
|  3> %scf
|  4>  ConvForced true
|  5>  convergence tight
|  6>  MaxIter 500
|  7> end
|  8>
|  9> %tddft
| 10>  nroots 1
| 11> end
| 12>
| 13> # 	8695
| 14> * xyz 0 1
| 15> 		C   -1.165524  -0.449312  -0.062886
| 16> 		O   -2.051781  -0.685376  -0.790825
| 17> 		C    0.047680   0.367360  -0.390651
| 18> 		C    1.152446   0.159580   0.201320
| 19> 		H   -1.321281  -0.697064   1.009466
| 20> 		H   -0.078295   1.159255  -1.119873
| 21> 		H    1.297002  -0.654909   1.040789
| 22> 		H    2.065857   0.776305   0.120045
| 23> *
| 24>
| 25>                          ****END OF INPUT****

CARTESIAN COORDINATES (ANGSTROEM)
---------------------------------
  C     -1.165524   -0.449312   -0.062886
  O     -2.051781   -0.685376   -0.790825
  C      0.047680    0.367360   -0.390651
  C      1.152446    0.159580    0.201320
  H     -1.321281   -0.697064    1.009466
  H     -0.078295    1.159255   -1.119873
  H      1.297002   -0.654909    1.040789
  H      2.065857    0.776305    0.120045

 Total Charge           Charge          ....    0
 Multiplicity           Mult            ....    1
 Number of Electrons    NEL             ....   30
 Basis Dimension        Dim             ....   24

ORBITAL ENERGIES
----------------

  NO   OCC          E(Eh)            E(eV)
   0   2.0000     -20.381257      -554.6022
   1   2.0000     -11.306293      -307.6599
   2   2.0000     -11.194674      -304.6226
   3   2.0000     -11.190843      -304.5183
   4   2.0000      -1.434741       -39.0413
   5   2.0000      -1.097623       -29.8678
   6   2.0000      -0.868375       -23.6297
   7   2.0000      -0.775300       -21.0970
   8   2.0000      -0.676388       -18.4055
   9   2.0000      -0.657010       -17.8782
  10   2.0000      -0.602494       -16.3947
  11   2.0000      -0.544436       -14.8148
  12   2.0000      -0.523843       -14.2545
  13   2.0000      -0.420766       -11.4496
  14   2.0000      -0.405717       -11.0401
  15   0.0000       0.160610         4.3704
  16   0.0000       0.299101         8.1389
  17   0.0000       0.501385        13.6434
  18   0.0000       0.601794        16.3756
  19   0.0000       0.629318        17.1246

MULLIKEN ATOMIC CHARGES
-----------------------
   0 C :    0.183853
   1 O :   -0.353759
   2 C :   -0.186961
   3 C :   -0.220090
   4 H :    0.133884
   5 H :    0.159149
   6 H :    0.139836
   7 H :    0.144088
Sum of atomic charges:    0.0000000

LOEWDIN ATOMIC CHARGES
----------------------
   0 C :    0.151803
   1 O :   -0.244191
   2 C :   -0.139031
   3 C :   -0.132395
   4 H :    0.069617
   5 H :    0.103949
   6 H :    0.096161
   7 H :    0.094087

  Mayer bond orders larger than 0.100000
B(  0-C ,  1-O ) :   1.9334 B(  0-C ,  2-C ) :   0.9880 B(  0-C ,  4-H ) :   0.9191
B(  2-C ,  3-C ) :   1.9893 B(  2-C ,  5-H ) :   0.9474 B(  3-C ,  6-H ) :   0.9577
B(  3-C ,  7-H ) :   0.9605

-----------------------------------------------------------------------------
         ABSORPTION SPECTRUM VIA TRANSITION ELECTRIC DIPOLE MOMENTS
-----------------------------------------------------------------------------
State   Energy    Wavelength  fosc         T2        TX        TY        TZ
        (cm-1)      (nm)                 (au**2)    (au)      (au)      (au)
-----------------------------------------------------------------------------
   1   35386.9    282.6   0.000085584   0.00080   0.02168   0.01000  -0.01505

Dispersion correction           -0.025411288
FINAL SINGLE POINT ENERGY      -189.318271708415

DIPOLE MOMENT
-------------
                                X             Y             Z
Electronic contribution:     -2.97029      -0.90283      -1.31460
Nuclear contribution   :      3.85658       1.17205       1.95645
                        -----------------------------------------
Total Dipole Moment    :      0.88629       0.26922       0.64185
                        -----------------------------------------
Magnitude (a.u.)       :      1.12692
Magnitude (Debye)      :      2.86441

Rotational constants in cm-1:     1.499301     0.158856     0.147026
Rotational constants in MHz : 44947.917022  4762.374435  4407.721165

                             ****ORCA TERMINATED NORMALLY****
TOTAL RUN TIME: 0 days 0 hours 0 minutes 12 seconds 614 msec
