                         Program Version 5.0.3 -  RELEASE  -
|  1> ! B3LYP cc-pVDZ
|  2> !TightSCF
|  3> %scf
|  4>  ConvForced true
|  5>  convergence tight
|  6>  MaxIter 500
|  7> end
|  8>
|  9> %tddft
| 10>  nroots 1
| 11> end
| 12>
| 13> # 	20489
| 14> * xyz 0 1
| 15> 		C   -0.602971  -0.409398   0.053245
| 16> 		O   -0.620046  -1.684879  -0.028109
| 17> 		C    0.625416   0.371148  -0.025036
| 18> 		C    1.891054  -0.052049   0.030277
| 19> 		H   -1.573363   0.030141   0.002379
| 20> 		H    0.638591   1.579944  -0.156180
| 21> 		H    2.153662  -1.154685  -0.002896
| 22> 		H    2.821812   0.616434  -0.107180
| 23> *
| 24>
| 25>                          ****END OF INPUT****

CARTESIAN COORDINATES (ANGSTROEM)
---------------------------------
  C     -0.602971   -0.409398    0.053245
  O     -0.620046   -1.684879   -0.028109
  C      0.625416    0.371148   -0.025036
  C      1.891054   -0.052049    0.030277
  H     -1.573363    0.030141    0.002379
  H      0.638591    1.579944   -0.156180
  H      2.153662   -1.154685   -0.002896
  H      2.821812    0.616434   -0.107180

 Total Charge           Charge          ....    0
 Multiplicity           Mult            ....    1
 Number of Electrons    NEL             ....   30
 Basis Dimension        Dim             ....   76

ORBITAL ENERGIES
----------------

  NO   OCC          E(Eh)            E(eV)
   0   2.0000     -19.137365      -520.7542
   1   2.0000     -10.279245      -279.7125
   2   2.0000     -10.226528      -278.2780
   3   2.0000     -10.221378      -278.1378
   4   2.0000      -1.011477       -27.5237
   5   2.0000      -0.793870       -21.6023
   6   2.0000      -0.662977       -18.0405
   7   2.0000      -0.545490       -14.8435
   8   2.0000      -0.500921       -13.6307
   9   2.0000      -0.442550       -12.0424
  10   2.0000      -0.418421       -11.3858
  11   2.0000      -0.384075       -10.4512
  12   2.0000      -0.355810        -9.6821
  13   2.0000      -0.287991        -7.8366
  14   2.0000      -0.256183        -6.9711
  15   0.0000      -0.083187        -2.2636
  16   0.0000       0.044003         1.1974
  17   0.0000       0.054065         1.4712
  18   0.0000       0.088027         2.3953
  19   0.0000       0.112536         3.0623

MULLIKEN ATOMIC CHARGES
-----------------------
   0 C :    0.221976
   1 O :   -0.242216
   2 C :   -0.119889
   3 C :    0.016833
   4 H :   -0.004586
   5 H :    0.022441
   6 H :    0.050896
   7 H :    0.054545
Sum of atomic charges:   -0.0000000

LOEWDIN ATOMIC CHARGES
----------------------
   0 C :    0.005083
   1 O :   -0.062253
   2 C :   -0.096094
   3 C :    0.013894
   4 H :    0.002277
   5 H :    0.051417
   6 H :    0.038829
   7 H :    0.046848

  Mayer bond orders larger than 0.100000
B(  0-C ,  1-O ) :   2.1083 B(  0-C ,  2-C ) :   1.0560 B(  0-C ,  4-H ) :   0.9428
B(  1-O ,  3-C ) :   0.1054 B(  2-C ,  3-C ) :   1.9517 B(  2-C ,  5-H ) :   0.9243
B(  3-C ,  6-H ) :   0.9397 B(  3-C ,  7-H ) :   0.9395

-----------------------------------------------------------------------------
         ABSORPTION SPECTRUM VIA TRANSITION ELECTRIC DIPOLE MOMENTS
-----------------------------------------------------------------------------
State   Energy    Wavelength  fosc         T2        TX        TY        TZ
        (cm-1)      (nm)                 (au**2)    (au)      (au)      (au)
-----------------------------------------------------------------------------
   1   24507.9    408.0   0.000048822   0.00066  -0.00068  -0.00289   0.02544

FINAL SINGLE POINT ENERGY      -191.672473808862

DIPOLE MOMENT
-------------
                                X             Y             Z
Electronic contribution:     -2.18500      -1.82019       0.22873
Nuclear contribution   :      2.63019       2.79240      -0.24709
                        -----------------------------------------
Total Dipole Moment    :      0.44519       0.97221      -0.01836
                        -----------------------------------------
Magnitude (a.u.)       :      1.06945
Magnitude (Debye)      :      2.71833

Rotational constants in cm-1:     0.778009     0.192722     0.154748
Rotational constants in MHz : 23324.121581  5777.668749  4639.221680

                             ****ORCA TERMINATED NORMALLY****
TOTAL RUN TIME: 0 days 0 hours 3 minutes 21 seconds 916 msec
