                         Program Version 5.0.3 -  RELEASE  -
|  1> ! B3LYP cc-pVDZ
|  2> !TightSCF
|  3> %scf
|  4>  ConvForced true
|  5>  convergence tight
|  6>  MaxIter 500
|  7> end
|  8>
|  9> %tddft
| 10>  nroots 1
| 11> end
| 12>
| 13> # 	6596
| 14> * xyz 0 1
| 15> 		C   -1.241433  -0.381844   0.078299
| 16> 		O   -2.000637  -0.761767   0.833328
| 17> 		C    0.069794   0.360070   0.318232
| 18> 		C    1.247897   0.096345  -0.264755
| 19> 		H   -1.404068  -0.534227  -1.056895
| 20> 		H   -0.087411   1.125331   0.933362
| 21> 		H    1.324108  -0.682803  -0.882241
| 22> 		H    2.095644   0.705452   0.000872
| 23> *
| 24>
| 25>                          ****END OF INPUT****

CARTESIAN COORDINATES (ANGSTROEM)
---------------------------------
  C     -1.241433   -0.381844    0.078299
  O     -2.000637   -0.761767    0.833328
  C      0.069794    0.360070    0.318232
  C      1.247897    0.096345   -0.264755
  H     -1.404068   -0.534227   -1.056895
  H     -0.087411    1.125331    0.933362
  H      1.324108   -0.682803   -0.882241
  H      2.095644    0.705452    0.000872

 Total Charge           Charge          ....    0
 Multiplicity           Mult            ....    1
 Number of Electrons    NEL             ....   30
 Basis Dimension        Dim             ....   76

ORBITAL ENERGIES
----------------

  NO   OCC          E(Eh)            E(eV)
   0   2.0000     -19.147983      -521.0431
   1   2.0000     -10.278190      -279.6838
   2   2.0000     -10.200887      -277.5802
   3   2.0000     -10.196338      -277.4565
   4   2.0000      -1.096604       -29.8401
   5   2.0000      -0.797793       -21.7091
   6   2.0000      -0.650376       -17.6976
   7   2.0000      -0.569275       -15.4908
   8   2.0000      -0.489752       -13.3268
   9   2.0000      -0.474953       -12.9241
  10   2.0000      -0.448510       -12.2046
  11   2.0000      -0.418057       -11.3759
  12   2.0000      -0.399768       -10.8782
  13   2.0000      -0.289923        -7.8892
  14   2.0000      -0.251031        -6.8309
  15   0.0000      -0.046225        -1.2579
  16   0.0000       0.030380         0.8267
  17   0.0000       0.086901         2.3647
  18   0.0000       0.100575         2.7368
  19   0.0000       0.125202         3.4069

MULLIKEN ATOMIC CHARGES
-----------------------
   0 C :    0.136147
   1 O :   -0.112053
   2 C :   -0.078955
   3 C :    0.122569
   4 H :   -0.042795
   5 H :   -0.033347
   6 H :   -0.020343
   7 H :    0.028778
Sum of atomic charges:    0.0000000

LOEWDIN ATOMIC CHARGES
----------------------
   0 C :   -0.073630
   1 O :    0.083346
   2 C :   -0.037283
   3 C :    0.009655
   4 H :   -0.022166
   5 H :    0.002857
   6 H :    0.002002
   7 H :    0.035219

  Mayer bond orders larger than 0.100000
B(  0-C ,  1-O ) :   2.3018 B(  0-C ,  2-C ) :   0.9827 B(  0-C ,  4-H ) :   0.8905
B(  2-C ,  3-C ) :   2.0271 B(  2-C ,  5-H ) :   0.9486 B(  3-C ,  6-H ) :   0.9368
B(  3-C ,  7-H ) :   0.9389

-----------------------------------------------------------------------------
         ABSORPTION SPECTRUM VIA TRANSITION ELECTRIC DIPOLE MOMENTS
-----------------------------------------------------------------------------
State   Energy    Wavelength  fosc         T2        TX        TY        TZ
        (cm-1)      (nm)                 (au**2)    (au)      (au)      (au)
-----------------------------------------------------------------------------
   1   32655.4    306.2   0.000534865   0.00539  -0.04697  -0.03748  -0.04221

FINAL SINGLE POINT ENERGY      -191.627036882743

DIPOLE MOMENT
-------------
                                X             Y             Z
Electronic contribution:     -3.02574      -0.93163       1.47762
Nuclear contribution   :      3.73825       1.28178      -1.86468
                        -----------------------------------------
Total Dipole Moment    :      0.71251       0.35014      -0.38706
                        -----------------------------------------
Magnitude (a.u.)       :      0.88323
Magnitude (Debye)      :      2.24499

Rotational constants in cm-1:     1.507261     0.150796     0.143718
Rotational constants in MHz : 45186.543855  4520.763209  4308.558025

                             ****ORCA TERMINATED NORMALLY****
TOTAL RUN TIME: 0 days 0 hours 3 minutes 25 seconds 594 msec
