                         Program Version 5.0.3 -  RELEASE  -
|  1> ! B3LYP cc-pVDZ
|  2> !TightSCF
|  3> %scf
|  4>  ConvForced true
|  5>  convergence tight
|  6>  MaxIter 500
|  7> end
|  8>
|  9> %tddft
| 10>  nroots 1
| 11> end
| 12>
| 13> # 	25104
| 14> * xyz 0 1
| 15> 		C   -0.582699  -0.430384   0.049162
| 16> 		O   -0.630033  -1.655561  -0.021630
| 17> 		C    0.711578   0.343280  -0.078613
| 18> 		C    1.838248  -0.044007   0.016047
| 19> 		H   -1.595483   0.220377   0.224562
| 20> 		H    0.406410   1.386071   0.010930
| 21> 		H    2.053879  -1.086518   0.043455
| 22> 		H    2.655734   0.589272   0.232501
| 23> *
| 24>
| 25>                          ****END OF INPUT****

CARTESIAN COORDINATES (ANGSTROEM)
---------------------------------
  C     -0.582699   -0.430384    0.049162
  O     -0.630033   -1.655561   -0.021630
  C      0.711578    0.343280   -0.078613
  C      1.838248   -0.044007    0.016047
  H     -1.595483    0.220377    0.224562
  H      0.406410    1.386071    0.010930
  H      2.053879   -1.086518    0.043455
  H      2.655734    0.589272    0.232501

 Total Charge           Charge          ....    0
 Multiplicity           Mult            ....    1
 Number of Electrons    NEL             ....   30
 Basis Dimension        Dim             ....   76

ORBITAL ENERGIES
----------------

  NO   OCC          E(Eh)            E(eV)
   0   2.0000     -19.144616      -520.9515
   1   2.0000     -10.287646      -279.9411
   2   2.0000     -10.191314      -277.3198
   3   2.0000     -10.188126      -277.2330
   4   2.0000      -1.040021       -28.3004
   5   2.0000      -0.824561       -22.4375
   6   2.0000      -0.656098       -17.8533
   7   2.0000      -0.536698       -14.6043
   8   2.0000      -0.511050       -13.9064
   9   2.0000      -0.461953       -12.5704
  10   2.0000      -0.431870       -11.7518
  11   2.0000      -0.398467       -10.8428
  12   2.0000      -0.363499        -9.8913
  13   2.0000      -0.310627        -8.4526
  14   2.0000      -0.256307        -6.9745
  15   0.0000      -0.061541        -1.6746
  16   0.0000       0.051656         1.4056
  17   0.0000       0.072895         1.9836
  18   0.0000       0.094820         2.5802
  19   0.0000       0.118498         3.2245

MULLIKEN ATOMIC CHARGES
-----------------------
   0 C :    0.121134
   1 O :   -0.192116
   2 C :   -0.101252
   3 C :    0.172959
   4 H :    0.002918
   5 H :   -0.030907
   6 H :    0.010582
   7 H :    0.016683
Sum of atomic charges:    0.0000000

LOEWDIN ATOMIC CHARGES
----------------------
   0 C :   -0.015910
   1 O :   -0.016002
   2 C :   -0.089151
   3 C :    0.012928
   4 H :    0.007557
   5 H :    0.029054
   6 H :    0.034978
   7 H :    0.036546

  Mayer bond orders larger than 0.100000
B(  0-C ,  1-O ) :   2.1925 B(  0-C ,  2-C ) :   1.0197 B(  0-C ,  4-H ) :   0.8896
B(  2-C ,  3-C ) :   2.0619 B(  2-C ,  5-H ) :   0.9312 B(  3-C ,  6-H ) :   0.9000
B(  3-C ,  7-H ) :   0.9137

-----------------------------------------------------------------------------
         ABSORPTION SPECTRUM VIA TRANSITION ELECTRIC DIPOLE MOMENTS
-----------------------------------------------------------------------------
State   Energy    Wavelength  fosc         T2        TX        TY        TZ
        (cm-1)      (nm)                 (au**2)    (au)      (au)      (au)
-----------------------------------------------------------------------------
   1   29040.5    344.3   0.000268481   0.00304  -0.04211  -0.00195  -0.03559

FINAL SINGLE POINT ENERGY      -191.634019988733

DIPOLE MOMENT
-------------
                                X             Y             Z
Electronic contribution:     -1.73532      -1.96527      -0.36012
Nuclear contribution   :      2.14472       2.82678       0.47894
                        -----------------------------------------
Total Dipole Moment    :      0.40940       0.86151       0.11882
                        -----------------------------------------
Magnitude (a.u.)       :      0.96121
Magnitude (Debye)      :      2.44320

Rotational constants in cm-1:     0.855765     0.198766     0.161982
Rotational constants in MHz : 25655.190056  5958.859719  4856.099906

                             ****ORCA TERMINATED NORMALLY****
TOTAL RUN TIME: 0 days 0 hours 2 minutes 54 seconds 937 msec
