                         Program Version 5.0.3 -  RELEASE  -
|  1> ! B3LYP cc-pVDZ
|  2> !TightSCF
|  3> %scf
|  4>  ConvForced true
|  5>  convergence tight
|  6>  MaxIter 500
|  7> end
|  8>
|  9> %tddft
| 10>  nroots 1
| 11> end
| 12>
| 13> # 	22108
| 14> * xyz 0 1
| 15> 		C   -0.612329  -0.413197  -0.003778
| 16> 		O   -0.576819  -1.659373  -0.009837
| 17> 		C    0.607699   0.437729   0.046938
| 18> 		C    1.889014  -0.130665  -0.025846
| 19> 		H   -1.589505  -0.009433   0.019126
| 20> 		H    0.487470   1.472173  -0.216617
| 21> 		H    1.946965  -1.145610   0.176954
| 22> 		H    2.805903   0.520421  -0.044194
| 23> *
| 24>
| 25>                          ****END OF INPUT****

CARTESIAN COORDINATES (ANGSTROEM)
---------------------------------
  C     -0.612329   -0.413197   -0.003778
  O     -0.576819   -1.659373   -0.009837
  C      0.607699    0.437729    0.046938
  C      1.889014   -0.130665   -0.025846
  H     -1.589505   -0.009433    0.019126
  H      0.487470    1.472173   -0.216617
  H      1.946965   -1.145610    0.176954
  H      2.805903    0.520421   -0.044194

 Total Charge           Charge          ....    0
 Multiplicity           Mult            ....    1
 Number of Electrons    NEL             ....   30
 Basis Dimension        Dim             ....   76

ORBITAL ENERGIES
----------------

  NO   OCC          E(Eh)            E(eV)
   0   2.0000     -19.132747      -520.6285
   1   2.0000     -10.271896      -279.5125
   2   2.0000     -10.222075      -278.1568
   3   2.0000     -10.213279      -277.9174
   4   2.0000      -1.023820       -27.8595
   5   2.0000      -0.783913       -21.3314
   6   2.0000      -0.659818       -17.9546
   7   2.0000      -0.554416       -15.0864
   8   2.0000      -0.507115       -13.7993
   9   2.0000      -0.437365       -11.9013
  10   2.0000      -0.421404       -11.4670
  11   2.0000      -0.389688       -10.6039
  12   2.0000      -0.381691       -10.3863
  13   2.0000      -0.279773        -7.6130
  14   2.0000      -0.252685        -6.8759
  15   0.0000      -0.081063        -2.2058
  16   0.0000       0.043261         1.1772
  17   0.0000       0.069950         1.9034
  18   0.0000       0.099039         2.6950
  19   0.0000       0.123751         3.3674

MULLIKEN ATOMIC CHARGES
-----------------------
   0 C :    0.208715
   1 O :   -0.228306
   2 C :   -0.115543
   3 C :    0.074871
   4 H :   -0.018465
   5 H :   -0.000798
   6 H :    0.028708
   7 H :    0.050819
Sum of atomic charges:    0.0000000

LOEWDIN ATOMIC CHARGES
----------------------
   0 C :   -0.008663
   1 O :   -0.043107
   2 C :   -0.071313
   3 C :    0.049309
   4 H :   -0.005935
   5 H :    0.022167
   6 H :    0.015696
   7 H :    0.041847

  Mayer bond orders larger than 0.100000
B(  0-C ,  1-O ) :   2.1295 B(  0-C ,  2-C ) :   1.0623 B(  0-C ,  4-H ) :   0.9419
B(  2-C ,  3-C ) :   1.9309 B(  2-C ,  5-H ) :   0.9462 B(  3-C ,  6-H ) :   0.9404
B(  3-C ,  7-H ) :   0.9494

-----------------------------------------------------------------------------
         ABSORPTION SPECTRUM VIA TRANSITION ELECTRIC DIPOLE MOMENTS
-----------------------------------------------------------------------------
State   Energy    Wavelength  fosc         T2        TX        TY        TZ
        (cm-1)      (nm)                 (au**2)    (au)      (au)      (au)
-----------------------------------------------------------------------------
   1   25029.6    399.5   0.000571551   0.00752   0.08213   0.01807  -0.02112

FINAL SINGLE POINT ENERGY      -191.679654343468

DIPOLE MOMENT
-------------
                                X             Y             Z
Electronic contribution:     -1.88211      -1.62795       0.03876
Nuclear contribution   :      2.26849       2.57420      -0.05989
                        -----------------------------------------
Total Dipole Moment    :      0.38639       0.94626      -0.02113
                        -----------------------------------------
Magnitude (a.u.)       :      1.02232
Magnitude (Debye)      :      2.59853

Rotational constants in cm-1:     0.730981     0.203004     0.159233
Rotational constants in MHz : 21914.246821  6085.920361  4773.687572

                             ****ORCA TERMINATED NORMALLY****
TOTAL RUN TIME: 0 days 0 hours 2 minutes 58 seconds 130 msec
