                         Program Version 5.0.3 -  RELEASE  -
|  1> ! HF-3c
|  2> !TightSCF
|  3> %scf
|  4>  ConvForced true
|  5>  convergence tight
|  6>  MaxIter 500
|  7> end
|  8>
|  9> %tddft
| 10>  nroots 1
| 11> end
| 12>
| 13> # 	14951
| 14> * xyz 0 1
| 15> 		C   -1.168127  -0.320329   0.013692
| 16> 		O   -1.791764  -0.894219   0.867401
| 17> 		C    0.003238   0.482553   0.264465
| 18> 		C    1.264819   0.023027  -0.149178
| 19> 		H   -1.512091  -0.462899  -1.089299
| 20> 		H   -0.058109   1.329070   0.835711
| 21> 		H    1.330370  -0.814153  -0.710073
| 22> 		H    1.994700   0.632875   0.039460
| 23> *
| 24>
| 25>                          ****END OF INPUT****

CARTESIAN COORDINATES (ANGSTROEM)
---------------------------------
  C     -1.168127   -0.320329    0.013692
  O     -1.791764   -0.894219    0.867401
  C      0.003238    0.482553    0.264465
  C      1.264819    0.023027   -0.149178
  H     -1.512091   -0.462899   -1.089299
  H     -0.058109    1.329070    0.835711
  H      1.330370   -0.814153   -0.710073
  H      1.994700    0.632875    0.039460

 Total Charge           Charge          ....    0
 Multiplicity           Mult            ....    1
 Number of Electrons    NEL             ....   30
 Basis Dimension        Dim             ....   24

ORBITAL ENERGIES
----------------

  NO   OCC          E(Eh)            E(eV)
   0   2.0000     -20.375734      -554.4519
   1   2.0000     -11.303602      -307.5867
   2   2.0000     -11.201751      -304.8151
   3   2.0000     -11.192279      -304.5574
   4   2.0000      -1.413798       -38.4714
   5   2.0000      -1.086462       -29.5641
   6   2.0000      -0.905113       -24.6294
   7   2.0000      -0.781865       -21.2756
   8   2.0000      -0.696696       -18.9581
   9   2.0000      -0.650226       -17.6935
  10   2.0000      -0.605350       -16.4724
  11   2.0000      -0.591627       -16.0990
  12   2.0000      -0.510487       -13.8911
  13   2.0000      -0.416643       -11.3374
  14   2.0000      -0.391619       -10.6565
  15   0.0000       0.146339         3.9821
  16   0.0000       0.223412         6.0793
  17   0.0000       0.568055        15.4576
  18   0.0000       0.699603        19.0372
  19   0.0000       0.713487        19.4150

MULLIKEN ATOMIC CHARGES
-----------------------
   0 C :    0.169992
   1 O :   -0.344155
   2 C :   -0.155273
   3 C :   -0.259371
   4 H :    0.139318
   5 H :    0.156899
   6 H :    0.146191
   7 H :    0.146400
Sum of atomic charges:    0.0000000

LOEWDIN ATOMIC CHARGES
----------------------
   0 C :    0.146778
   1 O :   -0.247288
   2 C :   -0.102515
   3 C :   -0.151261
   4 H :    0.079648
   5 H :    0.097219
   6 H :    0.090321
   7 H :    0.087097

  Mayer bond orders larger than 0.100000
B(  0-C ,  1-O ) :   1.9334 B(  0-C ,  2-C ) :   1.0160 B(  0-C ,  4-H ) :   0.9117
B(  2-C ,  3-C ) :   1.9642 B(  2-C ,  5-H ) :   0.9557 B(  3-C ,  6-H ) :   0.9708
B(  3-C ,  7-H ) :   0.9703

-----------------------------------------------------------------------------
         ABSORPTION SPECTRUM VIA TRANSITION ELECTRIC DIPOLE MOMENTS
-----------------------------------------------------------------------------
State   Energy    Wavelength  fosc         T2        TX        TY        TZ
        (cm-1)      (nm)                 (au**2)    (au)      (au)      (au)
-----------------------------------------------------------------------------
   1   34277.2    291.7   0.000082480   0.00079  -0.02125   0.01003   0.01550

Dispersion correction           -0.025543064
FINAL SINGLE POINT ENERGY      -189.293850518228

DIPOLE MOMENT
-------------
                                X             Y             Z
Electronic contribution:     -2.76860      -0.92507       1.17196
Nuclear contribution   :      3.34673       1.39481      -1.82831
                        -----------------------------------------
Total Dipole Moment    :      0.57814       0.46974      -0.65635
                        -----------------------------------------
Magnitude (a.u.)       :      0.99282
Magnitude (Debye)      :      2.52354

Rotational constants in cm-1:     1.103438     0.162586     0.158427
Rotational constants in MHz : 33080.237813  4874.213084  4749.518088

                             ****ORCA TERMINATED NORMALLY****
TOTAL RUN TIME: 0 days 0 hours 0 minutes 11 seconds 697 msec
