                         Program Version 5.0.3 -  RELEASE  -
|  1> ! B3LYP cc-pVDZ
|  2> !TightSCF
|  3> %scf
|  4>  ConvForced true
|  5>  convergence tight
|  6>  MaxIter 500
|  7> end
|  8>
|  9> %tddft
| 10>  nroots 1
| 11> end
| 12>
| 13> # 	29360
| 14> * xyz 0 1
| 15> 		C   -0.631161  -0.403464  -0.035725
| 16> 		O   -0.562979  -1.593657   0.013680
| 17> 		C    0.665369   0.344739   0.041398
| 18> 		C    1.845182  -0.130652  -0.039709
| 19> 		H   -1.577569   0.010967   0.049941
| 20> 		H    0.460459   1.336294  -0.080983
| 21> 		H    1.978840  -1.130965   0.047547
| 22> 		H    2.609963   0.585726   0.176951
| 23> *
| 24>
| 25>                          ****END OF INPUT****

CARTESIAN COORDINATES (ANGSTROEM)
---------------------------------
  C     -0.631161   -0.403464   -0.035725
  O     -0.562979   -1.593657    0.013680
  C      0.665369    0.344739    0.041398
  C      1.845182   -0.130652   -0.039709
  H     -1.577569    0.010967    0.049941
  H      0.460459    1.336294   -0.080983
  H      1.978840   -1.130965    0.047547
  H      2.609963    0.585726    0.176951

 Total Charge           Charge          ....    0
 Multiplicity           Mult            ....    1
 Number of Electrons    NEL             ....   30
 Basis Dimension        Dim             ....   76

ORBITAL ENERGIES
----------------

  NO   OCC          E(Eh)            E(eV)
   0   2.0000     -19.131539      -520.5956
   1   2.0000     -10.263275      -279.2779
   2   2.0000     -10.189149      -277.2608
   3   2.0000     -10.185265      -277.1552
   4   2.0000      -1.055254       -28.7149
   5   2.0000      -0.805558       -21.9203
   6   2.0000      -0.661033       -17.9876
   7   2.0000      -0.557872       -15.1805
   8   2.0000      -0.520094       -14.1525
   9   2.0000      -0.450012       -12.2454
  10   2.0000      -0.433699       -11.8016
  11   2.0000      -0.404241       -11.0000
  12   2.0000      -0.377714       -10.2781
  13   2.0000      -0.293315        -7.9815
  14   2.0000      -0.249001        -6.7757
  15   0.0000      -0.062054        -1.6886
  16   0.0000       0.064336         1.7507
  17   0.0000       0.078385         2.1330
  18   0.0000       0.106267         2.8917
  19   0.0000       0.130764         3.5583

MULLIKEN ATOMIC CHARGES
-----------------------
   0 C :    0.189823
   1 O :   -0.182661
   2 C :   -0.097383
   3 C :    0.157914
   4 H :   -0.037681
   5 H :   -0.047985
   6 H :   -0.006307
   7 H :    0.024280
Sum of atomic charges:   -0.0000000

LOEWDIN ATOMIC CHARGES
----------------------
   0 C :   -0.025486
   1 O :    0.014167
   2 C :   -0.063255
   3 C :    0.027386
   4 H :   -0.011993
   5 H :    0.006981
   6 H :    0.012856
   7 H :    0.039343

  Mayer bond orders larger than 0.100000
B(  0-C ,  1-O ) :   2.1954 B(  0-C ,  2-C ) :   1.0480 B(  0-C ,  4-H ) :   0.9356
B(  2-C ,  3-C ) :   2.0277 B(  2-C ,  5-H ) :   0.9385 B(  3-C ,  6-H ) :   0.9197
B(  3-C ,  7-H ) :   0.9253

-----------------------------------------------------------------------------
         ABSORPTION SPECTRUM VIA TRANSITION ELECTRIC DIPOLE MOMENTS
-----------------------------------------------------------------------------
State   Energy    Wavelength  fosc         T2        TX        TY        TZ
        (cm-1)      (nm)                 (au**2)    (au)      (au)      (au)
-----------------------------------------------------------------------------
   1   27557.4    362.9   0.000526406   0.00629   0.07330   0.01277  -0.02743

FINAL SINGLE POINT ENERGY      -191.647185967331

DIPOLE MOMENT
-------------
                                X             Y             Z
Electronic contribution:     -1.91524      -1.68793      -0.16430
Nuclear contribution   :      2.10192       2.54079       0.18136
                        -----------------------------------------
Total Dipole Moment    :      0.18668       0.85285       0.01706
                        -----------------------------------------
Magnitude (a.u.)       :      0.87321
Magnitude (Debye)      :      2.21953

Rotational constants in cm-1:     0.832487     0.213257     0.170113
Rotational constants in MHz : 24957.335534  6393.277001  5099.858761

                             ****ORCA TERMINATED NORMALLY****
TOTAL RUN TIME: 0 days 0 hours 3 minutes 20 seconds 880 msec
