                         Program Version 5.0.3 -  RELEASE  -
|  1> ! HF-3c
|  2> !TightSCF
|  3> %scf
|  4>  ConvForced true
|  5>  convergence tight
|  6>  MaxIter 500
|  7> end
|  8>
|  9> %tddft
| 10>  nroots 1
| 11> end
| 12>
| 13> # 	26704
| 14> * xyz 0 1
| 15> 		C   -0.506208  -0.400889   0.002386
| 16> 		O   -0.629795  -1.663131  -0.010347
| 17> 		C    0.634692   0.408020  -0.041938
| 18> 		C    1.830264  -0.108912  -0.001092
| 19> 		H   -1.433425   0.045266   0.294175
| 20> 		H    0.351082   1.476045   0.052544
| 21> 		H    2.084716  -1.137762   0.198905
| 22> 		H    2.628587   0.488288   0.103325
| 23> *
| 24>
| 25>                          ****END OF INPUT****

CARTESIAN COORDINATES (ANGSTROEM)
---------------------------------
  C     -0.506208   -0.400889    0.002386
  O     -0.629795   -1.663131   -0.010347
  C      0.634692    0.408020   -0.041938
  C      1.830264   -0.108912   -0.001092
  H     -1.433425    0.045266    0.294175
  H      0.351082    1.476045    0.052544
  H      2.084716   -1.137762    0.198905
  H      2.628587    0.488288    0.103325

 Total Charge           Charge          ....    0
 Multiplicity           Mult            ....    1
 Number of Electrons    NEL             ....   30
 Basis Dimension        Dim             ....   24

ORBITAL ENERGIES
----------------

  NO   OCC          E(Eh)            E(eV)
   0   2.0000     -20.342290      -553.5419
   1   2.0000     -11.276738      -306.8557
   2   2.0000     -11.210367      -305.0496
   3   2.0000     -11.208915      -305.0101
   4   2.0000      -1.357755       -36.9464
   5   2.0000      -1.111759       -30.2525
   6   2.0000      -0.926394       -25.2085
   7   2.0000      -0.758545       -20.6411
   8   2.0000      -0.711814       -19.3695
   9   2.0000      -0.638787       -17.3823
  10   2.0000      -0.588594       -16.0165
  11   2.0000      -0.531699       -14.4683
  12   2.0000      -0.529371       -14.4049
  13   2.0000      -0.415961       -11.3189
  14   2.0000      -0.396542       -10.7905
  15   0.0000       0.110438         3.0052
  16   0.0000       0.311067         8.4646
  17   0.0000       0.537175        14.6173
  18   0.0000       0.641175        17.4472
  19   0.0000       0.699223        19.0268

MULLIKEN ATOMIC CHARGES
-----------------------
   0 C :    0.130901
   1 O :   -0.337819
   2 C :   -0.180018
   3 C :   -0.222420
   4 H :    0.136201
   5 H :    0.158097
   6 H :    0.168851
   7 H :    0.146208
Sum of atomic charges:    0.0000000

LOEWDIN ATOMIC CHARGES
----------------------
   0 C :    0.128824
   1 O :   -0.263393
   2 C :   -0.127988
   3 C :   -0.113658
   4 H :    0.071497
   5 H :    0.104971
   6 H :    0.111724
   7 H :    0.088022

  Mayer bond orders larger than 0.100000
B(  0-C ,  1-O ) :   1.8695 B(  0-C ,  2-C ) :   1.0752 B(  0-C ,  4-H ) :   0.9410
B(  2-C ,  3-C ) :   1.9193 B(  2-C ,  5-H ) :   0.9501 B(  3-C ,  6-H ) :   0.9570
B(  3-C ,  7-H ) :   0.9654

-----------------------------------------------------------------------------
         ABSORPTION SPECTRUM VIA TRANSITION ELECTRIC DIPOLE MOMENTS
-----------------------------------------------------------------------------
State   Energy    Wavelength  fosc         T2        TX        TY        TZ
        (cm-1)      (nm)                 (au**2)    (au)      (au)      (au)
-----------------------------------------------------------------------------
   1   27127.1    368.6   0.000029881   0.00036   0.01345  -0.00074   0.01346

Dispersion correction           -0.026062281
FINAL SINGLE POINT ENERGY      -189.337028425398

DIPOLE MOMENT
-------------
                                X             Y             Z
Electronic contribution:     -1.81110      -1.64087      -0.45510
Nuclear contribution   :      2.24735       2.60452       0.60865
                        -----------------------------------------
Total Dipole Moment    :      0.43624       0.96365       0.15355
                        -----------------------------------------
Magnitude (a.u.)       :      1.06889
Magnitude (Debye)      :      2.71689

Rotational constants in cm-1:     0.795725     0.207939     0.165387
Rotational constants in MHz : 23855.242238  6233.846451  4958.176263

                             ****ORCA TERMINATED NORMALLY****
TOTAL RUN TIME: 0 days 0 hours 0 minutes 12 seconds 487 msec
