                         Program Version 5.0.3 -  RELEASE  -
|  1> ! B3LYP cc-pVDZ
|  2> !TightSCF
|  3> %scf
|  4>  ConvForced true
|  5>  convergence tight
|  6>  MaxIter 500
|  7> end
|  8>
|  9> %tddft
| 10>  nroots 1
| 11> end
| 12>
| 13> # 	23580
| 14> * xyz 0 1
| 15> 		C   -0.539050  -0.452292  -0.043282
| 16> 		O   -0.607857  -1.625452   0.024769
| 17> 		C    0.616128   0.416954   0.061963
| 18> 		C    1.847599  -0.127868  -0.044527
| 19> 		H   -1.474155   0.056205  -0.189523
| 20> 		H    0.400293   1.597715   0.056168
| 21> 		H    2.003049  -1.145276   0.027672
| 22> 		H    2.755075   0.488673   0.027414
| 23> *
| 24>
| 25>                          ****END OF INPUT****

CARTESIAN COORDINATES (ANGSTROEM)
---------------------------------
  C     -0.539050   -0.452292   -0.043282
  O     -0.607857   -1.625452    0.024769
  C      0.616128    0.416954    0.061963
  C      1.847599   -0.127868   -0.044527
  H     -1.474155    0.056205   -0.189523
  H      0.400293    1.597715    0.056168
  H      2.003049   -1.145276    0.027672
  H      2.755075    0.488673    0.027414

 Total Charge           Charge          ....    0
 Multiplicity           Mult            ....    1
 Number of Electrons    NEL             ....   30
 Basis Dimension        Dim             ....   76

ORBITAL ENERGIES
----------------

  NO   OCC          E(Eh)            E(eV)
   0   2.0000     -19.132825      -520.6306
   1   2.0000     -10.262944      -279.2689
   2   2.0000     -10.214879      -277.9610
   3   2.0000     -10.213277      -277.9174
   4   2.0000      -1.062204       -28.9040
   5   2.0000      -0.796940       -21.6858
   6   2.0000      -0.662887       -18.0381
   7   2.0000      -0.543448       -14.7880
   8   2.0000      -0.507301       -13.8044
   9   2.0000      -0.451685       -12.2910
  10   2.0000      -0.424619       -11.5545
  11   2.0000      -0.405688       -11.0393
  12   2.0000      -0.384248       -10.4559
  13   2.0000      -0.289740        -7.8842
  14   2.0000      -0.250657        -6.8207
  15   0.0000      -0.069217        -1.8835
  16   0.0000       0.055275         1.5041
  17   0.0000       0.067583         1.8390
  18   0.0000       0.095632         2.6023
  19   0.0000       0.127595         3.4720

MULLIKEN ATOMIC CHARGES
-----------------------
   0 C :    0.206670
   1 O :   -0.168728
   2 C :   -0.178322
   3 C :    0.108024
   4 H :   -0.051847
   5 H :    0.028953
   6 H :    0.020649
   7 H :    0.034601
Sum of atomic charges:    0.0000000

LOEWDIN ATOMIC CHARGES
----------------------
   0 C :   -0.069440
   1 O :    0.026160
   2 C :   -0.083582
   3 C :    0.041412
   4 H :   -0.017404
   5 H :    0.050165
   6 H :    0.017689
   7 H :    0.035000

  Mayer bond orders larger than 0.100000
B(  0-C ,  1-O ) :   2.2301 B(  0-C ,  2-C ) :   1.0633 B(  0-C ,  4-H ) :   0.9216
B(  2-C ,  3-C ) :   1.9455 B(  2-C ,  5-H ) :   0.9360 B(  3-C ,  6-H ) :   0.9399
B(  3-C ,  7-H ) :   0.9489

-----------------------------------------------------------------------------
         ABSORPTION SPECTRUM VIA TRANSITION ELECTRIC DIPOLE MOMENTS
-----------------------------------------------------------------------------
State   Energy    Wavelength  fosc         T2        TX        TY        TZ
        (cm-1)      (nm)                 (au**2)    (au)      (au)      (au)
-----------------------------------------------------------------------------
   1   27461.2    364.1   0.000413496   0.00496  -0.06406  -0.01228   0.02651

FINAL SINGLE POINT ENERGY      -191.667244043751

DIPOLE MOMENT
-------------
                                X             Y             Z
Electronic contribution:     -1.81331      -1.88297       0.04687
Nuclear contribution   :      2.29798       2.72337      -0.07353
                        -----------------------------------------
Total Dipole Moment    :      0.48467       0.84040      -0.02666
                        -----------------------------------------
Magnitude (a.u.)       :      0.97051
Magnitude (Debye)      :      2.46683

Rotational constants in cm-1:     0.787133     0.208514     0.165308
Rotational constants in MHz : 23597.650662  6251.096820  4955.814592

                             ****ORCA TERMINATED NORMALLY****
TOTAL RUN TIME: 0 days 0 hours 3 minutes 27 seconds 916 msec
