                         Program Version 5.0.3 -  RELEASE  -
|  1> ! B3LYP cc-pVDZ
|  2> !TightSCF
|  3> %scf
|  4>  ConvForced true
|  5>  convergence tight
|  6>  MaxIter 500
|  7> end
|  8>
|  9> %tddft
| 10>  nroots 1
| 11> end
| 12>
| 13> # 	30869
| 14> * xyz 0 1
| 15> 		C   -0.616619  -0.449235   0.016782
| 16> 		O   -0.558010  -1.639603  -0.019663
| 17> 		C    0.635572   0.455017  -0.005925
| 18> 		C    1.832887  -0.149302   0.018337
| 19> 		H   -1.537654   0.171626   0.136366
| 20> 		H    0.477007   1.605468  -0.156962
| 21> 		H    2.050692  -1.160689   0.081298
| 22> 		H    2.764522   0.398986  -0.112809
| 23> *
| 24>
| 25>                          ****END OF INPUT****

CARTESIAN COORDINATES (ANGSTROEM)
---------------------------------
  C     -0.616619   -0.449235    0.016782
  O     -0.558010   -1.639603   -0.019663
  C      0.635572    0.455017   -0.005925
  C      1.832887   -0.149302    0.018337
  H     -1.537654    0.171626    0.136366
  H      0.477007    1.605468   -0.156962
  H      2.050692   -1.160689    0.081298
  H      2.764522    0.398986   -0.112809

 Total Charge           Charge          ....    0
 Multiplicity           Mult            ....    1
 Number of Electrons    NEL             ....   30
 Basis Dimension        Dim             ....   76

ORBITAL ENERGIES
----------------

  NO   OCC          E(Eh)            E(eV)
   0   2.0000     -19.144419      -520.9461
   1   2.0000     -10.279965      -279.7321
   2   2.0000     -10.212117      -277.8858
   3   2.0000     -10.204662      -277.6830
   4   2.0000      -1.059477       -28.8298
   5   2.0000      -0.783502       -21.3202
   6   2.0000      -0.650427       -17.6990
   7   2.0000      -0.548403       -14.9228
   8   2.0000      -0.494278       -13.4500
   9   2.0000      -0.453264       -12.3339
  10   2.0000      -0.425140       -11.5686
  11   2.0000      -0.401879       -10.9357
  12   2.0000      -0.378412       -10.2971
  13   2.0000      -0.285518        -7.7693
  14   2.0000      -0.257006        -6.9935
  15   0.0000      -0.063765        -1.7351
  16   0.0000       0.053021         1.4428
  17   0.0000       0.064447         1.7537
  18   0.0000       0.095191         2.5903
  19   0.0000       0.114793         3.1237

MULLIKEN ATOMIC CHARGES
-----------------------
   0 C :    0.195602
   1 O :   -0.168740
   2 C :   -0.180382
   3 C :    0.106683
   4 H :   -0.016540
   5 H :    0.022769
   6 H :    0.017281
   7 H :    0.023328
Sum of atomic charges:   -0.0000000

LOEWDIN ATOMIC CHARGES
----------------------
   0 C :   -0.035769
   1 O :    0.018766
   2 C :   -0.089000
   3 C :    0.026176
   4 H :   -0.009568
   5 H :    0.041579
   6 H :    0.017630
   7 H :    0.030186

  Mayer bond orders larger than 0.100000
B(  0-C ,  1-O ) :   2.2280 B(  0-C ,  2-C ) :   1.0097 B(  0-C ,  4-H ) :   0.9094
B(  2-C ,  3-C ) :   1.9712 B(  2-C ,  5-H ) :   0.9361 B(  3-C ,  6-H ) :   0.9479
B(  3-C ,  7-H ) :   0.9509

-----------------------------------------------------------------------------
         ABSORPTION SPECTRUM VIA TRANSITION ELECTRIC DIPOLE MOMENTS
-----------------------------------------------------------------------------
State   Energy    Wavelength  fosc         T2        TX        TY        TZ
        (cm-1)      (nm)                 (au**2)    (au)      (au)      (au)
-----------------------------------------------------------------------------
   1   29558.1    338.3   0.000122340   0.00136  -0.03137  -0.00320   0.01919

FINAL SINGLE POINT ENERGY      -191.663127282548

DIPOLE MOMENT
-------------
                                X             Y             Z
Electronic contribution:     -2.04062      -1.93433       0.03715
Nuclear contribution   :      2.36511       2.73822      -0.04807
                        -----------------------------------------
Total Dipole Moment    :      0.32449       0.80389      -0.01092
                        -----------------------------------------
Magnitude (a.u.)       :      0.86698
Magnitude (Debye)      :      2.20368

Rotational constants in cm-1:     0.720007     0.210119     0.162895
Rotational constants in MHz : 21585.260457  6299.211933  4883.459225

                             ****ORCA TERMINATED NORMALLY****
TOTAL RUN TIME: 0 days 0 hours 3 minutes 22 seconds 206 msec
