                         Program Version 5.0.3 -  RELEASE  -
|  1> ! B3LYP cc-pVDZ
|  2> !TightSCF
|  3> %scf
|  4>  ConvForced true
|  5>  convergence tight
|  6>  MaxIter 500
|  7> end
|  8>
|  9> %tddft
| 10>  nroots 1
| 11> end
| 12>
| 13> # 	23575
| 14> * xyz 0 1
| 15> 		C   -0.606000  -0.432458   0.006597
| 16> 		O   -0.570048  -1.670299  -0.004193
| 17> 		C    0.616483   0.487472   0.013491
| 18> 		C    1.851029  -0.138595  -0.022983
| 19> 		H   -1.507268  -0.036609  -0.065869
| 20> 		H    0.635559   1.554111   0.012864
| 21> 		H    1.905387  -1.175526   0.169458
| 22> 		H    2.815046   0.388620  -0.017333
| 23> *
| 24>
| 25>                          ****END OF INPUT****

CARTESIAN COORDINATES (ANGSTROEM)
---------------------------------
  C     -0.606000   -0.432458    0.006597
  O     -0.570048   -1.670299   -0.004193
  C      0.616483    0.487472    0.013491
  C      1.851029   -0.138595   -0.022983
  H     -1.507268   -0.036609   -0.065869
  H      0.635559    1.554111    0.012864
  H      1.905387   -1.175526    0.169458
  H      2.815046    0.388620   -0.017333

 Total Charge           Charge          ....    0
 Multiplicity           Mult            ....    1
 Number of Electrons    NEL             ....   30
 Basis Dimension        Dim             ....   76

ORBITAL ENERGIES
----------------

  NO   OCC          E(Eh)            E(eV)
   0   2.0000     -19.136338      -520.7262
   1   2.0000     -10.270919      -279.4859
   2   2.0000     -10.213130      -277.9134
   3   2.0000     -10.211748      -277.8758
   4   2.0000      -1.030154       -28.0319
   5   2.0000      -0.782924       -21.3045
   6   2.0000      -0.657717       -17.8974
   7   2.0000      -0.565759       -15.3951
   8   2.0000      -0.510953       -13.9037
   9   2.0000      -0.436844       -11.8871
  10   2.0000      -0.419345       -11.4109
  11   2.0000      -0.390342       -10.6218
  12   2.0000      -0.383372       -10.4321
  13   2.0000      -0.279246        -7.5987
  14   2.0000      -0.256415        -6.9774
  15   0.0000      -0.073962        -2.0126
  16   0.0000       0.043672         1.1884
  17   0.0000       0.075636         2.0582
  18   0.0000       0.104253         2.8369
  19   0.0000       0.123712         3.3664

MULLIKEN ATOMIC CHARGES
-----------------------
   0 C :    0.268775
   1 O :   -0.221652
   2 C :   -0.127876
   3 C :    0.069428
   4 H :   -0.042800
   5 H :   -0.011390
   6 H :    0.031347
   7 H :    0.034167
Sum of atomic charges:   -0.0000000

LOEWDIN ATOMIC CHARGES
----------------------
   0 C :    0.011646
   1 O :   -0.029776
   2 C :   -0.069627
   3 C :    0.041536
   4 H :   -0.026026
   5 H :    0.021841
   6 H :    0.020132
   7 H :    0.030274

  Mayer bond orders larger than 0.100000
B(  0-C ,  1-O ) :   2.1466 B(  0-C ,  2-C ) :   1.0200 B(  0-C ,  4-H ) :   0.9507
B(  2-C ,  3-C ) :   1.9461 B(  2-C ,  5-H ) :   0.9535 B(  3-C ,  6-H ) :   0.9432
B(  3-C ,  7-H ) :   0.9539

-----------------------------------------------------------------------------
         ABSORPTION SPECTRUM VIA TRANSITION ELECTRIC DIPOLE MOMENTS
-----------------------------------------------------------------------------
State   Energy    Wavelength  fosc         T2        TX        TY        TZ
        (cm-1)      (nm)                 (au**2)    (au)      (au)      (au)
-----------------------------------------------------------------------------
   1   27043.9    369.8   0.000018415   0.00022  -0.01361   0.00250   0.00571

FINAL SINGLE POINT ENERGY      -191.663895496141

DIPOLE MOMENT
-------------
                                X             Y             Z
Electronic contribution:     -2.10929      -1.52589      -0.05730
Nuclear contribution   :      2.45203       2.47449       0.09306
                        -----------------------------------------
Total Dipole Moment    :      0.34274       0.94860       0.03576
                        -----------------------------------------
Magnitude (a.u.)       :      1.00925
Magnitude (Debye)      :      2.56531

Rotational constants in cm-1:     0.724872     0.205006     0.159940
Rotational constants in MHz : 21731.113378  6145.914842  4794.871201

                             ****ORCA TERMINATED NORMALLY****
TOTAL RUN TIME: 0 days 0 hours 2 minutes 49 seconds 725 msec
