                         Program Version 5.0.3 -  RELEASE  -
|  1> ! B3LYP cc-pVDZ
|  2> !TightSCF
|  3> %scf
|  4>  ConvForced true
|  5>  convergence tight
|  6>  MaxIter 500
|  7> end
|  8>
|  9> %tddft
| 10>  nroots 1
| 11> end
| 12>
| 13> # 	625
| 14> * xyz 0 1
| 15> 		C   -1.227252  -0.321110   0.024826
| 16> 		O   -1.280865  -1.481953   0.508799
| 17> 		C   -0.016911   0.518713   0.092518
| 18> 		C    1.229219  -0.008255  -0.117483
| 19> 		H   -2.061417   0.137692  -0.426857
| 20> 		H   -0.074195   1.653023   0.223558
| 21> 		H    1.294807  -1.119146  -0.158931
| 22> 		H    2.220931   0.585383  -0.096263
| 23> *
| 24>
| 25>                          ****END OF INPUT****

CARTESIAN COORDINATES (ANGSTROEM)
---------------------------------
  C     -1.227252   -0.321110    0.024826
  O     -1.280865   -1.481953    0.508799
  C     -0.016911    0.518713    0.092518
  C      1.229219   -0.008255   -0.117483
  H     -2.061417    0.137692   -0.426857
  H     -0.074195    1.653023    0.223558
  H      1.294807   -1.119146   -0.158931
  H      2.220931    0.585383   -0.096263

 Total Charge           Charge          ....    0
 Multiplicity           Mult            ....    1
 Number of Electrons    NEL             ....   30
 Basis Dimension        Dim             ....   76

ORBITAL ENERGIES
----------------

  NO   OCC          E(Eh)            E(eV)
   0   2.0000     -19.140699      -520.8449
   1   2.0000     -10.278458      -279.6911
   2   2.0000     -10.223004      -278.1821
   3   2.0000     -10.215162      -277.9687
   4   2.0000      -1.021863       -27.8063
   5   2.0000      -0.787756       -21.4359
   6   2.0000      -0.660359       -17.9693
   7   2.0000      -0.547623       -14.9016
   8   2.0000      -0.500762       -13.6264
   9   2.0000      -0.436755       -11.8847
  10   2.0000      -0.430435       -11.7127
  11   2.0000      -0.381109       -10.3705
  12   2.0000      -0.369501       -10.0546
  13   2.0000      -0.283889        -7.7250
  14   2.0000      -0.257467        -7.0060
  15   0.0000      -0.069936        -1.9031
  16   0.0000       0.022908         0.6234
  17   0.0000       0.066024         1.7966
  18   0.0000       0.090003         2.4491
  19   0.0000       0.114175         3.1069

MULLIKEN ATOMIC CHARGES
-----------------------
   0 C :    0.224423
   1 O :   -0.230102
   2 C :   -0.112686
   3 C :    0.007524
   4 H :   -0.009470
   5 H :    0.018563
   6 H :    0.047437
   7 H :    0.054310
Sum of atomic charges:   -0.0000000

LOEWDIN ATOMIC CHARGES
----------------------
   0 C :    0.004830
   1 O :   -0.043610
   2 C :   -0.078339
   3 C :    0.002225
   4 H :   -0.005619
   5 H :    0.040641
   6 H :    0.035513
   7 H :    0.044358

  Mayer bond orders larger than 0.100000
B(  0-C ,  1-O ) :   2.1352 B(  0-C ,  2-C ) :   1.0453 B(  0-C ,  4-H ) :   0.9304
B(  2-C ,  3-C ) :   1.9590 B(  2-C ,  5-H ) :   0.9359 B(  3-C ,  6-H ) :   0.9375
B(  3-C ,  7-H ) :   0.9470

-----------------------------------------------------------------------------
         ABSORPTION SPECTRUM VIA TRANSITION ELECTRIC DIPOLE MOMENTS
-----------------------------------------------------------------------------
State   Energy    Wavelength  fosc         T2        TX        TY        TZ
        (cm-1)      (nm)                 (au**2)    (au)      (au)      (au)
-----------------------------------------------------------------------------
   1   27730.4    360.6   0.000074594   0.00089  -0.02955   0.00086  -0.00345

FINAL SINGLE POINT ENERGY      -191.668675801231

DIPOLE MOMENT
-------------
                                X             Y             Z
Electronic contribution:     -2.18868      -1.60039       0.58783
Nuclear contribution   :      2.57153       2.51265      -0.93848
                        -----------------------------------------
Total Dipole Moment    :      0.38285       0.91226      -0.35065
                        -----------------------------------------
Magnitude (a.u.)       :      1.04964
Magnitude (Debye)      :      2.66798

Rotational constants in cm-1:     0.756800     0.195215     0.159440
Rotational constants in MHz : 22688.284606  5852.402990  4779.897683

                             ****ORCA TERMINATED NORMALLY****
TOTAL RUN TIME: 0 days 0 hours 3 minutes 20 seconds 309 msec
