                         Program Version 5.0.3 -  RELEASE  -
|  1> ! HF-3c
|  2> !TightSCF
|  3> %scf
|  4>  ConvForced true
|  5>  convergence tight
|  6>  MaxIter 500
|  7> end
|  8>
|  9> %tddft
| 10>  nroots 1
| 11> end
| 12>
| 13> # 	24645
| 14> * xyz 0 1
| 15> 		C   -0.560946  -0.459913   0.034377
| 16> 		O   -0.567708  -1.609009  -0.028322
| 17> 		C    0.637323   0.457967  -0.046599
| 18> 		C    1.819651  -0.144586   0.016038
| 19> 		H   -1.689141  -0.092360   0.268788
| 20> 		H    0.514679   1.500608  -0.079947
| 21> 		H    1.709024  -1.219968   0.199429
| 22> 		H    2.835862   0.296010   0.005216
| 23> *
| 24>
| 25>                          ****END OF INPUT****

CARTESIAN COORDINATES (ANGSTROEM)
---------------------------------
  C     -0.560946   -0.459913    0.034377
  O     -0.567708   -1.609009   -0.028322
  C      0.637323    0.457967   -0.046599
  C      1.819651   -0.144586    0.016038
  H     -1.689141   -0.092360    0.268788
  H      0.514679    1.500608   -0.079947
  H      1.709024   -1.219968    0.199429
  H      2.835862    0.296010    0.005216

 Total Charge           Charge          ....    0
 Multiplicity           Mult            ....    1
 Number of Electrons    NEL             ....   30
 Basis Dimension        Dim             ....   24

ORBITAL ENERGIES
----------------

  NO   OCC          E(Eh)            E(eV)
   0   2.0000     -20.371656      -554.3409
   1   2.0000     -11.302861      -307.5665
   2   2.0000     -11.191325      -304.5314
   3   2.0000     -11.189802      -304.4900
   4   2.0000      -1.446472       -39.3605
   5   2.0000      -1.082289       -29.4506
   6   2.0000      -0.863254       -23.4903
   7   2.0000      -0.739328       -20.1181
   8   2.0000      -0.717773       -19.5316
   9   2.0000      -0.615947       -16.7608
  10   2.0000      -0.603365       -16.4184
  11   2.0000      -0.562453       -15.3051
  12   2.0000      -0.532393       -14.4872
  13   2.0000      -0.403589       -10.9822
  14   2.0000      -0.393437       -10.7060
  15   0.0000       0.150415         4.0930
  16   0.0000       0.314449         8.5566
  17   0.0000       0.480911        13.0863
  18   0.0000       0.613788        16.7020
  19   0.0000       0.651566        17.7300

MULLIKEN ATOMIC CHARGES
-----------------------
   0 C :    0.192521
   1 O :   -0.376859
   2 C :   -0.187641
   3 C :   -0.215685
   4 H :    0.129158
   5 H :    0.146162
   6 H :    0.159931
   7 H :    0.152414
Sum of atomic charges:    0.0000000

LOEWDIN ATOMIC CHARGES
----------------------
   0 C :    0.147604
   1 O :   -0.262207
   2 C :   -0.141411
   3 C :   -0.115463
   4 H :    0.072661
   5 H :    0.090700
   6 H :    0.106172
   7 H :    0.101944

  Mayer bond orders larger than 0.100000
B(  0-C ,  1-O ) :   1.9212 B(  0-C ,  2-C ) :   0.9927 B(  0-C ,  4-H ) :   0.9127
B(  2-C ,  3-C ) :   1.9594 B(  2-C ,  5-H ) :   0.9611 B(  3-C ,  6-H ) :   0.9539
B(  3-C ,  7-H ) :   0.9628

-----------------------------------------------------------------------------
         ABSORPTION SPECTRUM VIA TRANSITION ELECTRIC DIPOLE MOMENTS
-----------------------------------------------------------------------------
State   Energy    Wavelength  fosc         T2        TX        TY        TZ
        (cm-1)      (nm)                 (au**2)    (au)      (au)      (au)
-----------------------------------------------------------------------------
   1   35920.1    278.4   0.000101300   0.00093  -0.00212   0.00656  -0.02968

Dispersion correction           -0.025980532
FINAL SINGLE POINT ENERGY      -189.306335143046

DIPOLE MOMENT
-------------
                                X             Y             Z
Electronic contribution:     -1.67218      -1.41983      -0.25701
Nuclear contribution   :      2.00536       2.24592       0.36946
                        -----------------------------------------
Total Dipole Moment    :      0.33318       0.82609       0.11245
                        -----------------------------------------
Magnitude (a.u.)       :      0.89782
Magnitude (Debye)      :      2.28207

Rotational constants in cm-1:     0.786678     0.213193     0.168322
Rotational constants in MHz : 23584.026101  6391.352203  5046.166124

                             ****ORCA TERMINATED NORMALLY****
TOTAL RUN TIME: 0 days 0 hours 0 minutes 12 seconds 320 msec
