                         Program Version 5.0.3 -  RELEASE  -
|  1> ! HF-3c
|  2> !TightSCF
|  3> %scf
|  4>  ConvForced true
|  5>  convergence tight
|  6>  MaxIter 500
|  7> end
|  8>
|  9> %tddft
| 10>  nroots 1
| 11> end
| 12>
| 13> # 	22467
| 14> * xyz 0 1
| 15> 		C   -0.577950  -0.417317   0.010746
| 16> 		O   -0.535615  -1.598386  -0.001021
| 17> 		C    0.626737   0.412693  -0.022872
| 18> 		C    1.805618  -0.178876   0.017658
| 19> 		H   -1.666206   0.123948  -0.021144
| 20> 		H    0.427945   1.511450   0.073863
| 21> 		H    1.848517  -1.303117  -0.065821
| 22> 		H    2.746823   0.488630  -0.034114
| 23> *
| 24>
| 25>                          ****END OF INPUT****

CARTESIAN COORDINATES (ANGSTROEM)
---------------------------------
  C     -0.577950   -0.417317    0.010746
  O     -0.535615   -1.598386   -0.001021
  C      0.626737    0.412693   -0.022872
  C      1.805618   -0.178876    0.017658
  H     -1.666206    0.123948   -0.021144
  H      0.427945    1.511450    0.073863
  H      1.848517   -1.303117   -0.065821
  H      2.746823    0.488630   -0.034114

 Total Charge           Charge          ....    0
 Multiplicity           Mult            ....    1
 Number of Electrons    NEL             ....   30
 Basis Dimension        Dim             ....   24

ORBITAL ENERGIES
----------------

  NO   OCC          E(Eh)            E(eV)
   0   2.0000     -20.358544      -553.9841
   1   2.0000     -11.291799      -307.2655
   2   2.0000     -11.187910      -304.4385
   3   2.0000     -11.180424      -304.2348
   4   2.0000      -1.417572       -38.5741
   5   2.0000      -1.076742       -29.2996
   6   2.0000      -0.871445       -23.7132
   7   2.0000      -0.716401       -19.4943
   8   2.0000      -0.699348       -19.0302
   9   2.0000      -0.609785       -16.5931
  10   2.0000      -0.579053       -15.7568
  11   2.0000      -0.551163       -14.9979
  12   2.0000      -0.519419       -14.1341
  13   2.0000      -0.398274       -10.8376
  14   2.0000      -0.393994       -10.7211
  15   0.0000       0.143987         3.9181
  16   0.0000       0.326417         8.8822
  17   0.0000       0.493516        13.4292
  18   0.0000       0.581650        15.8275
  19   0.0000       0.607699        16.5363

MULLIKEN ATOMIC CHARGES
-----------------------
   0 C :    0.183041
   1 O :   -0.373216
   2 C :   -0.187569
   3 C :   -0.206808
   4 H :    0.127257
   5 H :    0.141352
   6 H :    0.167199
   7 H :    0.148745
Sum of atomic charges:   -0.0000000

LOEWDIN ATOMIC CHARGES
----------------------
   0 C :    0.147171
   1 O :   -0.269356
   2 C :   -0.147009
   3 C :   -0.113893
   4 H :    0.072821
   5 H :    0.092480
   6 H :    0.114766
   7 H :    0.103019

  Mayer bond orders larger than 0.100000
B(  0-C ,  1-O ) :   1.9051 B(  0-C ,  2-C ) :   1.0217 B(  0-C ,  4-H ) :   0.9114
B(  2-C ,  3-C ) :   1.9460 B(  2-C ,  5-H ) :   0.9581 B(  3-C ,  6-H ) :   0.9516
B(  3-C ,  7-H ) :   0.9604

-----------------------------------------------------------------------------
         ABSORPTION SPECTRUM VIA TRANSITION ELECTRIC DIPOLE MOMENTS
-----------------------------------------------------------------------------
State   Energy    Wavelength  fosc         T2        TX        TY        TZ
        (cm-1)      (nm)                 (au**2)    (au)      (au)      (au)
-----------------------------------------------------------------------------
   1   34314.7    291.4   0.000165303   0.00159   0.03277  -0.00044   0.02263

Dispersion correction           -0.025992026
FINAL SINGLE POINT ENERGY      -189.321493768876

DIPOLE MOMENT
-------------
                                X             Y             Z
Electronic contribution:     -1.68511      -1.64395       0.04350
Nuclear contribution   :      1.99331       2.55750      -0.04448
                        -----------------------------------------
Total Dipole Moment    :      0.30820       0.91355      -0.00098
                        -----------------------------------------
Magnitude (a.u.)       :      0.96413
Magnitude (Debye)      :      2.45063

Rotational constants in cm-1:     0.746102     0.223375     0.171988
Rotational constants in MHz : 22367.578072  6696.611491  5156.071365

                             ****ORCA TERMINATED NORMALLY****
TOTAL RUN TIME: 0 days 0 hours 0 minutes 10 seconds 127 msec
