                         Program Version 5.0.3 -  RELEASE  -
|  1> ! HF-3c
|  2> !TightSCF
|  3> %scf
|  4>  ConvForced true
|  5>  convergence tight
|  6>  MaxIter 500
|  7> end
|  8>
|  9> %tddft
| 10>  nroots 1
| 11> end
| 12>
| 13> # 	30610
| 14> * xyz 0 1
| 15> 		C   -0.605479  -0.441664   0.029746
| 16> 		O   -0.581974  -1.641189  -0.010513
| 17> 		C    0.633606   0.408381  -0.026422
| 18> 		C    1.873189  -0.087801   0.017523
| 19> 		H   -1.697888   0.193894  -0.071424
| 20> 		H    0.448066   1.360330   0.070537
| 21> 		H    1.949705  -1.234057   0.019002
| 22> 		H    2.808931   0.424697  -0.101631
| 23> *
| 24>
| 25>                          ****END OF INPUT****

CARTESIAN COORDINATES (ANGSTROEM)
---------------------------------
  C     -0.605479   -0.441664    0.029746
  O     -0.581974   -1.641189   -0.010513
  C      0.633606    0.408381   -0.026422
  C      1.873189   -0.087801    0.017523
  H     -1.697888    0.193894   -0.071424
  H      0.448066    1.360330    0.070537
  H      1.949705   -1.234057    0.019002
  H      2.808931    0.424697   -0.101631

 Total Charge           Charge          ....    0
 Multiplicity           Mult            ....    1
 Number of Electrons    NEL             ....   30
 Basis Dimension        Dim             ....   24

ORBITAL ENERGIES
----------------

  NO   OCC          E(Eh)            E(eV)
   0   2.0000     -20.364012      -554.1329
   1   2.0000     -11.293792      -307.3197
   2   2.0000     -11.195471      -304.6443
   3   2.0000     -11.187481      -304.4268
   4   2.0000      -1.405402       -38.2429
   5   2.0000      -1.076987       -29.3063
   6   2.0000      -0.879410       -23.9300
   7   2.0000      -0.740887       -20.1606
   8   2.0000      -0.697719       -18.9859
   9   2.0000      -0.618745       -16.8369
  10   2.0000      -0.590850       -16.0778
  11   2.0000      -0.542858       -14.7719
  12   2.0000      -0.524605       -14.2752
  13   2.0000      -0.399960       -10.8835
  14   2.0000      -0.395852       -10.7717
  15   0.0000       0.134520         3.6605
  16   0.0000       0.304983         8.2990
  17   0.0000       0.459676        12.5084
  18   0.0000       0.583571        15.8798
  19   0.0000       0.644424        17.5357

MULLIKEN ATOMIC CHARGES
-----------------------
   0 C :    0.192764
   1 O :   -0.365400
   2 C :   -0.202924
   3 C :   -0.202207
   4 H :    0.131831
   5 H :    0.136975
   6 H :    0.158912
   7 H :    0.150048
Sum of atomic charges:   -0.0000000

LOEWDIN ATOMIC CHARGES
----------------------
   0 C :    0.154495
   1 O :   -0.265085
   2 C :   -0.151759
   3 C :   -0.103268
   4 H :    0.081629
   5 H :    0.077630
   6 H :    0.109254
   7 H :    0.097104

  Mayer bond orders larger than 0.100000
B(  0-C ,  1-O ) :   1.9188 B(  0-C ,  2-C ) :   1.0085 B(  0-C ,  4-H ) :   0.9039
B(  2-C ,  3-C ) :   1.9490 B(  2-C ,  5-H ) :   0.9646 B(  3-C ,  6-H ) :   0.9558
B(  3-C ,  7-H ) :   0.9643

-----------------------------------------------------------------------------
         ABSORPTION SPECTRUM VIA TRANSITION ELECTRIC DIPOLE MOMENTS
-----------------------------------------------------------------------------
State   Energy    Wavelength  fosc         T2        TX        TY        TZ
        (cm-1)      (nm)                 (au**2)    (au)      (au)      (au)
-----------------------------------------------------------------------------
   1   33451.4    298.9   0.000323762   0.00319   0.05464  -0.00424   0.01354

Dispersion correction           -0.025501498
FINAL SINGLE POINT ENERGY      -189.310946276574

DIPOLE MOMENT
-------------
                                X             Y             Z
Electronic contribution:     -1.83334      -1.63377       0.08864
Nuclear contribution   :      2.13668       2.48631      -0.07837
                        -----------------------------------------
Total Dipole Moment    :      0.30333       0.85255       0.01027
                        -----------------------------------------
Magnitude (a.u.)       :      0.90496
Magnitude (Debye)      :      2.30022

Rotational constants in cm-1:     0.766381     0.203668     0.161046
Rotational constants in MHz : 22975.511889  6105.825162  4828.049339

                             ****ORCA TERMINATED NORMALLY****
TOTAL RUN TIME: 0 days 0 hours 0 minutes 16 seconds 87 msec
