                         Program Version 5.0.3 -  RELEASE  -
|  1> ! B3LYP cc-pVDZ
|  2> !TightSCF
|  3> %scf
|  4>  ConvForced true
|  5>  convergence tight
|  6>  MaxIter 500
|  7> end
|  8>
|  9> %tddft
| 10>  nroots 1
| 11> end
| 12>
| 13> # 	32538
| 14> * xyz 0 1
| 15> 		C   -0.512744  -0.391993  -0.058815
| 16> 		O   -0.633864  -1.659342   0.037414
| 17> 		C    0.619248   0.359176   0.074098
| 18> 		C    1.835755  -0.081559  -0.038548
| 19> 		H   -1.522076  -0.008155  -0.280799
| 20> 		H    0.484684   1.531970   0.093770
| 21> 		H    2.126117  -1.030944  -0.122321
| 22> 		H    2.803288   0.463217   0.003716
| 23> *
| 24>
| 25>                          ****END OF INPUT****

CARTESIAN COORDINATES (ANGSTROEM)
---------------------------------
  C     -0.512744   -0.391993   -0.058815
  O     -0.633864   -1.659342    0.037414
  C      0.619248    0.359176    0.074098
  C      1.835755   -0.081559   -0.038548
  H     -1.522076   -0.008155   -0.280799
  H      0.484684    1.531970    0.093770
  H      2.126117   -1.030944   -0.122321
  H      2.803288    0.463217    0.003716

 Total Charge           Charge          ....    0
 Multiplicity           Mult            ....    1
 Number of Electrons    NEL             ....   30
 Basis Dimension        Dim             ....   76

ORBITAL ENERGIES
----------------

  NO   OCC          E(Eh)            E(eV)
   0   2.0000     -19.126378      -520.4552
   1   2.0000     -10.265740      -279.3450
   2   2.0000     -10.214252      -277.9439
   3   2.0000     -10.213140      -277.9137
   4   2.0000      -1.006293       -27.3826
   5   2.0000      -0.819872       -22.3098
   6   2.0000      -0.682743       -18.5784
   7   2.0000      -0.558169       -15.1886
   8   2.0000      -0.512372       -13.9423
   9   2.0000      -0.461993       -12.5715
  10   2.0000      -0.412703       -11.2302
  11   2.0000      -0.386359       -10.5134
  12   2.0000      -0.365169        -9.9368
  13   2.0000      -0.292994        -7.9728
  14   2.0000      -0.244808        -6.6616
  15   0.0000      -0.082177        -2.2361
  16   0.0000       0.046647         1.2693
  17   0.0000       0.069137         1.8813
  18   0.0000       0.094942         2.5835
  19   0.0000       0.121525         3.3069

MULLIKEN ATOMIC CHARGES
-----------------------
   0 C :    0.179245
   1 O :   -0.250021
   2 C :   -0.092173
   3 C :    0.130568
   4 H :   -0.013606
   5 H :    0.018958
   6 H :   -0.006584
   7 H :    0.033612
Sum of atomic charges:   -0.0000000

LOEWDIN ATOMIC CHARGES
----------------------
   0 C :   -0.019516
   1 O :   -0.070702
   2 C :   -0.089041
   3 C :    0.062097
   4 H :    0.008584
   5 H :    0.055535
   6 H :    0.009270
   7 H :    0.043773

  Mayer bond orders larger than 0.100000
B(  0-C ,  1-O ) :   2.1076 B(  0-C ,  2-C ) :   1.1179 B(  0-C ,  4-H ) :   0.9486
B(  1-O ,  3-C ) :   0.1256 B(  2-C ,  3-C ) :   1.9354 B(  2-C ,  5-H ) :   0.9240
B(  3-C ,  6-H ) :   0.9427 B(  3-C ,  7-H ) :   0.9479

-----------------------------------------------------------------------------
         ABSORPTION SPECTRUM VIA TRANSITION ELECTRIC DIPOLE MOMENTS
-----------------------------------------------------------------------------
State   Energy    Wavelength  fosc         T2        TX        TY        TZ
        (cm-1)      (nm)                 (au**2)    (au)      (au)      (au)
-----------------------------------------------------------------------------
   1   22589.2    442.7   0.000220735   0.00322  -0.04734  -0.01133   0.02911

FINAL SINGLE POINT ENERGY      -191.667051142302

DIPOLE MOMENT
-------------
                                X             Y             Z
Electronic contribution:     -1.85275      -1.69809       0.19204
Nuclear contribution   :      2.49220       2.68400      -0.28693
                        -----------------------------------------
Total Dipole Moment    :      0.63945       0.98591      -0.09489
                        -----------------------------------------
Magnitude (a.u.)       :      1.17895
Magnitude (Debye)      :      2.99665

Rotational constants in cm-1:     0.822530     0.203787     0.164121
Rotational constants in MHz : 24658.822614  6109.387454  4920.225508

                             ****ORCA TERMINATED NORMALLY****
TOTAL RUN TIME: 0 days 0 hours 3 minutes 21 seconds 202 msec
