                         Program Version 5.0.3 -  RELEASE  -
|  1> ! HF-3c
|  2> !TightSCF
|  3> %scf
|  4>  ConvForced true
|  5>  convergence tight
|  6>  MaxIter 500
|  7> end
|  8>
|  9> %tddft
| 10>  nroots 1
| 11> end
| 12>
| 13> # 	13126
| 14> * xyz 0 1
| 15> 		C   -1.160289  -0.315727   0.024058
| 16> 		O   -1.378701  -1.376929  -0.588320
| 17> 		C    0.029346   0.504312  -0.156807
| 18> 		C    1.212108   0.025104   0.168247
| 19> 		H   -1.908668   0.045163   0.926964
| 20> 		H   -0.091366   1.509214  -0.773188
| 21> 		H    1.267943  -0.947466   0.500296
| 22> 		H    2.036958   0.620929  -0.122814
| 23> *
| 24>
| 25>                          ****END OF INPUT****

CARTESIAN COORDINATES (ANGSTROEM)
---------------------------------
  C     -1.160289   -0.315727    0.024058
  O     -1.378701   -1.376929   -0.588320
  C      0.029346    0.504312   -0.156807
  C      1.212108    0.025104    0.168247
  H     -1.908668    0.045163    0.926964
  H     -0.091366    1.509214   -0.773188
  H      1.267943   -0.947466    0.500296
  H      2.036958    0.620929   -0.122814

 Total Charge           Charge          ....    0
 Multiplicity           Mult            ....    1
 Number of Electrons    NEL             ....   30
 Basis Dimension        Dim             ....   24

ORBITAL ENERGIES
----------------

  NO   OCC          E(Eh)            E(eV)
   0   2.0000     -20.361906      -554.0756
   1   2.0000     -11.288448      -307.1743
   2   2.0000     -11.194368      -304.6142
   3   2.0000     -11.182009      -304.2779
   4   2.0000      -1.378548       -37.5122
   5   2.0000      -1.091191       -29.6928
   6   2.0000      -0.886823       -24.1317
   7   2.0000      -0.735789       -20.0218
   8   2.0000      -0.684938       -18.6381
   9   2.0000      -0.620082       -16.8733
  10   2.0000      -0.600716       -16.3463
  11   2.0000      -0.549119       -14.9423
  12   2.0000      -0.482879       -13.1398
  13   2.0000      -0.410198       -11.1620
  14   2.0000      -0.402218       -10.9449
  15   0.0000       0.169153         4.6029
  16   0.0000       0.225197         6.1279
  17   0.0000       0.517705        14.0875
  18   0.0000       0.565744        15.3947
  19   0.0000       0.664581        18.0842

MULLIKEN ATOMIC CHARGES
-----------------------
   0 C :    0.169246
   1 O :   -0.343638
   2 C :   -0.152409
   3 C :   -0.263909
   4 H :    0.135618
   5 H :    0.156301
   6 H :    0.150031
   7 H :    0.148760
Sum of atomic charges:   -0.0000000

LOEWDIN ATOMIC CHARGES
----------------------
   0 C :    0.149496
   1 O :   -0.258957
   2 C :   -0.110399
   3 C :   -0.164701
   4 H :    0.083169
   5 H :    0.110677
   6 H :    0.094427
   7 H :    0.096287

  Mayer bond orders larger than 0.100000
B(  0-C ,  1-O ) :   1.9369 B(  0-C ,  2-C ) :   1.0105 B(  0-C ,  4-H ) :   0.9073
B(  2-C ,  3-C ) :   1.9843 B(  2-C ,  5-H ) :   0.9426 B(  3-C ,  6-H ) :   0.9637
B(  3-C ,  7-H ) :   0.9627

-----------------------------------------------------------------------------
         ABSORPTION SPECTRUM VIA TRANSITION ELECTRIC DIPOLE MOMENTS
-----------------------------------------------------------------------------
State   Energy    Wavelength  fosc         T2        TX        TY        TZ
        (cm-1)      (nm)                 (au**2)    (au)      (au)      (au)
-----------------------------------------------------------------------------
   1   32624.5    306.5   0.000005120   0.00005   0.00315  -0.00431  -0.00482

Dispersion correction           -0.025486835
FINAL SINGLE POINT ENERGY      -189.311510588627

DIPOLE MOMENT
-------------
                                X             Y             Z
Electronic contribution:     -2.24826      -1.46989      -0.66589
Nuclear contribution   :      2.53219       2.35630       1.05760
                        -----------------------------------------
Total Dipole Moment    :      0.28393       0.88641       0.39171
                        -----------------------------------------
Magnitude (a.u.)       :      1.00984
Magnitude (Debye)      :      2.56681

Rotational constants in cm-1:     0.823439     0.188310     0.166389
Rotational constants in MHz : 24686.089497  5645.405208  4988.218596

                             ****ORCA TERMINATED NORMALLY****
TOTAL RUN TIME: 0 days 0 hours 0 minutes 13 seconds 721 msec
