                         Program Version 5.0.3 -  RELEASE  -
|  1> ! B3LYP cc-pVDZ
|  2> !TightSCF
|  3> %scf
|  4>  ConvForced true
|  5>  convergence tight
|  6>  MaxIter 500
|  7> end
|  8>
|  9> %tddft
| 10>  nroots 1
| 11> end
| 12>
| 13> # 	18187
| 14> * xyz 0 1
| 15> 		C   -1.230553  -0.328372   0.012397
| 16> 		O   -1.460108  -1.292053  -0.617382
| 17> 		C   -0.004285   0.527560  -0.119595
| 18> 		C    1.206019   0.020873   0.076526
| 19> 		H   -1.964274   0.012130   0.856801
| 20> 		H   -0.068806   1.543308  -0.689311
| 21> 		H    1.329437  -1.007027   0.417828
| 22> 		H    2.192741   0.550515   0.017951
| 23> *
| 24>
| 25>                          ****END OF INPUT****

CARTESIAN COORDINATES (ANGSTROEM)
---------------------------------
  C     -1.230553   -0.328372    0.012397
  O     -1.460108   -1.292053   -0.617382
  C     -0.004285    0.527560   -0.119595
  C      1.206019    0.020873    0.076526
  H     -1.964274    0.012130    0.856801
  H     -0.068806    1.543308   -0.689311
  H      1.329437   -1.007027    0.417828
  H      2.192741    0.550515    0.017951

 Total Charge           Charge          ....    0
 Multiplicity           Mult            ....    1
 Number of Electrons    NEL             ....   30
 Basis Dimension        Dim             ....   76

ORBITAL ENERGIES
----------------

  NO   OCC          E(Eh)            E(eV)
   0   2.0000     -19.148953      -521.0695
   1   2.0000     -10.285655      -279.8869
   2   2.0000     -10.211083      -277.8577
   3   2.0000     -10.207072      -277.7485
   4   2.0000      -1.075425       -29.2638
   5   2.0000      -0.791593       -21.5404
   6   2.0000      -0.643870       -17.5206
   7   2.0000      -0.545072       -14.8322
   8   2.0000      -0.493527       -13.4296
   9   2.0000      -0.455183       -12.3862
  10   2.0000      -0.451732       -12.2923
  11   2.0000      -0.394573       -10.7369
  12   2.0000      -0.373687       -10.1685
  13   2.0000      -0.288464        -7.8495
  14   2.0000      -0.256400        -6.9770
  15   0.0000      -0.034948        -0.9510
  16   0.0000      -0.002934        -0.0798
  17   0.0000       0.078998         2.1497
  18   0.0000       0.090516         2.4631
  19   0.0000       0.094596         2.5741

MULLIKEN ATOMIC CHARGES
-----------------------
   0 C :    0.154362
   1 O :   -0.140648
   2 C :   -0.126366
   3 C :    0.023581
   4 H :   -0.015238
   5 H :    0.042472
   6 H :    0.024032
   7 H :    0.037805
Sum of atomic charges:    0.0000000

LOEWDIN ATOMIC CHARGES
----------------------
   0 C :   -0.048339
   1 O :    0.047087
   2 C :   -0.082729
   3 C :   -0.022632
   4 H :   -0.008234
   5 H :    0.052517
   6 H :    0.025919
   7 H :    0.036410

  Mayer bond orders larger than 0.100000
B(  0-C ,  1-O ) :   2.2783 B(  0-C ,  2-C ) :   0.9594 B(  0-C ,  4-H ) :   0.8970
B(  2-C ,  3-C ) :   2.0281 B(  2-C ,  5-H ) :   0.9270 B(  3-C ,  6-H ) :   0.9476
B(  3-C ,  7-H ) :   0.9506

-----------------------------------------------------------------------------
         ABSORPTION SPECTRUM VIA TRANSITION ELECTRIC DIPOLE MOMENTS
-----------------------------------------------------------------------------
State   Energy    Wavelength  fosc         T2        TX        TY        TZ
        (cm-1)      (nm)                 (au**2)    (au)      (au)      (au)
-----------------------------------------------------------------------------
   1   34338.5    291.2   0.000031803   0.00030   0.01725   0.00028  -0.00266

FINAL SINGLE POINT ENERGY      -191.633378054411

DIPOLE MOMENT
-------------
                                X             Y             Z
Electronic contribution:     -2.44375      -1.50490      -0.89332
Nuclear contribution   :      2.86764       2.14895       1.20450
                        -----------------------------------------
Total Dipole Moment    :      0.42390       0.64404       0.31118
                        -----------------------------------------
Magnitude (a.u.)       :      0.83145
Magnitude (Debye)      :      2.11338

Rotational constants in cm-1:     0.856621     0.184010     0.162398
Rotational constants in MHz : 25680.853071  5516.495817  4868.581298

                             ****ORCA TERMINATED NORMALLY****
TOTAL RUN TIME: 0 days 0 hours 3 minutes 20 seconds 784 msec
