                         Program Version 5.0.3 -  RELEASE  -
|  1> ! HF-3c
|  2> !TightSCF
|  3> %scf
|  4>  ConvForced true
|  5>  convergence tight
|  6>  MaxIter 500
|  7> end
|  8>
|  9> %tddft
| 10>  nroots 1
| 11> end
| 12>
| 13> # 	17461
| 14> * xyz 0 1
| 15> 		C   -1.210187  -0.340175  -0.013930
| 16> 		O   -1.157431  -1.484268   0.069133
| 17> 		C    0.046346   0.488221  -0.035738
| 18> 		C    1.176210  -0.096346   0.000481
| 19> 		H   -2.131174   0.327438   0.109447
| 20> 		H   -0.205553   1.668089   0.162645
| 21> 		H    1.248070  -1.112864  -0.358520
| 22> 		H    2.221163   0.548836   0.165310
| 23> *
| 24>
| 25>                          ****END OF INPUT****

CARTESIAN COORDINATES (ANGSTROEM)
---------------------------------
  C     -1.210187   -0.340175   -0.013930
  O     -1.157431   -1.484268    0.069133
  C      0.046346    0.488221   -0.035738
  C      1.176210   -0.096346    0.000481
  H     -2.131174    0.327438    0.109447
  H     -0.205553    1.668089    0.162645
  H      1.248070   -1.112864   -0.358520
  H      2.221163    0.548836    0.165310

 Total Charge           Charge          ....    0
 Multiplicity           Mult            ....    1
 Number of Electrons    NEL             ....   30
 Basis Dimension        Dim             ....   24

ORBITAL ENERGIES
----------------

  NO   OCC          E(Eh)            E(eV)
   0   2.0000     -20.384525      -554.6911
   1   2.0000     -11.307638      -307.6965
   2   2.0000     -11.178877      -304.1927
   3   2.0000     -11.173253      -304.0397
   4   2.0000      -1.451972       -39.5102
   5   2.0000      -1.078394       -29.3446
   6   2.0000      -0.871874       -23.7249
   7   2.0000      -0.722424       -19.6582
   8   2.0000      -0.692766       -18.8511
   9   2.0000      -0.624411       -16.9911
  10   2.0000      -0.576318       -15.6824
  11   2.0000      -0.569883       -15.5073
  12   2.0000      -0.505948       -13.7676
  13   2.0000      -0.402924       -10.9641
  14   2.0000      -0.395040       -10.7496
  15   0.0000       0.161244         4.3877
  16   0.0000       0.325278         8.8513
  17   0.0000       0.454266        12.3612
  18   0.0000       0.565013        15.3748
  19   0.0000       0.610685        16.6176

MULLIKEN ATOMIC CHARGES
-----------------------
   0 C :    0.195997
   1 O :   -0.368520
   2 C :   -0.171370
   3 C :   -0.225578
   4 H :    0.130092
   5 H :    0.135329
   6 H :    0.156934
   7 H :    0.147117
Sum of atomic charges:   -0.0000000

LOEWDIN ATOMIC CHARGES
----------------------
   0 C :    0.154842
   1 O :   -0.250335
   2 C :   -0.140718
   3 C :   -0.137553
   4 H :    0.068310
   5 H :    0.094666
   6 H :    0.102981
   7 H :    0.107807

  Mayer bond orders larger than 0.100000
B(  0-C ,  1-O ) :   1.9308 B(  0-C ,  2-C ) :   0.9826 B(  0-C ,  4-H ) :   0.9100
B(  2-C ,  3-C ) :   1.9813 B(  2-C ,  5-H ) :   0.9519 B(  3-C ,  6-H ) :   0.9526
B(  3-C ,  7-H ) :   0.9533

-----------------------------------------------------------------------------
         ABSORPTION SPECTRUM VIA TRANSITION ELECTRIC DIPOLE MOMENTS
-----------------------------------------------------------------------------
State   Energy    Wavelength  fosc         T2        TX        TY        TZ
        (cm-1)      (nm)                 (au**2)    (au)      (au)      (au)
-----------------------------------------------------------------------------
   1   36639.3    272.9   0.000009970   0.00009  -0.00180   0.00752  -0.00546

Dispersion correction           -0.026034091
FINAL SINGLE POINT ENERGY      -189.280302621561

DIPOLE MOMENT
-------------
                                X             Y             Z
Electronic contribution:     -1.97905      -1.83143      -0.06115
Nuclear contribution   :      2.20307       2.77813       0.03506
                        -----------------------------------------
Total Dipole Moment    :      0.22402       0.94670      -0.02609
                        -----------------------------------------
Magnitude (a.u.)       :      0.97319
Magnitude (Debye)      :      2.47366

Rotational constants in cm-1:     0.763261     0.222753     0.173334
Rotational constants in MHz : 22881.992317  6677.956127  5196.420287

                             ****ORCA TERMINATED NORMALLY****
TOTAL RUN TIME: 0 days 0 hours 0 minutes 6 seconds 949 msec
