                         Program Version 5.0.3 -  RELEASE  -
|  1> ! B3LYP cc-pVDZ
|  2> !TightSCF
|  3> %scf
|  4>  ConvForced true
|  5>  convergence tight
|  6>  MaxIter 500
|  7> end
|  8>
|  9> %tddft
| 10>  nroots 1
| 11> end
| 12>
| 13> # 	11538
| 14> * xyz 0 1
| 15> 		C   -1.124101  -0.343762   0.022017
| 16> 		O   -2.211091  -0.311347   0.771872
| 17> 		C    0.132862   0.347317   0.379948
| 18> 		C    1.161977   0.282290  -0.288358
| 19> 		H   -1.242923  -0.891829  -1.082422
| 20> 		H   -0.041733   0.734205   1.319801
| 21> 		H    1.345567  -0.558088  -1.042105
| 22> 		H    1.966157   0.790053  -0.111502
| 23> *
| 24>
| 25>                          ****END OF INPUT****

CARTESIAN COORDINATES (ANGSTROEM)
---------------------------------
  C     -1.124101   -0.343762    0.022017
  O     -2.211091   -0.311347    0.771872
  C      0.132862    0.347317    0.379948
  C      1.161977    0.282290   -0.288358
  H     -1.242923   -0.891829   -1.082422
  H     -0.041733    0.734205    1.319801
  H      1.345567   -0.558088   -1.042105
  H      1.966157    0.790053   -0.111502

 Total Charge           Charge          ....    0
 Multiplicity           Mult            ....    1
 Number of Electrons    NEL             ....   30
 Basis Dimension        Dim             ....   76

ORBITAL ENERGIES
----------------

  NO   OCC          E(Eh)            E(eV)
   0   2.0000     -19.142730      -520.9002
   1   2.0000     -10.290691      -280.0239
   2   2.0000     -10.205293      -277.7001
   3   2.0000     -10.201794      -277.6049
   4   2.0000      -0.991282       -26.9741
   5   2.0000      -0.835085       -22.7238
   6   2.0000      -0.663939       -18.0667
   7   2.0000      -0.564627       -15.3643
   8   2.0000      -0.510237       -13.8842
   9   2.0000      -0.467331       -12.7167
  10   2.0000      -0.404520       -11.0076
  11   2.0000      -0.394164       -10.7257
  12   2.0000      -0.367735       -10.0066
  13   2.0000      -0.301122        -8.1939
  14   2.0000      -0.254686        -6.9303
  15   0.0000      -0.077475        -2.1082
  16   0.0000       0.035334         0.9615
  17   0.0000       0.067282         1.8308
  18   0.0000       0.087203         2.3729
  19   0.0000       0.105492         2.8706

MULLIKEN ATOMIC CHARGES
-----------------------
   0 C :    0.104410
   1 O :   -0.267308
   2 C :   -0.011840
   3 C :    0.173742
   4 H :    0.011981
   5 H :   -0.029635
   6 H :    0.037465
   7 H :   -0.018816
Sum of atomic charges:    0.0000000

LOEWDIN ATOMIC CHARGES
----------------------
   0 C :    0.031947
   1 O :   -0.099259
   2 C :   -0.055313
   3 C :    0.024793
   4 H :    0.013724
   5 H :    0.028814
   6 H :    0.052538
   7 H :    0.002755

  Mayer bond orders larger than 0.100000
B(  0-C ,  1-O ) :   2.0386 B(  0-C ,  2-C ) :   1.0897 B(  0-C ,  4-H ) :   0.9075
B(  2-C ,  3-C ) :   1.9558 B(  2-C ,  5-H ) :   0.9522 B(  3-C ,  6-H ) :   0.9256
B(  3-C ,  7-H ) :   0.9093

-----------------------------------------------------------------------------
         ABSORPTION SPECTRUM VIA TRANSITION ELECTRIC DIPOLE MOMENTS
-----------------------------------------------------------------------------
State   Energy    Wavelength  fosc         T2        TX        TY        TZ
        (cm-1)      (nm)                 (au**2)    (au)      (au)      (au)
-----------------------------------------------------------------------------
   1   25171.2    397.3   0.000171332   0.00224  -0.03688   0.02422  -0.01713

FINAL SINGLE POINT ENERGY      -191.631767588480

DIPOLE MOMENT
-------------
                                X             Y             Z
Electronic contribution:     -2.73803      -0.06344       1.24743
Nuclear contribution   :      3.97114       0.16413      -1.70767
                        -----------------------------------------
Total Dipole Moment    :      1.23311       0.10069      -0.46023
                        -----------------------------------------
Magnitude (a.u.)       :      1.32005
Magnitude (Debye)      :      3.35529

Rotational constants in cm-1:     1.603698     0.152777     0.139904
Rotational constants in MHz : 48077.662386  4580.128927  4194.231056

                             ****ORCA TERMINATED NORMALLY****
TOTAL RUN TIME: 0 days 0 hours 3 minutes 6 seconds 457 msec
