                         Program Version 5.0.3 -  RELEASE  -
|  1> ! HF-3c
|  2> !TightSCF
|  3> %scf
|  4>  ConvForced true
|  5>  convergence tight
|  6>  MaxIter 500
|  7> end
|  8>
|  9> %tddft
| 10>  nroots 1
| 11> end
| 12>
| 13> # 	5926
| 14> * xyz 0 1
| 15> 		C   -1.222261  -0.330599  -0.019423
| 16> 		O   -1.566468  -1.249563  -0.692280
| 17> 		C    0.000703   0.509736  -0.317547
| 18> 		C    1.190843   0.041617   0.079288
| 19> 		H   -1.583025  -0.087813   0.937674
| 20> 		H   -0.184628   1.634385  -0.540009
| 21> 		H    1.262148  -1.004687   0.474903
| 22> 		H    2.087440   0.457743   0.013941
| 23> *
| 24>
| 25>                          ****END OF INPUT****

CARTESIAN COORDINATES (ANGSTROEM)
---------------------------------
  C     -1.222261   -0.330599   -0.019423
  O     -1.566468   -1.249563   -0.692280
  C      0.000703    0.509736   -0.317547
  C      1.190843    0.041617    0.079288
  H     -1.583025   -0.087813    0.937674
  H     -0.184628    1.634385   -0.540009
  H      1.262148   -1.004687    0.474903
  H      2.087440    0.457743    0.013941

 Total Charge           Charge          ....    0
 Multiplicity           Mult            ....    1
 Number of Electrons    NEL             ....   30
 Basis Dimension        Dim             ....   24

ORBITAL ENERGIES
----------------

  NO   OCC          E(Eh)            E(eV)
   0   2.0000     -20.393293      -554.9297
   1   2.0000     -11.312324      -307.8240
   2   2.0000     -11.189848      -304.4912
   3   2.0000     -11.177314      -304.1502
   4   2.0000      -1.428471       -38.8707
   5   2.0000      -1.074806       -29.2470
   6   2.0000      -0.895762       -24.3749
   7   2.0000      -0.772128       -21.0107
   8   2.0000      -0.684804       -18.6345
   9   2.0000      -0.649056       -17.6617
  10   2.0000      -0.617902       -16.8140
  11   2.0000      -0.543164       -14.7802
  12   2.0000      -0.515453       -14.0262
  13   2.0000      -0.418177       -11.3792
  14   2.0000      -0.397212       -10.8087
  15   0.0000       0.182653         4.9702
  16   0.0000       0.217098         5.9075
  17   0.0000       0.544227        14.8092
  18   0.0000       0.576196        15.6791
  19   0.0000       0.715124        19.4595

MULLIKEN ATOMIC CHARGES
-----------------------
   0 C :    0.172296
   1 O :   -0.337780
   2 C :   -0.144156
   3 C :   -0.261140
   4 H :    0.143077
   5 H :    0.150654
   6 H :    0.138542
   7 H :    0.138507
Sum of atomic charges:   -0.0000000

LOEWDIN ATOMIC CHARGES
----------------------
   0 C :    0.153982
   1 O :   -0.234395
   2 C :   -0.105843
   3 C :   -0.165133
   4 H :    0.073199
   5 H :    0.104343
   6 H :    0.092111
   7 H :    0.081736

  Mayer bond orders larger than 0.100000
B(  0-C ,  1-O ) :   1.9569 B(  0-C ,  2-C ) :   0.9748 B(  0-C ,  4-H ) :   0.9200
B(  2-C ,  3-C ) :   1.9990 B(  2-C ,  5-H ) :   0.9479 B(  3-C ,  6-H ) :   0.9636
B(  3-C ,  7-H ) :   0.9680

-----------------------------------------------------------------------------
         ABSORPTION SPECTRUM VIA TRANSITION ELECTRIC DIPOLE MOMENTS
-----------------------------------------------------------------------------
State   Energy    Wavelength  fosc         T2        TX        TY        TZ
        (cm-1)      (nm)                 (au**2)    (au)      (au)      (au)
-----------------------------------------------------------------------------
   1   35471.4    281.9   0.000088477   0.00082  -0.01865   0.01684   0.01378

Dispersion correction           -0.025388408
FINAL SINGLE POINT ENERGY      -189.302482863161

DIPOLE MOMENT
-------------
                                X             Y             Z
Electronic contribution:     -2.72881      -1.30744      -1.11561
Nuclear contribution   :      3.06276       2.01690       1.71369
                        -----------------------------------------
Total Dipole Moment    :      0.33395       0.70946       0.59808
                        -----------------------------------------
Magnitude (a.u.)       :      0.98618
Magnitude (Debye)      :      2.50668

Rotational constants in cm-1:     0.898154     0.178341     0.162591
Rotational constants in MHz : 26925.966162  5346.526934  4874.353784

                             ****ORCA TERMINATED NORMALLY****
TOTAL RUN TIME: 0 days 0 hours 0 minutes 10 seconds 58 msec
