                         Program Version 5.0.3 -  RELEASE  -
|  1> ! HF-3c
|  2> !TightSCF
|  3> %scf
|  4>  ConvForced true
|  5>  convergence tight
|  6>  MaxIter 500
|  7> end
|  8>
|  9> %tddft
| 10>  nroots 1
| 11> end
| 12>
| 13> # 	8016
| 14> * xyz 0 1
| 15> 		C   -1.169890  -0.348689   0.096137
| 16> 		O   -1.964798  -0.729754   0.922921
| 17> 		C   -0.047539   0.476596   0.263800
| 18> 		C    1.152830   0.057392  -0.213193
| 19> 		H   -1.321112  -0.629717  -0.863610
| 20> 		H   -0.145053   1.415703   0.739196
| 21> 		H    1.334829  -0.968520  -0.767841
| 22> 		H    2.137322   0.736278  -0.282883
| 23> *
| 24>
| 25>                          ****END OF INPUT****

CARTESIAN COORDINATES (ANGSTROEM)
---------------------------------
  C     -1.169890   -0.348689    0.096137
  O     -1.964798   -0.729754    0.922921
  C     -0.047539    0.476596    0.263800
  C      1.152830    0.057392   -0.213193
  H     -1.321112   -0.629717   -0.863610
  H     -0.145053    1.415703    0.739196
  H      1.334829   -0.968520   -0.767841
  H      2.137322    0.736278   -0.282883

 Total Charge           Charge          ....    0
 Multiplicity           Mult            ....    1
 Number of Electrons    NEL             ....   30
 Basis Dimension        Dim             ....   24

ORBITAL ENERGIES
----------------

  NO   OCC          E(Eh)            E(eV)
   0   2.0000     -20.371028      -554.3239
   1   2.0000     -11.300349      -307.4981
   2   2.0000     -11.190683      -304.5140
   3   2.0000     -11.189142      -304.4720
   4   2.0000      -1.406258       -38.2662
   5   2.0000      -1.089055       -29.6347
   6   2.0000      -0.885816       -24.1043
   7   2.0000      -0.787233       -21.4217
   8   2.0000      -0.679619       -18.4934
   9   2.0000      -0.639409       -17.3992
  10   2.0000      -0.599939       -16.3252
  11   2.0000      -0.525383       -14.2964
  12   2.0000      -0.512153       -13.9364
  13   2.0000      -0.420886       -11.4529
  14   2.0000      -0.390237       -10.6189
  15   0.0000       0.143006         3.8914
  16   0.0000       0.261706         7.1214
  17   0.0000       0.527267        14.3477
  18   0.0000       0.556389        15.1401
  19   0.0000       0.695966        18.9382

MULLIKEN ATOMIC CHARGES
-----------------------
   0 C :    0.145207
   1 O :   -0.336177
   2 C :   -0.200872
   3 C :   -0.186170
   4 H :    0.138039
   5 H :    0.159145
   6 H :    0.137899
   7 H :    0.142929
Sum of atomic charges:   -0.0000000

LOEWDIN ATOMIC CHARGES
----------------------
   0 C :    0.139392
   1 O :   -0.242974
   2 C :   -0.153194
   3 C :   -0.106244
   4 H :    0.065615
   5 H :    0.102857
   6 H :    0.094490
   7 H :    0.100057

  Mayer bond orders larger than 0.100000
B(  0-C ,  1-O ) :   1.9119 B(  0-C ,  2-C ) :   1.0350 B(  0-C ,  4-H ) :   0.9294
B(  2-C ,  3-C ) :   1.9520 B(  2-C ,  5-H ) :   0.9480 B(  3-C ,  6-H ) :   0.9635
B(  3-C ,  7-H ) :   0.9617

-----------------------------------------------------------------------------
         ABSORPTION SPECTRUM VIA TRANSITION ELECTRIC DIPOLE MOMENTS
-----------------------------------------------------------------------------
State   Energy    Wavelength  fosc         T2        TX        TY        TZ
        (cm-1)      (nm)                 (au**2)    (au)      (au)      (au)
-----------------------------------------------------------------------------
   1   32833.1    304.6   0.000028510   0.00029   0.01628   0.00353  -0.00288

Dispersion correction           -0.025490832
FINAL SINGLE POINT ENERGY      -189.302292363526

DIPOLE MOMENT
-------------
                                X             Y             Z
Electronic contribution:     -2.92724      -0.77705       1.40585
Nuclear contribution   :      3.88159       1.10623      -2.11994
                        -----------------------------------------
Total Dipole Moment    :      0.95435       0.32917      -0.71409
                        -----------------------------------------
Magnitude (a.u.)       :      1.23655
Magnitude (Debye)      :      3.14306

Rotational constants in cm-1:     1.321119     0.160493     0.152234
Rotational constants in MHz : 39606.143453  4811.463913  4563.847971

                             ****ORCA TERMINATED NORMALLY****
TOTAL RUN TIME: 0 days 0 hours 0 minutes 10 seconds 343 msec
