                         Program Version 5.0.3 -  RELEASE  -
|  1> ! HF-3c
|  2> !TightSCF
|  3> %scf
|  4>  ConvForced true
|  5>  convergence tight
|  6>  MaxIter 500
|  7> end
|  8>
|  9> %tddft
| 10>  nroots 1
| 11> end
| 12>
| 13> # 	6563
| 14> * xyz 0 1
| 15> 		C   -1.192752  -0.275927  -0.043299
| 16> 		O   -1.246602  -1.482281   0.232477
| 17> 		C   -0.063290   0.509466   0.103923
| 18> 		C    1.187384  -0.023899  -0.072167
| 19> 		H   -2.189684   0.269591  -0.339636
| 20> 		H   -0.013450   1.612756   0.149923
| 21> 		H    1.400366  -1.097314  -0.243371
| 22> 		H    2.090141   0.483658   0.194503
| 23> *
| 24>
| 25>                          ****END OF INPUT****

CARTESIAN COORDINATES (ANGSTROEM)
---------------------------------
  C     -1.192752   -0.275927   -0.043299
  O     -1.246602   -1.482281    0.232477
  C     -0.063290    0.509466    0.103923
  C      1.187384   -0.023899   -0.072167
  H     -2.189684    0.269591   -0.339636
  H     -0.013450    1.612756    0.149923
  H      1.400366   -1.097314   -0.243371
  H      2.090141    0.483658    0.194503

 Total Charge           Charge          ....    0
 Multiplicity           Mult            ....    1
 Number of Electrons    NEL             ....   30
 Basis Dimension        Dim             ....   24

ORBITAL ENERGIES
----------------

  NO   OCC          E(Eh)            E(eV)
   0   2.0000     -20.346539      -553.6575
   1   2.0000     -11.287985      -307.1617
   2   2.0000     -11.195085      -304.6338
   3   2.0000     -11.191460      -304.5351
   4   2.0000      -1.376556       -37.4580
   5   2.0000      -1.082604       -29.4592
   6   2.0000      -0.901032       -24.5183
   7   2.0000      -0.741691       -20.1824
   8   2.0000      -0.701397       -19.0860
   9   2.0000      -0.609866       -16.5953
  10   2.0000      -0.587003       -15.9732
  11   2.0000      -0.528273       -14.3750
  12   2.0000      -0.518043       -14.0967
  13   2.0000      -0.411539       -11.1985
  14   2.0000      -0.378365       -10.2958
  15   0.0000       0.113609         3.0915
  16   0.0000       0.302018         8.2183
  17   0.0000       0.538494        14.6532
  18   0.0000       0.618417        16.8280
  19   0.0000       0.641292        17.4504

MULLIKEN ATOMIC CHARGES
-----------------------
   0 C :    0.151165
   1 O :   -0.350925
   2 C :   -0.193283
   3 C :   -0.190265
   4 H :    0.134756
   5 H :    0.154767
   6 H :    0.152381
   7 H :    0.141405
Sum of atomic charges:    0.0000000

LOEWDIN ATOMIC CHARGES
----------------------
   0 C :    0.137543
   1 O :   -0.268412
   2 C :   -0.148996
   3 C :   -0.089940
   4 H :    0.077766
   5 H :    0.103311
   6 H :    0.099653
   7 H :    0.089075

  Mayer bond orders larger than 0.100000
B(  0-C ,  1-O ) :   1.8676 B(  0-C ,  2-C ) :   1.0898 B(  0-C ,  4-H ) :   0.9194
B(  2-C ,  3-C ) :   1.8944 B(  2-C ,  5-H ) :   0.9523 B(  3-C ,  6-H ) :   0.9628
B(  3-C ,  7-H ) :   0.9686

-----------------------------------------------------------------------------
         ABSORPTION SPECTRUM VIA TRANSITION ELECTRIC DIPOLE MOMENTS
-----------------------------------------------------------------------------
State   Energy    Wavelength  fosc         T2        TX        TY        TZ
        (cm-1)      (nm)                 (au**2)    (au)      (au)      (au)
-----------------------------------------------------------------------------
   1   30126.2    331.9   0.000141182   0.00154   0.03793  -0.00102  -0.01016

Dispersion correction           -0.025690258
FINAL SINGLE POINT ENERGY      -189.329074652416

DIPOLE MOMENT
-------------
                                X             Y             Z
Electronic contribution:     -2.02564      -1.55889       0.21691
Nuclear contribution   :      2.49782       2.50683      -0.44486
                        -----------------------------------------
Total Dipole Moment    :      0.47218       0.94794      -0.22795
                        -----------------------------------------
Magnitude (a.u.)       :      1.08328
Magnitude (Debye)      :      2.75349

Rotational constants in cm-1:     0.749029     0.213142     0.168706
Rotational constants in MHz : 22455.314671  6389.845934  5057.687297

                             ****ORCA TERMINATED NORMALLY****
TOTAL RUN TIME: 0 days 0 hours 0 minutes 12 seconds 961 msec
