                         Program Version 5.0.3 -  RELEASE  -
|  1> ! B3LYP cc-pVDZ
|  2> !TightSCF
|  3> %scf
|  4>  ConvForced true
|  5>  convergence tight
|  6>  MaxIter 500
|  7> end
|  8>
|  9> %tddft
| 10>  nroots 1
| 11> end
| 12>
| 13> # 	9408
| 14> * xyz 0 1
| 15> 		C   -1.242390  -0.373516  -0.079489
| 16> 		O   -1.461208  -1.391449  -0.494866
| 17> 		C    0.036593   0.431978  -0.160647
| 18> 		C    1.225143  -0.017172   0.160441
| 19> 		H   -2.111292   0.218949   0.540325
| 20> 		H    0.002108   1.581473  -0.360268
| 21> 		H    1.408640  -1.058368   0.349561
| 22> 		H    2.122891   0.565604   0.075001
| 23> *
| 24>
| 25>                          ****END OF INPUT****

CARTESIAN COORDINATES (ANGSTROEM)
---------------------------------
  C     -1.242390   -0.373516   -0.079489
  O     -1.461208   -1.391449   -0.494866
  C      0.036593    0.431978   -0.160647
  C      1.225143   -0.017172    0.160441
  H     -2.111292    0.218949    0.540325
  H      0.002108    1.581473   -0.360268
  H      1.408640   -1.058368    0.349561
  H      2.122891    0.565604    0.075001

 Total Charge           Charge          ....    0
 Multiplicity           Mult            ....    1
 Number of Electrons    NEL             ....   30
 Basis Dimension        Dim             ....   76

ORBITAL ENERGIES
----------------

  NO   OCC          E(Eh)            E(eV)
   0   2.0000     -19.150859      -521.1214
   1   2.0000     -10.285297      -279.8772
   2   2.0000     -10.208895      -277.7982
   3   2.0000     -10.201093      -277.5859
   4   2.0000      -1.109152       -30.1816
   5   2.0000      -0.795604       -21.6495
   6   2.0000      -0.643775       -17.5180
   7   2.0000      -0.536814       -14.6075
   8   2.0000      -0.505559       -13.7570
   9   2.0000      -0.462383       -12.5821
  10   2.0000      -0.456244       -12.4150
  11   2.0000      -0.418504       -11.3881
  12   2.0000      -0.375265       -10.2115
  13   2.0000      -0.294199        -8.0055
  14   2.0000      -0.255113        -6.9420
  15   0.0000      -0.040826        -1.1109
  16   0.0000       0.033385         0.9084
  17   0.0000       0.071711         1.9513
  18   0.0000       0.091312         2.4847
  19   0.0000       0.105096         2.8598

MULLIKEN ATOMIC CHARGES
-----------------------
   0 C :    0.139381
   1 O :   -0.088416
   2 C :   -0.136659
   3 C :    0.064199
   4 H :   -0.043096
   5 H :    0.021956
   6 H :    0.018346
   7 H :    0.024289
Sum of atomic charges:    0.0000000

LOEWDIN ATOMIC CHARGES
----------------------
   0 C :   -0.088352
   1 O :    0.100358
   2 C :   -0.080516
   3 C :   -0.010731
   4 H :   -0.021964
   5 H :    0.047665
   6 H :    0.024510
   7 H :    0.029031

  Mayer bond orders larger than 0.100000
B(  0-C ,  1-O ) :   2.3324 B(  0-C ,  2-C ) :   0.9553 B(  0-C ,  4-H ) :   0.8704
B(  2-C ,  3-C ) :   2.0354 B(  2-C ,  5-H ) :   0.9234 B(  3-C ,  6-H ) :   0.9456
B(  3-C ,  7-H ) :   0.9415

-----------------------------------------------------------------------------
         ABSORPTION SPECTRUM VIA TRANSITION ELECTRIC DIPOLE MOMENTS
-----------------------------------------------------------------------------
State   Energy    Wavelength  fosc         T2        TX        TY        TZ
        (cm-1)      (nm)                 (au**2)    (au)      (au)      (au)
-----------------------------------------------------------------------------
   1   34536.5    289.5   0.002844622   0.02712   0.16273   0.01002   0.02310

FINAL SINGLE POINT ENERGY      -191.623069390285

DIPOLE MOMENT
-------------
                                X             Y             Z
Electronic contribution:     -2.27879      -1.97121      -0.91355
Nuclear contribution   :      2.77183       2.58032       1.11534
                        -----------------------------------------
Total Dipole Moment    :      0.49305       0.60911       0.20178
                        -----------------------------------------
Magnitude (a.u.)       :      0.80922
Magnitude (Debye)      :      2.05686

Rotational constants in cm-1:     0.921895     0.182440     0.157736
Rotational constants in MHz : 27637.710912  5469.407050  4728.793543

                             ****ORCA TERMINATED NORMALLY****
TOTAL RUN TIME: 0 days 0 hours 3 minutes 27 seconds 886 msec
