                         Program Version 5.0.3 -  RELEASE  -
|  1> ! B3LYP cc-pVDZ
|  2> !TightSCF
|  3> %scf
|  4>  ConvForced true
|  5>  convergence tight
|  6>  MaxIter 500
|  7> end
|  8>
|  9> %tddft
| 10>  nroots 1
| 11> end
| 12>
| 13> # 	13691
| 14> * xyz 0 1
| 15> 		C   -1.200034  -0.340872   0.039081
| 16> 		O   -1.886153  -0.802383   0.872764
| 17> 		C   -0.057128   0.530878   0.243155
| 18> 		C    1.203352   0.032565  -0.187981
| 19> 		H   -1.392051  -0.609347  -0.871571
| 20> 		H   -0.088781   1.523018   0.764517
| 21> 		H    1.224145  -0.878113  -0.715218
| 22> 		H    2.162997   0.556963  -0.090783
| 23> *
| 24>
| 25>                          ****END OF INPUT****

CARTESIAN COORDINATES (ANGSTROEM)
---------------------------------
  C     -1.200034   -0.340872    0.039081
  O     -1.886153   -0.802383    0.872764
  C     -0.057128    0.530878    0.243155
  C      1.203352    0.032565   -0.187981
  H     -1.392051   -0.609347   -0.871571
  H     -0.088781    1.523018    0.764517
  H      1.224145   -0.878113   -0.715218
  H      2.162997    0.556963   -0.090783

 Total Charge           Charge          ....    0
 Multiplicity           Mult            ....    1
 Number of Electrons    NEL             ....   30
 Basis Dimension        Dim             ....   76

ORBITAL ENERGIES
----------------

  NO   OCC          E(Eh)            E(eV)
   0   2.0000     -19.134311      -520.6711
   1   2.0000     -10.260356      -279.1985
   2   2.0000     -10.216603      -278.0079
   3   2.0000     -10.215787      -277.9857
   4   2.0000      -1.067068       -29.0364
   5   2.0000      -0.788223       -21.4486
   6   2.0000      -0.654711       -17.8156
   7   2.0000      -0.584112       -15.8945
   8   2.0000      -0.495380       -13.4800
   9   2.0000      -0.463413       -12.6101
  10   2.0000      -0.435076       -11.8390
  11   2.0000      -0.403136       -10.9699
  12   2.0000      -0.380644       -10.3578
  13   2.0000      -0.275797        -7.5048
  14   2.0000      -0.253519        -6.8986
  15   0.0000      -0.052732        -1.4349
  16   0.0000       0.006084         0.1656
  17   0.0000       0.087848         2.3905
  18   0.0000       0.090973         2.4755
  19   0.0000       0.126288         3.4365

MULLIKEN ATOMIC CHARGES
-----------------------
   0 C :    0.255353
   1 O :   -0.167108
   2 C :   -0.123285
   3 C :    0.012357
   4 H :   -0.062491
   5 H :    0.028723
   6 H :    0.014808
   7 H :    0.041644
Sum of atomic charges:   -0.0000000

LOEWDIN ATOMIC CHARGES
----------------------
   0 C :   -0.050979
   1 O :    0.044288
   2 C :   -0.042478
   3 C :   -0.005487
   4 H :   -0.030922
   5 H :    0.040807
   6 H :    0.013699
   7 H :    0.031070

  Mayer bond orders larger than 0.100000
B(  0-C ,  1-O ) :   2.2476 B(  0-C ,  2-C ) :   1.0089 B(  0-C ,  4-H ) :   0.9394
B(  2-C ,  3-C ) :   1.9733 B(  2-C ,  5-H ) :   0.9476 B(  3-C ,  6-H ) :   0.9547
B(  3-C ,  7-H ) :   0.9577

-----------------------------------------------------------------------------
         ABSORPTION SPECTRUM VIA TRANSITION ELECTRIC DIPOLE MOMENTS
-----------------------------------------------------------------------------
State   Energy    Wavelength  fosc         T2        TX        TY        TZ
        (cm-1)      (nm)                 (au**2)    (au)      (au)      (au)
-----------------------------------------------------------------------------
   1   31400.6    318.5   0.000495607   0.00520   0.05983   0.02934  -0.02748

FINAL SINGLE POINT ENERGY      -191.626144253294

DIPOLE MOMENT
-------------
                                X             Y             Z
Electronic contribution:     -3.00138      -0.77696       1.21401
Nuclear contribution   :      3.70273       1.18691      -1.79626
                        -----------------------------------------
Total Dipole Moment    :      0.70135       0.40995      -0.58226
                        -----------------------------------------
Magnitude (a.u.)       :      0.99949
Magnitude (Debye)      :      2.54050

Rotational constants in cm-1:     1.155566     0.162235     0.154416
Rotational constants in MHz : 34642.993546  4863.697529  4629.285652

                             ****ORCA TERMINATED NORMALLY****
TOTAL RUN TIME: 0 days 0 hours 3 minutes 20 seconds 889 msec
