                         Program Version 5.0.3 -  RELEASE  -
|  1> ! HF-3c
|  2> !TightSCF
|  3> %scf
|  4>  ConvForced true
|  5>  convergence tight
|  6>  MaxIter 500
|  7> end
|  8>
|  9> %tddft
| 10>  nroots 1
| 11> end
| 12>
| 13> # 	28604
| 14> * xyz 0 1
| 15> 		C   -0.658128  -0.487478   0.013376
| 16> 		O   -0.558662  -1.580983  -0.030028
| 17> 		C    0.672471   0.390988  -0.002420
| 18> 		C    1.831149  -0.114350   0.006729
| 19> 		H   -1.490853   0.202294   0.248244
| 20> 		H    0.627933   1.436434  -0.146426
| 21> 		H    2.077382  -1.193315   0.361017
| 22> 		H    2.616995   0.430242  -0.224634
| 23> *
| 24>
| 25>                          ****END OF INPUT****

CARTESIAN COORDINATES (ANGSTROEM)
---------------------------------
  C     -0.658128   -0.487478    0.013376
  O     -0.558662   -1.580983   -0.030028
  C      0.672471    0.390988   -0.002420
  C      1.831149   -0.114350    0.006729
  H     -1.490853    0.202294    0.248244
  H      0.627933    1.436434   -0.146426
  H      2.077382   -1.193315    0.361017
  H      2.616995    0.430242   -0.224634

 Total Charge           Charge          ....    0
 Multiplicity           Mult            ....    1
 Number of Electrons    NEL             ....   30
 Basis Dimension        Dim             ....   24

ORBITAL ENERGIES
----------------

  NO   OCC          E(Eh)            E(eV)
   0   2.0000     -20.429416      -555.9127
   1   2.0000     -11.342034      -308.6324
   2   2.0000     -11.175021      -304.0878
   3   2.0000     -11.167473      -303.8824
   4   2.0000      -1.508814       -41.0569
   5   2.0000      -1.084132       -29.5007
   6   2.0000      -0.878308       -23.9000
   7   2.0000      -0.763256       -20.7693
   8   2.0000      -0.718728       -19.5576
   9   2.0000      -0.647553       -17.6208
  10   2.0000      -0.629529       -17.1304
  11   2.0000      -0.600115       -16.3299
  12   2.0000      -0.531337       -14.4584
  13   2.0000      -0.417427       -11.3588
  14   2.0000      -0.391492       -10.6530
  15   0.0000       0.169175         4.6035
  16   0.0000       0.318388         8.6638
  17   0.0000       0.507212        13.8020
  18   0.0000       0.617502        16.8031
  19   0.0000       0.638625        17.3779

MULLIKEN ATOMIC CHARGES
-----------------------
   0 C :    0.229001
   1 O :   -0.361728
   2 C :   -0.183105
   3 C :   -0.252874
   4 H :    0.145493
   5 H :    0.132991
   6 H :    0.153906
   7 H :    0.136316
Sum of atomic charges:   -0.0000000

LOEWDIN ATOMIC CHARGES
----------------------
   0 C :    0.171713
   1 O :   -0.217846
   2 C :   -0.144786
   3 C :   -0.153155
   4 H :    0.075605
   5 H :    0.081538
   6 H :    0.106981
   7 H :    0.079951

  Mayer bond orders larger than 0.100000
B(  0-C ,  1-O ) :   1.9705 B(  0-C ,  2-C ) :   0.9315 B(  0-C ,  4-H ) :   0.9036
B(  2-C ,  3-C ) :   2.0022 B(  2-C ,  5-H ) :   0.9605 B(  3-C ,  6-H ) :   0.9543
B(  3-C ,  7-H ) :   0.9652

-----------------------------------------------------------------------------
         ABSORPTION SPECTRUM VIA TRANSITION ELECTRIC DIPOLE MOMENTS
-----------------------------------------------------------------------------
State   Energy    Wavelength  fosc         T2        TX        TY        TZ
        (cm-1)      (nm)                 (au**2)    (au)      (au)      (au)
-----------------------------------------------------------------------------
   1   39302.1    254.4   0.000615333   0.00515   0.07044   0.00286   0.01358

Dispersion correction           -0.025827104
FINAL SINGLE POINT ENERGY      -189.258441441185

DIPOLE MOMENT
-------------
                                X             Y             Z
Electronic contribution:     -2.43701      -1.85069      -0.14614
Nuclear contribution   :      2.43786       2.60876       0.22491
                        -----------------------------------------
Total Dipole Moment    :      0.00085       0.75807       0.07877
                        -----------------------------------------
Magnitude (a.u.)       :      0.76215
Magnitude (Debye)      :      1.93723

Rotational constants in cm-1:     0.819915     0.210142     0.168216
Rotational constants in MHz : 24580.440190  6299.903605  5042.988054

                             ****ORCA TERMINATED NORMALLY****
TOTAL RUN TIME: 0 days 0 hours 0 minutes 14 seconds 510 msec
