                         Program Version 5.0.3 -  RELEASE  -
|  1> ! HF-3c
|  2> !TightSCF
|  3> %scf
|  4>  ConvForced true
|  5>  convergence tight
|  6>  MaxIter 500
|  7> end
|  8>
|  9> %tddft
| 10>  nroots 1
| 11> end
| 12>
| 13> # 	29560
| 14> * xyz 0 1
| 15> 		C   -0.581868  -0.421189   0.100693
| 16> 		O   -0.578387  -1.626028  -0.058970
| 17> 		C    0.599683   0.384193  -0.048002
| 18> 		C    1.872312  -0.088167   0.008809
| 19> 		H   -1.647454   0.001871   0.110754
| 20> 		H    0.570062   1.438461  -0.235957
| 21> 		H    1.838739  -1.296901   0.361547
| 22> 		H    2.840215   0.374394  -0.054386
| 23> *
| 24>
| 25>                          ****END OF INPUT****

CARTESIAN COORDINATES (ANGSTROEM)
---------------------------------
  C     -0.581868   -0.421189    0.100693
  O     -0.578387   -1.626028   -0.058970
  C      0.599683    0.384193   -0.048002
  C      1.872312   -0.088167    0.008809
  H     -1.647454    0.001871    0.110754
  H      0.570062    1.438461   -0.235957
  H      1.838739   -1.296901    0.361547
  H      2.840215    0.374394   -0.054386

 Total Charge           Charge          ....    0
 Multiplicity           Mult            ....    1
 Number of Electrons    NEL             ....   30
 Basis Dimension        Dim             ....   24

ORBITAL ENERGIES
----------------

  NO   OCC          E(Eh)            E(eV)
   0   2.0000     -20.350184      -553.7567
   1   2.0000     -11.291443      -307.2558
   2   2.0000     -11.188021      -304.4415
   3   2.0000     -11.182866      -304.3012
   4   2.0000      -1.395379       -37.9702
   5   2.0000      -1.067466       -29.0472
   6   2.0000      -0.879633       -23.9360
   7   2.0000      -0.738282       -20.0897
   8   2.0000      -0.701537       -19.0898
   9   2.0000      -0.615475       -16.7479
  10   2.0000      -0.581954       -15.8358
  11   2.0000      -0.536447       -14.5975
  12   2.0000      -0.484552       -13.1853
  13   2.0000      -0.412585       -11.2270
  14   2.0000      -0.380619       -10.3572
  15   0.0000       0.128375         3.4933
  16   0.0000       0.309061         8.4100
  17   0.0000       0.486429        13.2364
  18   0.0000       0.542533        14.7631
  19   0.0000       0.654443        17.8083

MULLIKEN ATOMIC CHARGES
-----------------------
   0 C :    0.151197
   1 O :   -0.357562
   2 C :   -0.198586
   3 C :   -0.185212
   4 H :    0.144353
   5 H :    0.141594
   6 H :    0.154375
   7 H :    0.149841
Sum of atomic charges:    0.0000000

LOEWDIN ATOMIC CHARGES
----------------------
   0 C :    0.134816
   1 O :   -0.266990
   2 C :   -0.155442
   3 C :   -0.096484
   4 H :    0.083865
   5 H :    0.089187
   6 H :    0.113905
   7 H :    0.097142

  Mayer bond orders larger than 0.100000
B(  0-C ,  1-O ) :   1.8818 B(  0-C ,  2-C ) :   1.0544 B(  0-C ,  4-H ) :   0.9263
B(  2-C ,  3-C ) :   1.9208 B(  2-C ,  5-H ) :   0.9575 B(  3-C ,  6-H ) :   0.9535
B(  3-C ,  7-H ) :   0.9659

-----------------------------------------------------------------------------
         ABSORPTION SPECTRUM VIA TRANSITION ELECTRIC DIPOLE MOMENTS
-----------------------------------------------------------------------------
State   Energy    Wavelength  fosc         T2        TX        TY        TZ
        (cm-1)      (nm)                 (au**2)    (au)      (au)      (au)
-----------------------------------------------------------------------------
   1   31430.6    318.2   0.000045622   0.00048   0.01405  -0.00323   0.01643

Dispersion correction           -0.025638102
FINAL SINGLE POINT ENERGY      -189.312819962477

DIPOLE MOMENT
-------------
                                X             Y             Z
Electronic contribution:     -1.82736      -1.43292      -0.04548
Nuclear contribution   :      2.22263       2.27590       0.17127
                        -----------------------------------------
Total Dipole Moment    :      0.39528       0.84299       0.12580
                        -----------------------------------------
Magnitude (a.u.)       :      0.93952
Magnitude (Debye)      :      2.38807

Rotational constants in cm-1:     0.777795     0.206567     0.164522
Rotational constants in MHz : 23317.711516  6192.708492  4932.250440

                             ****ORCA TERMINATED NORMALLY****
TOTAL RUN TIME: 0 days 0 hours 0 minutes 12 seconds 93 msec
