                         Program Version 5.0.3 -  RELEASE  -
|  1> ! HF-3c
|  2> !TightSCF
|  3> %scf
|  4>  ConvForced true
|  5>  convergence tight
|  6>  MaxIter 500
|  7> end
|  8>
|  9> %tddft
| 10>  nroots 1
| 11> end
| 12>
| 13> # 	20784
| 14> * xyz 0 1
| 15> 		C   -0.621470  -0.449851   0.011625
| 16> 		O   -0.568223  -1.629219   0.008324
| 17> 		C    0.641901   0.403794  -0.029921
| 18> 		C    1.840661  -0.138665  -0.022032
| 19> 		H   -1.451000   0.218296  -0.030568
| 20> 		H    0.542556   1.618508   0.131714
| 21> 		H    1.973413  -1.119514  -0.042314
| 22> 		H    2.757500   0.616663   0.313153
| 23> *
| 24>
| 25>                          ****END OF INPUT****

CARTESIAN COORDINATES (ANGSTROEM)
---------------------------------
  C     -0.621470   -0.449851    0.011625
  O     -0.568223   -1.629219    0.008324
  C      0.641901    0.403794   -0.029921
  C      1.840661   -0.138665   -0.022032
  H     -1.451000    0.218296   -0.030568
  H      0.542556    1.618508    0.131714
  H      1.973413   -1.119514   -0.042314
  H      2.757500    0.616663    0.313153

 Total Charge           Charge          ....    0
 Multiplicity           Mult            ....    1
 Number of Electrons    NEL             ....   30
 Basis Dimension        Dim             ....   24

ORBITAL ENERGIES
----------------

  NO   OCC          E(Eh)            E(eV)
   0   2.0000     -20.386543      -554.7460
   1   2.0000     -11.308695      -307.7252
   2   2.0000     -11.176835      -304.1372
   3   2.0000     -11.171497      -303.9919
   4   2.0000      -1.430185       -38.9173
   5   2.0000      -1.066135       -29.0110
   6   2.0000      -0.889336       -24.2001
   7   2.0000      -0.740934       -20.1618
   8   2.0000      -0.695220       -18.9179
   9   2.0000      -0.626168       -17.0389
  10   2.0000      -0.569451       -15.4956
  11   2.0000      -0.553149       -15.0519
  12   2.0000      -0.517057       -14.0698
  13   2.0000      -0.408102       -11.1050
  14   2.0000      -0.390666       -10.6306
  15   0.0000       0.142873         3.8878
  16   0.0000       0.310837         8.4583
  17   0.0000       0.471642        12.8340
  18   0.0000       0.546697        14.8764
  19   0.0000       0.640064        17.4170

MULLIKEN ATOMIC CHARGES
-----------------------
   0 C :    0.175539
   1 O :   -0.352166
   2 C :   -0.155964
   3 C :   -0.237882
   4 H :    0.140237
   5 H :    0.133589
   6 H :    0.148157
   7 H :    0.148490
Sum of atomic charges:   -0.0000000

LOEWDIN ATOMIC CHARGES
----------------------
   0 C :    0.153846
   1 O :   -0.245482
   2 C :   -0.128747
   3 C :   -0.142797
   4 H :    0.071449
   5 H :    0.093940
   6 H :    0.088113
   7 H :    0.109678

  Mayer bond orders larger than 0.100000
B(  0-C ,  1-O ) :   1.9307 B(  0-C ,  2-C ) :   0.9906 B(  0-C ,  4-H ) :   0.9217
B(  2-C ,  3-C ) :   1.9671 B(  2-C ,  5-H ) :   0.9563 B(  3-C ,  6-H ) :   0.9628
B(  3-C ,  7-H ) :   0.9571

-----------------------------------------------------------------------------
         ABSORPTION SPECTRUM VIA TRANSITION ELECTRIC DIPOLE MOMENTS
-----------------------------------------------------------------------------
State   Energy    Wavelength  fosc         T2        TX        TY        TZ
        (cm-1)      (nm)                 (au**2)    (au)      (au)      (au)
-----------------------------------------------------------------------------
   1   34284.7    291.7   0.000082388   0.00079   0.02804   0.00135   0.00168

Dispersion correction           -0.025629046
FINAL SINGLE POINT ENERGY      -189.291090842888

DIPOLE MOMENT
-------------
                                X             Y             Z
Electronic contribution:     -2.22280      -2.01229      -0.23629
Nuclear contribution   :      2.42758       3.03775       0.34751
                        -----------------------------------------
Total Dipole Moment    :      0.20478       1.02545       0.11123
                        -----------------------------------------
Magnitude (a.u.)       :      1.05160
Magnitude (Debye)      :      2.67296

Rotational constants in cm-1:     0.765049     0.208247     0.164131
Rotational constants in MHz : 22935.605613  6243.099144  4920.528596

                             ****ORCA TERMINATED NORMALLY****
TOTAL RUN TIME: 0 days 0 hours 0 minutes 16 seconds 24 msec
