                         Program Version 5.0.3 -  RELEASE  -
|  1> ! HF-3c
|  2> !TightSCF
|  3> %scf
|  4>  ConvForced true
|  5>  convergence tight
|  6>  MaxIter 500
|  7> end
|  8>
|  9> %tddft
| 10>  nroots 1
| 11> end
| 12>
| 13> # 	4456
| 14> * xyz 0 1
| 15> 		C   -1.209674  -0.318252   0.047629
| 16> 		O   -2.138225  -0.381759   0.850836
| 17> 		C    0.074097   0.478725   0.261743
| 18> 		C    1.235849   0.131823  -0.334261
| 19> 		H   -1.360734  -1.124853  -0.894160
| 20> 		H    0.109815   1.169116   1.105479
| 21> 		H    1.347779  -0.567289  -0.991437
| 22> 		H    1.934497   0.541024  -0.050073
| 23> *
| 24>
| 25>                          ****END OF INPUT****

CARTESIAN COORDINATES (ANGSTROEM)
---------------------------------
  C     -1.209674   -0.318252    0.047629
  O     -2.138225   -0.381759    0.850836
  C      0.074097    0.478725    0.261743
  C      1.235849    0.131823   -0.334261
  H     -1.360734   -1.124853   -0.894160
  H      0.109815    1.169116    1.105479
  H      1.347779   -0.567289   -0.991437
  H      1.934497    0.541024   -0.050073

 Total Charge           Charge          ....    0
 Multiplicity           Mult            ....    1
 Number of Electrons    NEL             ....   30
 Basis Dimension        Dim             ....   24

ORBITAL ENERGIES
----------------

  NO   OCC          E(Eh)            E(eV)
   0   2.0000     -20.363736      -554.1254
   1   2.0000     -11.292904      -307.2955
   2   2.0000     -11.218389      -305.2679
   3   2.0000     -11.209301      -305.0206
   4   2.0000      -1.389925       -37.8218
   5   2.0000      -1.104615       -30.0581
   6   2.0000      -0.903971       -24.5983
   7   2.0000      -0.775201       -21.0943
   8   2.0000      -0.693071       -18.8594
   9   2.0000      -0.668397       -18.1880
  10   2.0000      -0.582776       -15.8581
  11   2.0000      -0.569816       -15.5055
  12   2.0000      -0.530725       -14.4418
  13   2.0000      -0.408936       -11.1277
  14   2.0000      -0.406289       -11.0557
  15   0.0000       0.120089         3.2678
  16   0.0000       0.275660         7.5011
  17   0.0000       0.456576        12.4241
  18   0.0000       0.596071        16.2199
  19   0.0000       0.660515        17.9735

MULLIKEN ATOMIC CHARGES
-----------------------
   0 C :    0.171364
   1 O :   -0.350425
   2 C :   -0.121014
   3 C :   -0.306383
   4 H :    0.142233
   5 H :    0.164695
   6 H :    0.154120
   7 H :    0.145411
Sum of atomic charges:    0.0000000

LOEWDIN ATOMIC CHARGES
----------------------
   0 C :    0.141428
   1 O :   -0.259567
   2 C :   -0.069320
   3 C :   -0.183416
   4 H :    0.090580
   5 H :    0.107524
   6 H :    0.093730
   7 H :    0.079040

  Mayer bond orders larger than 0.100000
B(  0-C ,  1-O ) :   1.9190 B(  0-C ,  2-C ) :   1.0083 B(  0-C ,  4-H ) :   0.9135
B(  2-C ,  3-C ) :   1.9561 B(  2-C ,  5-H ) :   0.9538 B(  3-C ,  6-H ) :   0.9659
B(  3-C ,  7-H ) :   0.9697

-----------------------------------------------------------------------------
         ABSORPTION SPECTRUM VIA TRANSITION ELECTRIC DIPOLE MOMENTS
-----------------------------------------------------------------------------
State   Energy    Wavelength  fosc         T2        TX        TY        TZ
        (cm-1)      (nm)                 (au**2)    (au)      (au)      (au)
-----------------------------------------------------------------------------
   1   31162.9    320.9   0.000074421   0.00079   0.01616  -0.01965  -0.01178

Dispersion correction           -0.025009518
FINAL SINGLE POINT ENERGY      -189.255274419290

DIPOLE MOMENT
-------------
                                X             Y             Z
Electronic contribution:     -3.18072      -0.15860       1.08116
Nuclear contribution   :      3.95449       0.18454      -1.60472
                        -----------------------------------------
Total Dipole Moment    :      0.77377       0.02594      -0.52356
                        -----------------------------------------
Magnitude (a.u.)       :      0.93462
Magnitude (Debye)      :      2.37561

Rotational constants in cm-1:     1.460493     0.149684     0.137879
Rotational constants in MHz : 43784.478616  4487.421354  4133.512363

                             ****ORCA TERMINATED NORMALLY****
TOTAL RUN TIME: 0 days 0 hours 0 minutes 13 seconds 434 msec
