                         Program Version 5.0.3 -  RELEASE  -
|  1> ! HF-3c
|  2> !TightSCF
|  3> %scf
|  4>  ConvForced true
|  5>  convergence tight
|  6>  MaxIter 500
|  7> end
|  8>
|  9> %tddft
| 10>  nroots 1
| 11> end
| 12>
| 13> # 	8265
| 14> * xyz 0 1
| 15> 		C   -1.192634  -0.279784   0.022977
| 16> 		O   -1.436660  -1.396614   0.511847
| 17> 		C   -0.012619   0.518562   0.194990
| 18> 		C    1.208658   0.067273  -0.120085
| 19> 		H   -1.862371  -0.015321  -0.748420
| 20> 		H   -0.129632   1.452295   0.540541
| 21> 		H    1.238394  -0.999161  -0.492864
| 22> 		H    2.188284   0.713249   0.069565
| 23> *
| 24>
| 25>                          ****END OF INPUT****

CARTESIAN COORDINATES (ANGSTROEM)
---------------------------------
  C     -1.192634   -0.279784    0.022977
  O     -1.436660   -1.396614    0.511847
  C     -0.012619    0.518562    0.194990
  C      1.208658    0.067273   -0.120085
  H     -1.862371   -0.015321   -0.748420
  H     -0.129632    1.452295    0.540541
  H      1.238394   -0.999161   -0.492864
  H      2.188284    0.713249    0.069565

 Total Charge           Charge          ....    0
 Multiplicity           Mult            ....    1
 Number of Electrons    NEL             ....   30
 Basis Dimension        Dim             ....   24

ORBITAL ENERGIES
----------------

  NO   OCC          E(Eh)            E(eV)
   0   2.0000     -20.362087      -554.0806
   1   2.0000     -11.290457      -307.2289
   2   2.0000     -11.191599      -304.5389
   3   2.0000     -11.190255      -304.5023
   4   2.0000      -1.381910       -37.6037
   5   2.0000      -1.088422       -29.6175
   6   2.0000      -0.892716       -24.2920
   7   2.0000      -0.766659       -20.8618
   8   2.0000      -0.704023       -19.1574
   9   2.0000      -0.613087       -16.6830
  10   2.0000      -0.600518       -16.3409
  11   2.0000      -0.539859       -14.6903
  12   2.0000      -0.492037       -13.3890
  13   2.0000      -0.421798       -11.4777
  14   2.0000      -0.398793       -10.8517
  15   0.0000       0.154193         4.1958
  16   0.0000       0.236827         6.4444
  17   0.0000       0.538356        14.6494
  18   0.0000       0.585475        15.9316
  19   0.0000       0.693520        18.8716

MULLIKEN ATOMIC CHARGES
-----------------------
   0 C :    0.143196
   1 O :   -0.332719
   2 C :   -0.205211
   3 C :   -0.197044
   4 H :    0.141369
   5 H :    0.147902
   6 H :    0.148342
   7 H :    0.154164
Sum of atomic charges:   -0.0000000

LOEWDIN ATOMIC CHARGES
----------------------
   0 C :    0.140771
   1 O :   -0.249518
   2 C :   -0.151730
   3 C :   -0.112781
   4 H :    0.074000
   5 H :    0.089476
   6 H :    0.099848
   7 H :    0.109933

  Mayer bond orders larger than 0.100000
B(  0-C ,  1-O ) :   1.9230 B(  0-C ,  2-C ) :   1.0232 B(  0-C ,  4-H ) :   0.9301
B(  2-C ,  3-C ) :   1.9642 B(  2-C ,  5-H ) :   0.9533 B(  3-C ,  6-H ) :   0.9616
B(  3-C ,  7-H ) :   0.9587

-----------------------------------------------------------------------------
         ABSORPTION SPECTRUM VIA TRANSITION ELECTRIC DIPOLE MOMENTS
-----------------------------------------------------------------------------
State   Energy    Wavelength  fosc         T2        TX        TY        TZ
        (cm-1)      (nm)                 (au**2)    (au)      (au)      (au)
-----------------------------------------------------------------------------
   1   31204.8    320.5   0.000037098   0.00039  -0.00759  -0.00760  -0.01661

Dispersion correction           -0.025602075
FINAL SINGLE POINT ENERGY      -189.318509555427

DIPOLE MOMENT
-------------
                                X             Y             Z
Electronic contribution:     -2.22792      -1.44298       0.74888
Nuclear contribution   :      2.76940       2.23579      -1.17114
                        -----------------------------------------
Total Dipole Moment    :      0.54148       0.79282      -0.42226
                        -----------------------------------------
Magnitude (a.u.)       :      1.04884
Magnitude (Debye)      :      2.66593

Rotational constants in cm-1:     0.880435     0.184649     0.161282
Rotational constants in MHz : 26394.763583  5535.623304  4835.100187

                             ****ORCA TERMINATED NORMALLY****
TOTAL RUN TIME: 0 days 0 hours 0 minutes 11 seconds 297 msec
