                         Program Version 5.0.3 -  RELEASE  -
|  1> ! HF-3c
|  2> !TightSCF
|  3> %scf
|  4>  ConvForced true
|  5>  convergence tight
|  6>  MaxIter 500
|  7> end
|  8>
|  9> %tddft
| 10>  nroots 1
| 11> end
| 12>
| 13> # 	24719
| 14> * xyz 0 1
| 15> 		C   -0.596615  -0.374940   0.074460
| 16> 		O   -0.565677  -1.656415  -0.049919
| 17> 		C    0.615774   0.367151  -0.041168
| 18> 		C    1.863257  -0.123757   0.014481
| 19> 		H   -1.634828   0.182680   0.155211
| 20> 		H    0.500443   1.559804  -0.172189
| 21> 		H    1.996592  -1.101862   0.353237
| 22> 		H    2.639565   0.499049  -0.136328
| 23> *
| 24>
| 25>                          ****END OF INPUT****

CARTESIAN COORDINATES (ANGSTROEM)
---------------------------------
  C     -0.596615   -0.374940    0.074460
  O     -0.565677   -1.656415   -0.049919
  C      0.615774    0.367151   -0.041168
  C      1.863257   -0.123757    0.014481
  H     -1.634828    0.182680    0.155211
  H      0.500443    1.559804   -0.172189
  H      1.996592   -1.101862    0.353237
  H      2.639565    0.499049   -0.136328

 Total Charge           Charge          ....    0
 Multiplicity           Mult            ....    1
 Number of Electrons    NEL             ....   30
 Basis Dimension        Dim             ....   24

ORBITAL ENERGIES
----------------

  NO   OCC          E(Eh)            E(eV)
   0   2.0000     -20.340405      -553.4905
   1   2.0000     -11.278287      -306.8978
   2   2.0000     -11.194753      -304.6247
   3   2.0000     -11.193384      -304.5875
   4   2.0000      -1.346642       -36.6440
   5   2.0000      -1.080549       -29.4032
   6   2.0000      -0.905798       -24.6480
   7   2.0000      -0.733601       -19.9623
   8   2.0000      -0.694086       -18.8870
   9   2.0000      -0.607002       -16.5174
  10   2.0000      -0.594407       -16.1746
  11   2.0000      -0.514189       -13.9918
  12   2.0000      -0.509242       -13.8572
  13   2.0000      -0.416412       -11.3312
  14   2.0000      -0.379465       -10.3258
  15   0.0000       0.109577         2.9817
  16   0.0000       0.304537         8.2869
  17   0.0000       0.496521        13.5110
  18   0.0000       0.566471        15.4145
  19   0.0000       0.702340        19.1116

MULLIKEN ATOMIC CHARGES
-----------------------
   0 C :    0.133808
   1 O :   -0.338288
   2 C :   -0.150234
   3 C :   -0.240956
   4 H :    0.146042
   5 H :    0.141258
   6 H :    0.161313
   7 H :    0.147057
Sum of atomic charges:   -0.0000000

LOEWDIN ATOMIC CHARGES
----------------------
   0 C :    0.128477
   1 O :   -0.266946
   2 C :   -0.111753
   3 C :   -0.132438
   4 H :    0.090655
   5 H :    0.098194
   6 H :    0.103432
   7 H :    0.090379

  Mayer bond orders larger than 0.100000
B(  0-C ,  1-O ) :   1.8701 B(  0-C ,  2-C ) :   1.0777 B(  0-C ,  4-H ) :   0.9265
B(  2-C ,  3-C ) :   1.9185 B(  2-C ,  5-H ) :   0.9520 B(  3-C ,  6-H ) :   0.9603
B(  3-C ,  7-H ) :   0.9672

-----------------------------------------------------------------------------
         ABSORPTION SPECTRUM VIA TRANSITION ELECTRIC DIPOLE MOMENTS
-----------------------------------------------------------------------------
State   Energy    Wavelength  fosc         T2        TX        TY        TZ
        (cm-1)      (nm)                 (au**2)    (au)      (au)      (au)
-----------------------------------------------------------------------------
   1   27277.4    366.6   0.000011392   0.00014   0.00577  -0.00548  -0.00862

Dispersion correction           -0.025566622
FINAL SINGLE POINT ENERGY      -189.333608093163

DIPOLE MOMENT
-------------
                                X             Y             Z
Electronic contribution:     -1.93244      -1.79941      -0.07683
Nuclear contribution   :      2.12852       2.85456       0.18840
                        -----------------------------------------
Total Dipole Moment    :      0.19608       1.05515       0.11157
                        -----------------------------------------
Magnitude (a.u.)       :      1.07900
Magnitude (Debye)      :      2.74259

Rotational constants in cm-1:     0.727118     0.209908     0.163924
Rotational constants in MHz : 21798.438802  6292.889692  4914.304445

                             ****ORCA TERMINATED NORMALLY****
TOTAL RUN TIME: 0 days 0 hours 0 minutes 9 seconds 17 msec
