                         Program Version 5.0.3 -  RELEASE  -
|  1> ! B3LYP cc-pVDZ
|  2> !TightSCF
|  3> %scf
|  4>  ConvForced true
|  5>  convergence tight
|  6>  MaxIter 500
|  7> end
|  8>
|  9> %tddft
| 10>  nroots 1
| 11> end
| 12>
| 13> # 	939
| 14> * xyz 0 1
| 15> 		C   -1.208559  -0.298015  -0.003286
| 16> 		O   -2.137368  -0.332513  -0.702319
| 17> 		C    0.030763   0.409054  -0.386086
| 18> 		C    1.200833   0.145826   0.330489
| 19> 		H   -1.058651  -1.110981   0.866133
| 20> 		H    0.071081   1.297204  -1.286596
| 21> 		H    1.211183  -0.864558   1.098399
| 22> 		H    1.924039   0.812674   0.102126
| 23> *
| 24>
| 25>                          ****END OF INPUT****

CARTESIAN COORDINATES (ANGSTROEM)
---------------------------------
  C     -1.208559   -0.298015   -0.003286
  O     -2.137368   -0.332513   -0.702319
  C      0.030763    0.409054   -0.386086
  C      1.200833    0.145826    0.330489
  H     -1.058651   -1.110981    0.866133
  H      0.071081    1.297204   -1.286596
  H      1.211183   -0.864558    1.098399
  H      1.924039    0.812674    0.102126

 Total Charge           Charge          ....    0
 Multiplicity           Mult            ....    1
 Number of Electrons    NEL             ....   30
 Basis Dimension        Dim             ....   76

ORBITAL ENERGIES
----------------

  NO   OCC          E(Eh)            E(eV)
   0   2.0000     -19.140121      -520.8292
   1   2.0000     -10.278909      -279.7033
   2   2.0000     -10.228982      -278.3448
   3   2.0000     -10.224424      -278.2207
   4   2.0000      -1.076345       -29.2888
   5   2.0000      -0.787065       -21.4171
   6   2.0000      -0.639944       -17.4138
   7   2.0000      -0.541691       -14.7402
   8   2.0000      -0.473089       -12.8734
   9   2.0000      -0.460076       -12.5193
  10   2.0000      -0.418002       -11.3744
  11   2.0000      -0.414202       -11.2710
  12   2.0000      -0.378688       -10.3046
  13   2.0000      -0.283581        -7.7166
  14   2.0000      -0.254305        -6.9200
  15   0.0000      -0.066763        -1.8167
  16   0.0000       0.030575         0.8320
  17   0.0000       0.046798         1.2734
  18   0.0000       0.064139         1.7453
  19   0.0000       0.109565         2.9814

MULLIKEN ATOMIC CHARGES
-----------------------
   0 C :    0.154855
   1 O :   -0.144028
   2 C :   -0.158833
   3 C :    0.034007
   4 H :   -0.025552
   5 H :    0.053839
   6 H :    0.074732
   7 H :    0.010980
Sum of atomic charges:   -0.0000000

LOEWDIN ATOMIC CHARGES
----------------------
   0 C :   -0.092870
   1 O :    0.050207
   2 C :   -0.074746
   3 C :   -0.007553
   4 H :   -0.006390
   5 H :    0.060433
   6 H :    0.065482
   7 H :    0.005437

  Mayer bond orders larger than 0.100000
B(  0-C ,  1-O ) :   2.2155 B(  0-C ,  2-C ) :   1.0486 B(  0-C ,  4-H ) :   0.8888
B(  2-C ,  3-C ) :   1.9039 B(  2-C ,  5-H ) :   0.9293 B(  3-C ,  6-H ) :   0.9296
B(  3-C ,  7-H ) :   0.9332

-----------------------------------------------------------------------------
         ABSORPTION SPECTRUM VIA TRANSITION ELECTRIC DIPOLE MOMENTS
-----------------------------------------------------------------------------
State   Energy    Wavelength  fosc         T2        TX        TY        TZ
        (cm-1)      (nm)                 (au**2)    (au)      (au)      (au)
-----------------------------------------------------------------------------
   1   29119.7    343.4   0.000583046   0.00659  -0.04767   0.05588  -0.03459

FINAL SINGLE POINT ENERGY      -191.623079325692

DIPOLE MOMENT
-------------
                                X             Y             Z
Electronic contribution:     -3.19931      -0.10736      -1.10208
Nuclear contribution   :      4.11715       0.26219       1.47122
                        -----------------------------------------
Total Dipole Moment    :      0.91784       0.15482       0.36914
                        -----------------------------------------
Magnitude (a.u.)       :      1.00133
Magnitude (Debye)      :      2.54517

Rotational constants in cm-1:     1.324781     0.159322     0.143194
Rotational constants in MHz : 39715.928589  4776.340246  4292.844165

                             ****ORCA TERMINATED NORMALLY****
TOTAL RUN TIME: 0 days 0 hours 3 minutes 19 seconds 468 msec
