                         Program Version 5.0.3 -  RELEASE  -
|  1> ! B3LYP cc-pVDZ
|  2> !TightSCF
|  3> %scf
|  4>  ConvForced true
|  5>  convergence tight
|  6>  MaxIter 500
|  7> end
|  8>
|  9> %tddft
| 10>  nroots 1
| 11> end
| 12>
| 13> # 	18006
| 14> * xyz 0 1
| 15> 		C   -1.221004  -0.297880   0.025282
| 16> 		O   -1.481358  -1.356954  -0.597009
| 17> 		C   -0.022814   0.515325  -0.183598
| 18> 		C    1.188439   0.000973   0.025377
| 19> 		H   -1.925621  -0.049276   0.843042
| 20> 		H   -0.165939   1.489380  -0.572068
| 21> 		H    1.516493  -0.972890   0.449993
| 22> 		H    2.190823   0.638198   0.009928
| 23> *
| 24>
| 25>                          ****END OF INPUT****

CARTESIAN COORDINATES (ANGSTROEM)
---------------------------------
  C     -1.221004   -0.297880    0.025282
  O     -1.481358   -1.356954   -0.597009
  C     -0.022814    0.515325   -0.183598
  C      1.188439    0.000973    0.025377
  H     -1.925621   -0.049276    0.843042
  H     -0.165939    1.489380   -0.572068
  H      1.516493   -0.972890    0.449993
  H      2.190823    0.638198    0.009928

 Total Charge           Charge          ....    0
 Multiplicity           Mult            ....    1
 Number of Electrons    NEL             ....   30
 Basis Dimension        Dim             ....   76

ORBITAL ENERGIES
----------------

  NO   OCC          E(Eh)            E(eV)
   0   2.0000     -19.139534      -520.8132
   1   2.0000     -10.280252      -279.7399
   2   2.0000     -10.221457      -278.1400
   3   2.0000     -10.211148      -277.8595
   4   2.0000      -1.023244       -27.8439
   5   2.0000      -0.799590       -21.7579
   6   2.0000      -0.654457       -17.8087
   7   2.0000      -0.560049       -15.2397
   8   2.0000      -0.496568       -13.5123
   9   2.0000      -0.462786       -12.5930
  10   2.0000      -0.432119       -11.7586
  11   2.0000      -0.369336       -10.0501
  12   2.0000      -0.363226        -9.8839
  13   2.0000      -0.291843        -7.9415
  14   2.0000      -0.252127        -6.8607
  15   0.0000      -0.049530        -1.3478
  16   0.0000      -0.006554        -0.1783
  17   0.0000       0.072124         1.9626
  18   0.0000       0.087215         2.3732
  19   0.0000       0.103291         2.8107

MULLIKEN ATOMIC CHARGES
-----------------------
   0 C :    0.165747
   1 O :   -0.219594
   2 C :   -0.018700
   3 C :   -0.022170
   4 H :    0.001645
   5 H :    0.011415
   6 H :    0.039562
   7 H :    0.042095
Sum of atomic charges:   -0.0000000

LOEWDIN ATOMIC CHARGES
----------------------
   0 C :    0.003901
   1 O :   -0.038402
   2 C :   -0.063807
   3 C :   -0.015934
   4 H :    0.001884
   5 H :    0.032951
   6 H :    0.034638
   7 H :    0.044768

  Mayer bond orders larger than 0.100000
B(  0-C ,  1-O ) :   2.1828 B(  0-C ,  2-C ) :   1.0023 B(  0-C ,  4-H ) :   0.9273
B(  2-C ,  3-C ) :   1.9965 B(  2-C ,  5-H ) :   0.9340 B(  3-C ,  6-H ) :   0.9564
B(  3-C ,  7-H ) :   0.9492

-----------------------------------------------------------------------------
         ABSORPTION SPECTRUM VIA TRANSITION ELECTRIC DIPOLE MOMENTS
-----------------------------------------------------------------------------
State   Energy    Wavelength  fosc         T2        TX        TY        TZ
        (cm-1)      (nm)                 (au**2)    (au)      (au)      (au)
-----------------------------------------------------------------------------
   1   29731.5    336.3   0.000239775   0.00265  -0.04690  -0.01817   0.01120

FINAL SINGLE POINT ENERGY      -191.649675973348

DIPOLE MOMENT
-------------
                                X             Y             Z
Electronic contribution:     -2.54552      -1.39823      -0.91705
Nuclear contribution   :      3.02186       2.22474       1.37653
                        -----------------------------------------
Total Dipole Moment    :      0.47634       0.82650       0.45948
                        -----------------------------------------
Magnitude (a.u.)       :      1.05883
Magnitude (Debye)      :      2.69134

Rotational constants in cm-1:     0.829053     0.183399     0.160375
Rotational constants in MHz : 24854.395852  5498.174950  4807.920940

                             ****ORCA TERMINATED NORMALLY****
TOTAL RUN TIME: 0 days 0 hours 3 minutes 21 seconds 723 msec
