                         Program Version 5.0.3 -  RELEASE  -
|  1> ! B3LYP cc-pVDZ
|  2> !TightSCF
|  3> %scf
|  4>  ConvForced true
|  5>  convergence tight
|  6>  MaxIter 500
|  7> end
|  8>
|  9> %tddft
| 10>  nroots 1
| 11> end
| 12>
| 13> # 	23967
| 14> * xyz 0 1
| 15> 		C   -0.627607  -0.404031   0.028632
| 16> 		O   -0.557697  -1.621487  -0.015860
| 17> 		C    0.601676   0.364282  -0.077432
| 18> 		C    1.894346  -0.111477  -0.019783
| 19> 		H   -1.567286   0.305227   0.317044
| 20> 		H    0.364549   1.253374   0.144233
| 21> 		H    1.967701  -1.276461   0.299431
| 22> 		H    2.718232   0.533303   0.322340
| 23> *
| 24>
| 25>                          ****END OF INPUT****

CARTESIAN COORDINATES (ANGSTROEM)
---------------------------------
  C     -0.627607   -0.404031    0.028632
  O     -0.557697   -1.621487   -0.015860
  C      0.601676    0.364282   -0.077432
  C      1.894346   -0.111477   -0.019783
  H     -1.567286    0.305227    0.317044
  H      0.364549    1.253374    0.144233
  H      1.967701   -1.276461    0.299431
  H      2.718232    0.533303    0.322340

 Total Charge           Charge          ....    0
 Multiplicity           Mult            ....    1
 Number of Electrons    NEL             ....   30
 Basis Dimension        Dim             ....   76

ORBITAL ENERGIES
----------------

  NO   OCC          E(Eh)            E(eV)
   0   2.0000     -19.141766      -520.8739
   1   2.0000     -10.282395      -279.7982
   2   2.0000     -10.229592      -278.3613
   3   2.0000     -10.195095      -277.4226
   4   2.0000      -1.044393       -28.4194
   5   2.0000      -0.794606       -21.6223
   6   2.0000      -0.664498       -18.0819
   7   2.0000      -0.534096       -14.5335
   8   2.0000      -0.504552       -13.7296
   9   2.0000      -0.443667       -12.0728
  10   2.0000      -0.425261       -11.5719
  11   2.0000      -0.400612       -10.9012
  12   2.0000      -0.370515       -10.0822
  13   2.0000      -0.281800        -7.6682
  14   2.0000      -0.257569        -7.0088
  15   0.0000      -0.086221        -2.3462
  16   0.0000       0.041455         1.1281
  17   0.0000       0.061797         1.6816
  18   0.0000       0.082482         2.2445
  19   0.0000       0.120837         3.2882

MULLIKEN ATOMIC CHARGES
-----------------------
   0 C :    0.114727
   1 O :   -0.190674
   2 C :    0.040988
   3 C :   -0.014941
   4 H :   -0.001429
   5 H :   -0.076796
   6 H :    0.074820
   7 H :    0.053306
Sum of atomic charges:   -0.0000000

LOEWDIN ATOMIC CHARGES
----------------------
   0 C :   -0.041305
   1 O :   -0.005544
   2 C :   -0.053140
   3 C :    0.012629
   4 H :    0.009020
   5 H :   -0.018488
   6 H :    0.061132
   7 H :    0.035695

  Mayer bond orders larger than 0.100000
B(  0-C ,  1-O ) :   2.1661 B(  0-C ,  2-C ) :   1.0934 B(  0-C ,  4-H ) :   0.8892
B(  1-O ,  3-C ) :   0.1009 B(  2-C ,  3-C ) :   1.9082 B(  2-C ,  5-H ) :   0.9422
B(  3-C ,  6-H ) :   0.9349 B(  3-C ,  7-H ) :   0.9431

-----------------------------------------------------------------------------
         ABSORPTION SPECTRUM VIA TRANSITION ELECTRIC DIPOLE MOMENTS
-----------------------------------------------------------------------------
State   Energy    Wavelength  fosc         T2        TX        TY        TZ
        (cm-1)      (nm)                 (au**2)    (au)      (au)      (au)
-----------------------------------------------------------------------------
   1   25285.3    395.5   0.000336403   0.00438  -0.05170  -0.03465  -0.02250

FINAL SINGLE POINT ENERGY      -191.639478027682

DIPOLE MOMENT
-------------
                                X             Y             Z
Electronic contribution:     -1.77574      -1.67213      -0.78037
Nuclear contribution   :      2.11519       2.55118       1.01490
                        -----------------------------------------
Total Dipole Moment    :      0.33945       0.87906       0.23453
                        -----------------------------------------
Magnitude (a.u.)       :      0.97107
Magnitude (Debye)      :      2.46826

Rotational constants in cm-1:     0.738550     0.209754     0.164660
Rotational constants in MHz : 22141.157457  6288.264499  4936.387813

                             ****ORCA TERMINATED NORMALLY****
TOTAL RUN TIME: 0 days 0 hours 3 minutes 14 seconds 72 msec
