                         Program Version 5.0.3 -  RELEASE  -
|  1> ! HF-3c
|  2> !TightSCF
|  3> %scf
|  4>  ConvForced true
|  5>  convergence tight
|  6>  MaxIter 500
|  7> end
|  8>
|  9> %tddft
| 10>  nroots 1
| 11> end
| 12>
| 13> # 	27570
| 14> * xyz 0 1
| 15> 		C   -0.577061  -0.452286   0.013060
| 16> 		O   -0.616854  -1.630188   0.000564
| 17> 		C    0.644201   0.368479  -0.005487
| 18> 		C    1.873687  -0.088872  -0.008528
| 19> 		H   -1.568252   0.168969  -0.166066
| 20> 		H    0.507710   1.542754   0.158214
| 21> 		H    2.123381  -1.085856   0.091330
| 22> 		H    2.576218   0.577721  -0.077371
| 23> *
| 24>
| 25>                          ****END OF INPUT****

CARTESIAN COORDINATES (ANGSTROEM)
---------------------------------
  C     -0.577061   -0.452286    0.013060
  O     -0.616854   -1.630188    0.000564
  C      0.644201    0.368479   -0.005487
  C      1.873687   -0.088872   -0.008528
  H     -1.568252    0.168969   -0.166066
  H      0.507710    1.542754    0.158214
  H      2.123381   -1.085856    0.091330
  H      2.576218    0.577721   -0.077371

 Total Charge           Charge          ....    0
 Multiplicity           Mult            ....    1
 Number of Electrons    NEL             ....   30
 Basis Dimension        Dim             ....   24

ORBITAL ENERGIES
----------------

  NO   OCC          E(Eh)            E(eV)
   0   2.0000     -20.379576      -554.5565
   1   2.0000     -11.304712      -307.6168
   2   2.0000     -11.195332      -304.6405
   3   2.0000     -11.194036      -304.6052
   4   2.0000      -1.428102       -38.8606
   5   2.0000      -1.092171       -29.7195
   6   2.0000      -0.901122       -24.5208
   7   2.0000      -0.743697       -20.2370
   8   2.0000      -0.709211       -19.2986
   9   2.0000      -0.624892       -17.0042
  10   2.0000      -0.617135       -16.7931
  11   2.0000      -0.561547       -15.2805
  12   2.0000      -0.526734       -14.3332
  13   2.0000      -0.409112       -11.1325
  14   2.0000      -0.404430       -11.0051
  15   0.0000       0.132054         3.5934
  16   0.0000       0.314687         8.5631
  17   0.0000       0.519010        14.1230
  18   0.0000       0.573095        15.5947
  19   0.0000       0.665199        18.1010

MULLIKEN ATOMIC CHARGES
-----------------------
   0 C :    0.181160
   1 O :   -0.355193
   2 C :   -0.145867
   3 C :   -0.260794
   4 H :    0.128814
   5 H :    0.145315
   6 H :    0.160696
   7 H :    0.145870
Sum of atomic charges:    0.0000000

LOEWDIN ATOMIC CHARGES
----------------------
   0 C :    0.146330
   1 O :   -0.248166
   2 C :   -0.111469
   3 C :   -0.147566
   4 H :    0.071056
   5 H :    0.100797
   6 H :    0.102199
   7 H :    0.086819

  Mayer bond orders larger than 0.100000
B(  0-C ,  1-O ) :   1.9178 B(  0-C ,  2-C ) :   1.0159 B(  0-C ,  4-H ) :   0.9120
B(  2-C ,  3-C ) :   1.9560 B(  2-C ,  5-H ) :   0.9545 B(  3-C ,  6-H ) :   0.9599
B(  3-C ,  7-H ) :   0.9661

-----------------------------------------------------------------------------
         ABSORPTION SPECTRUM VIA TRANSITION ELECTRIC DIPOLE MOMENTS
-----------------------------------------------------------------------------
State   Energy    Wavelength  fosc         T2        TX        TY        TZ
        (cm-1)      (nm)                 (au**2)    (au)      (au)      (au)
-----------------------------------------------------------------------------
   1   33343.6    299.9   0.000171422   0.00169   0.03942   0.00257   0.01150

Dispersion correction           -0.025589996
FINAL SINGLE POINT ENERGY      -189.308670698338

DIPOLE MOMENT
-------------
                                X             Y             Z
Electronic contribution:     -2.02847      -1.93107       0.02141
Nuclear contribution   :      2.25514       2.91558       0.00549
                        -----------------------------------------
Total Dipole Moment    :      0.22667       0.98451       0.02690
                        -----------------------------------------
Magnitude (a.u.)       :      1.01062
Magnitude (Debye)      :      2.56880

Rotational constants in cm-1:     0.820160     0.202412     0.162567
Rotational constants in MHz : 24587.765394  6068.160779  4873.643170

                             ****ORCA TERMINATED NORMALLY****
TOTAL RUN TIME: 0 days 0 hours 0 minutes 11 seconds 466 msec
