                         Program Version 5.0.3 -  RELEASE  -
|  1> ! HF-3c
|  2> !TightSCF
|  3> %scf
|  4>  ConvForced true
|  5>  convergence tight
|  6>  MaxIter 500
|  7> end
|  8>
|  9> %tddft
| 10>  nroots 1
| 11> end
| 12>
| 13> # 	21538
| 14> * xyz 0 1
| 15> 		C   -0.619228  -0.443989  -0.030440
| 16> 		O   -0.530107  -1.626478   0.023503
| 17> 		C    0.655610   0.453570   0.039926
| 18> 		C    1.775675  -0.152727  -0.009603
| 19> 		H   -1.470998   0.165863  -0.222879
| 20> 		H    0.599688   1.588099   0.068017
| 21> 		H    1.842619  -1.279560  -0.168930
| 22> 		H    2.826607   0.306805  -0.040924
| 23> *
| 24>
| 25>                          ****END OF INPUT****

CARTESIAN COORDINATES (ANGSTROEM)
---------------------------------
  C     -0.619228   -0.443989   -0.030440
  O     -0.530107   -1.626478    0.023503
  C      0.655610    0.453570    0.039926
  C      1.775675   -0.152727   -0.009603
  H     -1.470998    0.165863   -0.222879
  H      0.599688    1.588099    0.068017
  H      1.842619   -1.279560   -0.168930
  H      2.826607    0.306805   -0.040924

 Total Charge           Charge          ....    0
 Multiplicity           Mult            ....    1
 Number of Electrons    NEL             ....   30
 Basis Dimension        Dim             ....   24

ORBITAL ENERGIES
----------------

  NO   OCC          E(Eh)            E(eV)
   0   2.0000     -20.384297      -554.6849
   1   2.0000     -11.307762      -307.6999
   2   2.0000     -11.175868      -304.1108
   3   2.0000     -11.174775      -304.0811
   4   2.0000      -1.425864       -38.7997
   5   2.0000      -1.074933       -29.2504
   6   2.0000      -0.877151       -23.8685
   7   2.0000      -0.739416       -20.1205
   8   2.0000      -0.697330       -18.9753
   9   2.0000      -0.619585       -16.8598
  10   2.0000      -0.594374       -16.1737
  11   2.0000      -0.551527       -15.0078
  12   2.0000      -0.505143       -13.7457
  13   2.0000      -0.409078       -11.1316
  14   2.0000      -0.405316       -11.0292
  15   0.0000       0.156633         4.2622
  16   0.0000       0.313968         8.5435
  17   0.0000       0.500260        13.6128
  18   0.0000       0.562191        15.2980
  19   0.0000       0.634222        17.2581

MULLIKEN ATOMIC CHARGES
-----------------------
   0 C :    0.186542
   1 O :   -0.355434
   2 C :   -0.187542
   3 C :   -0.219680
   4 H :    0.141076
   5 H :    0.142526
   6 H :    0.152809
   7 H :    0.139703
Sum of atomic charges:   -0.0000000

LOEWDIN ATOMIC CHARGES
----------------------
   0 C :    0.164727
   1 O :   -0.250853
   2 C :   -0.149509
   3 C :   -0.129294
   4 H :    0.072300
   5 H :    0.095323
   6 H :    0.103200
   7 H :    0.094106

  Mayer bond orders larger than 0.100000
B(  0-C ,  1-O ) :   1.9417 B(  0-C ,  2-C ) :   0.9697 B(  0-C ,  4-H ) :   0.9232
B(  2-C ,  3-C ) :   1.9867 B(  2-C ,  5-H ) :   0.9554 B(  3-C ,  6-H ) :   0.9518
B(  3-C ,  7-H ) :   0.9603

-----------------------------------------------------------------------------
         ABSORPTION SPECTRUM VIA TRANSITION ELECTRIC DIPOLE MOMENTS
-----------------------------------------------------------------------------
State   Energy    Wavelength  fosc         T2        TX        TY        TZ
        (cm-1)      (nm)                 (au**2)    (au)      (au)      (au)
-----------------------------------------------------------------------------
   1   35532.2    281.4   0.000038606   0.00036   0.01877   0.00078   0.00216

Dispersion correction           -0.025866767
FINAL SINGLE POINT ENERGY      -189.319210254163

DIPOLE MOMENT
-------------
                                X             Y             Z
Electronic contribution:     -2.20605      -1.64660       0.22855
Nuclear contribution   :      2.40537       2.52015      -0.34229
                        -----------------------------------------
Total Dipole Moment    :      0.19932       0.87356      -0.11374
                        -----------------------------------------
Magnitude (a.u.)       :      0.90320
Magnitude (Debye)      :      2.29575

Rotational constants in cm-1:     0.739727     0.218382     0.169030
Rotational constants in MHz : 22176.453470  6546.939618  5067.390209

                             ****ORCA TERMINATED NORMALLY****
TOTAL RUN TIME: 0 days 0 hours 0 minutes 16 seconds 78 msec
