                         Program Version 5.0.3 -  RELEASE  -
|  1> ! B3LYP cc-pVDZ
|  2> !TightSCF
|  3> %scf
|  4>  ConvForced true
|  5>  convergence tight
|  6>  MaxIter 500
|  7> end
|  8>
|  9> %tddft
| 10>  nroots 1
| 11> end
| 12>
| 13> # 	4746
| 14> * xyz 0 1
| 15> 		C   -1.236215  -0.328465  -0.041225
| 16> 		O   -1.464381  -1.260054  -0.727018
| 17> 		C    0.035729   0.489405  -0.164827
| 18> 		C    1.227120   0.008824   0.197427
| 19> 		H   -1.937816  -0.077057   0.827528
| 20> 		H   -0.070821   1.559354  -0.678188
| 21> 		H    1.184460  -1.013368   0.558747
| 22> 		H    2.232876   0.566453   0.015268
| 23> *
| 24>
| 25>                          ****END OF INPUT****

CARTESIAN COORDINATES (ANGSTROEM)
---------------------------------
  C     -1.236215   -0.328465   -0.041225
  O     -1.464381   -1.260054   -0.727018
  C      0.035729    0.489405   -0.164827
  C      1.227120    0.008824    0.197427
  H     -1.937816   -0.077057    0.827528
  H     -0.070821    1.559354   -0.678188
  H      1.184460   -1.013368    0.558747
  H      2.232876    0.566453    0.015268

 Total Charge           Charge          ....    0
 Multiplicity           Mult            ....    1
 Number of Electrons    NEL             ....   30
 Basis Dimension        Dim             ....   76

ORBITAL ENERGIES
----------------

  NO   OCC          E(Eh)            E(eV)
   0   2.0000     -19.148482      -521.0567
   1   2.0000     -10.285104      -279.8719
   2   2.0000     -10.213547      -277.9247
   3   2.0000     -10.209505      -277.8148
   4   2.0000      -1.072885       -29.1947
   5   2.0000      -0.787376       -21.4256
   6   2.0000      -0.639316       -17.3967
   7   2.0000      -0.542809       -14.7706
   8   2.0000      -0.493276       -13.4227
   9   2.0000      -0.455206       -12.3868
  10   2.0000      -0.442602       -12.0438
  11   2.0000      -0.395588       -10.7645
  12   2.0000      -0.373438       -10.1618
  13   2.0000      -0.286202        -7.7879
  14   2.0000      -0.256697        -6.9851
  15   0.0000      -0.033632        -0.9152
  16   0.0000      -0.002826        -0.0769
  17   0.0000       0.069605         1.8941
  18   0.0000       0.091272         2.4836
  19   0.0000       0.093132         2.5342

MULLIKEN ATOMIC CHARGES
-----------------------
   0 C :    0.154223
   1 O :   -0.148194
   2 C :   -0.132306
   3 C :    0.021427
   4 H :   -0.008003
   5 H :    0.037775
   6 H :    0.022456
   7 H :    0.052621
Sum of atomic charges:   -0.0000000

LOEWDIN ATOMIC CHARGES
----------------------
   0 C :   -0.042936
   1 O :    0.041561
   2 C :   -0.075177
   3 C :   -0.040634
   4 H :   -0.005530
   5 H :    0.047610
   6 H :    0.026941
   7 H :    0.048165

  Mayer bond orders larger than 0.100000
B(  0-C ,  1-O ) :   2.2601 B(  0-C ,  2-C ) :   0.9547 B(  0-C ,  4-H ) :   0.9053
B(  2-C ,  3-C ) :   2.0365 B(  2-C ,  5-H ) :   0.9268 B(  3-C ,  6-H ) :   0.9339
B(  3-C ,  7-H ) :   0.9434

-----------------------------------------------------------------------------
         ABSORPTION SPECTRUM VIA TRANSITION ELECTRIC DIPOLE MOMENTS
-----------------------------------------------------------------------------
State   Energy    Wavelength  fosc         T2        TX        TY        TZ
        (cm-1)      (nm)                 (au**2)    (au)      (au)      (au)
-----------------------------------------------------------------------------
   1   34159.8    292.7   0.000150600   0.00145  -0.03425   0.00680   0.01524

FINAL SINGLE POINT ENERGY      -191.631748495771

DIPOLE MOMENT
-------------
                                X             Y             Z
Electronic contribution:     -2.41287      -1.47007      -1.02851
Nuclear contribution   :      2.75743       2.10030       1.40749
                        -----------------------------------------
Total Dipole Moment    :      0.34457       0.63023       0.37897
                        -----------------------------------------
Magnitude (a.u.)       :      0.81212
Magnitude (Debye)      :      2.06425

Rotational constants in cm-1:     0.876907     0.177907     0.160901
Rotational constants in MHz : 26289.012116  5333.527620  4823.700154

                             ****ORCA TERMINATED NORMALLY****
TOTAL RUN TIME: 0 days 0 hours 3 minutes 18 seconds 684 msec
