                         Program Version 5.0.3 -  RELEASE  -
|  1> ! B3LYP cc-pVDZ
|  2> !TightSCF
|  3> %scf
|  4>  ConvForced true
|  5>  convergence tight
|  6>  MaxIter 500
|  7> end
|  8>
|  9> %tddft
| 10>  nroots 1
| 11> end
| 12>
| 13> # 	26968
| 14> * xyz 0 1
| 15> 		C   -0.600809  -0.442004   0.042406
| 16> 		O   -0.608843  -1.660206  -0.019588
| 17> 		C    0.647431   0.421846  -0.007204
| 18> 		C    1.858975  -0.087640  -0.002698
| 19> 		H   -1.459930   0.014626  -0.102256
| 20> 		H    0.628234   1.457095  -0.044209
| 21> 		H    2.025627  -1.121572   0.137229
| 22> 		H    2.746544   0.516096  -0.073997
| 23> *
| 24>
| 25>                          ****END OF INPUT****

CARTESIAN COORDINATES (ANGSTROEM)
---------------------------------
  C     -0.600809   -0.442004    0.042406
  O     -0.608843   -1.660206   -0.019588
  C      0.647431    0.421846   -0.007204
  C      1.858975   -0.087640   -0.002698
  H     -1.459930    0.014626   -0.102256
  H      0.628234    1.457095   -0.044209
  H      2.025627   -1.121572    0.137229
  H      2.746544    0.516096   -0.073997

 Total Charge           Charge          ....    0
 Multiplicity           Mult            ....    1
 Number of Electrons    NEL             ....   30
 Basis Dimension        Dim             ....   76

ORBITAL ENERGIES
----------------

  NO   OCC          E(Eh)            E(eV)
   0   2.0000     -19.137389      -520.7548
   1   2.0000     -10.267571      -279.3948
   2   2.0000     -10.201106      -277.5862
   3   2.0000     -10.196257      -277.4542
   4   2.0000      -1.040660       -28.3178
   5   2.0000      -0.797686       -21.7062
   6   2.0000      -0.662109       -18.0169
   7   2.0000      -0.564825       -15.3697
   8   2.0000      -0.516782       -14.0624
   9   2.0000      -0.443263       -12.0618
  10   2.0000      -0.429757       -11.6943
  11   2.0000      -0.394574       -10.7369
  12   2.0000      -0.381145       -10.3715
  13   2.0000      -0.289222        -7.8701
  14   2.0000      -0.255823        -6.9613
  15   0.0000      -0.066964        -1.8222
  16   0.0000       0.056258         1.5309
  17   0.0000       0.076224         2.0742
  18   0.0000       0.105499         2.8708
  19   0.0000       0.131988         3.5916

MULLIKEN ATOMIC CHARGES
-----------------------
   0 C :    0.261037
   1 O :   -0.202917
   2 C :   -0.113955
   3 C :    0.100181
   4 H :   -0.046652
   5 H :   -0.036434
   6 H :    0.016599
   7 H :    0.022141
Sum of atomic charges:    0.0000000

LOEWDIN ATOMIC CHARGES
----------------------
   0 C :    0.000905
   1 O :   -0.007167
   2 C :   -0.070446
   3 C :    0.035390
   4 H :   -0.026825
   5 H :    0.016606
   6 H :    0.022045
   7 H :    0.029493

  Mayer bond orders larger than 0.100000
B(  0-C ,  1-O ) :   2.1832 B(  0-C ,  2-C ) :   1.0261 B(  0-C ,  4-H ) :   0.9415
B(  2-C ,  3-C ) :   1.9980 B(  2-C ,  5-H ) :   0.9418 B(  3-C ,  6-H ) :   0.9387
B(  3-C ,  7-H ) :   0.9423

-----------------------------------------------------------------------------
         ABSORPTION SPECTRUM VIA TRANSITION ELECTRIC DIPOLE MOMENTS
-----------------------------------------------------------------------------
State   Energy    Wavelength  fosc         T2        TX        TY        TZ
        (cm-1)      (nm)                 (au**2)    (au)      (au)      (au)
-----------------------------------------------------------------------------
   1   27971.0    357.5   0.000025066   0.00030   0.01000   0.00608   0.01257

FINAL SINGLE POINT ENERGY      -191.659597048671

DIPOLE MOMENT
-------------
                                X             Y             Z
Electronic contribution:     -2.19256      -1.67025       0.10211
Nuclear contribution   :      2.53744       2.60141      -0.07791
                        -----------------------------------------
Total Dipole Moment    :      0.34489       0.93116       0.02420
                        -----------------------------------------
Magnitude (a.u.)       :      0.99327
Magnitude (Debye)      :      2.52469

Rotational constants in cm-1:     0.809330     0.199421     0.160196
Rotational constants in MHz : 24263.104878  5978.498976  4802.567953

                             ****ORCA TERMINATED NORMALLY****
TOTAL RUN TIME: 0 days 0 hours 3 minutes 21 seconds 610 msec
