                         Program Version 5.0.3 -  RELEASE  -
|  1> ! B3LYP cc-pVDZ
|  2> !TightSCF
|  3> %scf
|  4>  ConvForced true
|  5>  convergence tight
|  6>  MaxIter 500
|  7> end
|  8>
|  9> %tddft
| 10>  nroots 1
| 11> end
| 12>
| 13> # 	18812
| 14> * xyz 0 1
| 15> 		C   -1.185839  -0.282872  -0.106876
| 16> 		O   -1.867573  -0.789429  -0.991616
| 17> 		C    0.069334   0.392571  -0.326963
| 18> 		C    1.177453   0.045889   0.309229
| 19> 		H   -1.567881  -0.450242   1.247838
| 20> 		H    0.088884   1.061455  -1.241228
| 21> 		H    1.172947  -0.639499   0.988573
| 22> 		H    2.122413   0.602829   0.119982
| 23> *
| 24>
| 25>                          ****END OF INPUT****

CARTESIAN COORDINATES (ANGSTROEM)
---------------------------------
  C     -1.185839   -0.282872   -0.106876
  O     -1.867573   -0.789429   -0.991616
  C      0.069334    0.392571   -0.326963
  C      1.177453    0.045889    0.309229
  H     -1.567881   -0.450242    1.247838
  H      0.088884    1.061455   -1.241228
  H      1.172947   -0.639499    0.988573
  H      2.122413    0.602829    0.119982

 Total Charge           Charge          ....    0
 Multiplicity           Mult            ....    1
 Number of Electrons    NEL             ....   30
 Basis Dimension        Dim             ....   76

ORBITAL ENERGIES
----------------

  NO   OCC          E(Eh)            E(eV)
   0   2.0000     -19.154398      -521.2177
   1   2.0000     -10.300151      -280.2814
   2   2.0000     -10.217363      -278.0286
   3   2.0000     -10.208712      -277.7932
   4   2.0000      -1.048756       -28.5381
   5   2.0000      -0.814993       -22.1771
   6   2.0000      -0.659235       -17.9387
   7   2.0000      -0.554232       -15.0814
   8   2.0000      -0.477954       -13.0058
   9   2.0000      -0.471381       -12.8269
  10   2.0000      -0.430156       -11.7051
  11   2.0000      -0.402259       -10.9460
  12   2.0000      -0.380614       -10.3570
  13   2.0000      -0.296211        -8.0603
  14   2.0000      -0.258156        -7.0248
  15   0.0000      -0.067022        -1.8238
  16   0.0000       0.013845         0.3767
  17   0.0000       0.048158         1.3105
  18   0.0000       0.077470         2.1081
  19   0.0000       0.110289         3.0011

MULLIKEN ATOMIC CHARGES
-----------------------
   0 C :    0.101256
   1 O :   -0.177810
   2 C :   -0.073955
   3 C :    0.132451
   4 H :   -0.026259
   5 H :    0.032218
   6 H :   -0.029350
   7 H :    0.041450
Sum of atomic charges:   -0.0000000

LOEWDIN ATOMIC CHARGES
----------------------
   0 C :   -0.032938
   1 O :   -0.000920
   2 C :   -0.063310
   3 C :    0.027220
   4 H :   -0.017908
   5 H :    0.050839
   6 H :   -0.008610
   7 H :    0.045626

  Mayer bond orders larger than 0.100000
B(  0-C ,  1-O ) :   2.1703 B(  0-C ,  2-C ) :   1.0343 B(  0-C ,  4-H ) :   0.8424
B(  2-C ,  3-C ) :   1.9878 B(  2-C ,  5-H ) :   0.9281 B(  3-C ,  6-H ) :   0.9395
B(  3-C ,  7-H ) :   0.9428

-----------------------------------------------------------------------------
         ABSORPTION SPECTRUM VIA TRANSITION ELECTRIC DIPOLE MOMENTS
-----------------------------------------------------------------------------
State   Energy    Wavelength  fosc         T2        TX        TY        TZ
        (cm-1)      (nm)                 (au**2)    (au)      (au)      (au)
-----------------------------------------------------------------------------
   1   29468.9    339.3   0.000749976   0.00838  -0.06015   0.03148  -0.06140

FINAL SINGLE POINT ENERGY      -191.626151514988

DIPOLE MOMENT
-------------
                                X             Y             Z
Electronic contribution:     -2.61239      -0.76413      -1.73444
Nuclear contribution   :      3.51211       1.21159       2.12271
                        -----------------------------------------
Total Dipole Moment    :      0.89972       0.44746       0.38827
                        -----------------------------------------
Magnitude (a.u.)       :      1.07725
Magnitude (Debye)      :      2.73815

Rotational constants in cm-1:     1.202455     0.159725     0.151807
Rotational constants in MHz : 36048.683560  4788.430848  4551.072387

                             ****ORCA TERMINATED NORMALLY****
TOTAL RUN TIME: 0 days 0 hours 3 minutes 7 seconds 147 msec
