                         Program Version 5.0.3 -  RELEASE  -
|  1> ! HF-3c
|  2> !TightSCF
|  3> %scf
|  4>  ConvForced true
|  5>  convergence tight
|  6>  MaxIter 500
|  7> end
|  8>
|  9> %tddft
| 10>  nroots 1
| 11> end
| 12>
| 13> # 	5117
| 14> * xyz 0 1
| 15> 		C   -1.138698  -0.335083  -0.079422
| 16> 		O   -2.074482  -0.487334  -0.752384
| 17> 		C    0.072351   0.416555  -0.314957
| 18> 		C    1.227626   0.079124   0.275929
| 19> 		H   -1.145477  -0.825759   0.806468
| 20> 		H   -0.095584   1.325182  -0.999885
| 21> 		H    1.382786  -0.800789   1.110330
| 22> 		H    1.818035   0.651252  -0.027839
| 23> *
| 24>
| 25>                          ****END OF INPUT****

CARTESIAN COORDINATES (ANGSTROEM)
---------------------------------
  C     -1.138698   -0.335083   -0.079422
  O     -2.074482   -0.487334   -0.752384
  C      0.072351    0.416555   -0.314957
  C      1.227626    0.079124    0.275929
  H     -1.145477   -0.825759    0.806468
  H     -0.095584    1.325182   -0.999885
  H      1.382786   -0.800789    1.110330
  H      1.818035    0.651252   -0.027839

 Total Charge           Charge          ....    0
 Multiplicity           Mult            ....    1
 Number of Electrons    NEL             ....   30
 Basis Dimension        Dim             ....   24

ORBITAL ENERGIES
----------------

  NO   OCC          E(Eh)            E(eV)
   0   2.0000     -20.382407      -554.6335
   1   2.0000     -11.307694      -307.6980
   2   2.0000     -11.199666      -304.7584
   3   2.0000     -11.196455      -304.6710
   4   2.0000      -1.442119       -39.2421
   5   2.0000      -1.104939       -30.0669
   6   2.0000      -0.916172       -24.9303
   7   2.0000      -0.790990       -21.5239
   8   2.0000      -0.673878       -18.3371
   9   2.0000      -0.664139       -18.0721
  10   2.0000      -0.597023       -16.2458
  11   2.0000      -0.570523       -15.5247
  12   2.0000      -0.543259       -14.7828
  13   2.0000      -0.416602       -11.3363
  14   2.0000      -0.401531       -10.9262
  15   0.0000       0.135119         3.6768
  16   0.0000       0.301664         8.2087
  17   0.0000       0.474392        12.9089
  18   0.0000       0.617935        16.8149
  19   0.0000       0.699571        19.0363

MULLIKEN ATOMIC CHARGES
-----------------------
   0 C :    0.158200
   1 O :   -0.350929
   2 C :   -0.141134
   3 C :   -0.271285
   4 H :    0.128708
   5 H :    0.159130
   6 H :    0.173159
   7 H :    0.144151
Sum of atomic charges:   -0.0000000

LOEWDIN ATOMIC CHARGES
----------------------
   0 C :    0.136277
   1 O :   -0.240833
   2 C :   -0.103277
   3 C :   -0.165616
   4 H :    0.056431
   5 H :    0.108372
   6 H :    0.130344
   7 H :    0.078301

  Mayer bond orders larger than 0.100000
B(  0-C ,  1-O ) :   1.9094 B(  0-C ,  2-C ) :   1.0223 B(  0-C ,  4-H ) :   0.9280
B(  2-C ,  3-C ) :   1.9527 B(  2-C ,  5-H ) :   0.9518 B(  3-C ,  6-H ) :   0.9548
B(  3-C ,  7-H ) :   0.9708

-----------------------------------------------------------------------------
         ABSORPTION SPECTRUM VIA TRANSITION ELECTRIC DIPOLE MOMENTS
-----------------------------------------------------------------------------
State   Energy    Wavelength  fosc         T2        TX        TY        TZ
        (cm-1)      (nm)                 (au**2)    (au)      (au)      (au)
-----------------------------------------------------------------------------
   1   34300.5    291.5   0.000078734   0.00076   0.02640   0.00440   0.00629

Dispersion correction           -0.025893573
FINAL SINGLE POINT ENERGY      -189.238581600903

DIPOLE MOMENT
-------------
                                X             Y             Z
Electronic contribution:     -2.89686      -0.53636      -1.11742
Nuclear contribution   :      3.77534       0.69167       1.66727
                        -----------------------------------------
Total Dipole Moment    :      0.87847       0.15531       0.54986
                        -----------------------------------------
Magnitude (a.u.)       :      1.04794
Magnitude (Debye)      :      2.66366

Rotational constants in cm-1:     1.531036     0.159819     0.147170
Rotational constants in MHz : 45899.318786  4791.265877  4412.038333

                             ****ORCA TERMINATED NORMALLY****
TOTAL RUN TIME: 0 days 0 hours 0 minutes 16 seconds 2 msec
