                         Program Version 5.0.3 -  RELEASE  -
|  1> ! B3LYP cc-pVDZ
|  2> !TightSCF
|  3> %scf
|  4>  ConvForced true
|  5>  convergence tight
|  6>  MaxIter 500
|  7> end
|  8>
|  9> %tddft
| 10>  nroots 1
| 11> end
| 12>
| 13> # 	7472
| 14> * xyz 0 1
| 15> 		C   -1.230676  -0.338066  -0.037303
| 16> 		O   -1.986079  -0.636014  -0.885624
| 17> 		C   -0.014249   0.453658  -0.257555
| 18> 		C    1.209377   0.080751   0.227751
| 19> 		H   -1.465922  -0.830778   0.923185
| 20> 		H    0.039006   1.501607  -0.964758
| 21> 		H    1.279445  -0.809442   0.913507
| 22> 		H    2.171263   0.612058   0.100816
| 23> *
| 24>
| 25>                          ****END OF INPUT****

CARTESIAN COORDINATES (ANGSTROEM)
---------------------------------
  C     -1.230676   -0.338066   -0.037303
  O     -1.986079   -0.636014   -0.885624
  C     -0.014249    0.453658   -0.257555
  C      1.209377    0.080751    0.227751
  H     -1.465922   -0.830778    0.923185
  H      0.039006    1.501607   -0.964758
  H      1.279445   -0.809442    0.913507
  H      2.171263    0.612058    0.100816

 Total Charge           Charge          ....    0
 Multiplicity           Mult            ....    1
 Number of Electrons    NEL             ....   30
 Basis Dimension        Dim             ....   76

ORBITAL ENERGIES
----------------

  NO   OCC          E(Eh)            E(eV)
   0   2.0000     -19.137105      -520.7471
   1   2.0000     -10.276047      -279.6255
   2   2.0000     -10.225695      -278.2553
   3   2.0000     -10.221149      -278.1316
   4   2.0000      -1.069971       -29.1154
   5   2.0000      -0.788821       -21.4649
   6   2.0000      -0.642946       -17.4955
   7   2.0000      -0.557340       -15.1660
   8   2.0000      -0.484977       -13.1969
   9   2.0000      -0.466368       -12.6905
  10   2.0000      -0.431778       -11.7493
  11   2.0000      -0.401458       -10.9242
  12   2.0000      -0.364747        -9.9253
  13   2.0000      -0.286625        -7.7995
  14   2.0000      -0.254260        -6.9188
  15   0.0000      -0.056714        -1.5433
  16   0.0000       0.017683         0.4812
  17   0.0000       0.064592         1.7576
  18   0.0000       0.080563         2.1922
  19   0.0000       0.113251         3.0817

MULLIKEN ATOMIC CHARGES
-----------------------
   0 C :    0.184683
   1 O :   -0.158042
   2 C :   -0.136813
   3 C :    0.004877
   4 H :   -0.026379
   5 H :    0.053898
   6 H :    0.032582
   7 H :    0.045193
Sum of atomic charges:   -0.0000000

LOEWDIN ATOMIC CHARGES
----------------------
   0 C :   -0.065335
   1 O :    0.038878
   2 C :   -0.075730
   3 C :   -0.020670
   4 H :   -0.005366
   5 H :    0.063405
   6 H :    0.030470
   7 H :    0.034347

  Mayer bond orders larger than 0.100000
B(  0-C ,  1-O ) :   2.2206 B(  0-C ,  2-C ) :   0.9971 B(  0-C ,  4-H ) :   0.9298
B(  2-C ,  3-C ) :   1.9643 B(  2-C ,  5-H ) :   0.9263 B(  3-C ,  6-H ) :   0.9479
B(  3-C ,  7-H ) :   0.9475

-----------------------------------------------------------------------------
         ABSORPTION SPECTRUM VIA TRANSITION ELECTRIC DIPOLE MOMENTS
-----------------------------------------------------------------------------
State   Energy    Wavelength  fosc         T2        TX        TY        TZ
        (cm-1)      (nm)                 (au**2)    (au)      (au)      (au)
-----------------------------------------------------------------------------
   1   30572.5    327.1   0.000763688   0.00822  -0.08730  -0.01085  -0.02202

FINAL SINGLE POINT ENERGY      -191.641256778359

DIPOLE MOMENT
-------------
                                X             Y             Z
Electronic contribution:     -3.09786      -0.63722      -1.28238
Nuclear contribution   :      3.89620       0.92802       1.83995
                        -----------------------------------------
Total Dipole Moment    :      0.79835       0.29080       0.55757
                        -----------------------------------------
Magnitude (a.u.)       :      1.01627
Magnitude (Debye)      :      2.58315

Rotational constants in cm-1:     1.272582     0.156490     0.147080
Rotational constants in MHz : 38151.051723  4691.456584  4409.357357

                             ****ORCA TERMINATED NORMALLY****
TOTAL RUN TIME: 0 days 0 hours 3 minutes 12 seconds 653 msec
