                         Program Version 5.0.3 -  RELEASE  -
|  1> ! B3LYP cc-pVDZ
|  2> !TightSCF
|  3> %scf
|  4>  ConvForced true
|  5>  convergence tight
|  6>  MaxIter 500
|  7> end
|  8>
|  9> %tddft
| 10>  nroots 1
| 11> end
| 12>
| 13> # 	30584
| 14> * xyz 0 1
| 15> 		C   -0.608657  -0.420075   0.001836
| 16> 		O   -0.590728  -1.630856  -0.014471
| 17> 		C    0.674654   0.370374  -0.038756
| 18> 		C    1.848104  -0.084852   0.042373
| 19> 		H   -1.577345   0.043138   0.340121
| 20> 		H    0.393433   1.400757  -0.110553
| 21> 		H    1.961665  -1.168898  -0.038186
| 22> 		H    2.726820   0.460433  -0.038168
| 23> *
| 24>
| 25>                          ****END OF INPUT****

CARTESIAN COORDINATES (ANGSTROEM)
---------------------------------
  C     -0.608657   -0.420075    0.001836
  O     -0.590728   -1.630856   -0.014471
  C      0.674654    0.370374   -0.038756
  C      1.848104   -0.084852    0.042373
  H     -1.577345    0.043138    0.340121
  H      0.393433    1.400757   -0.110553
  H      1.961665   -1.168898   -0.038186
  H      2.726820    0.460433   -0.038168

 Total Charge           Charge          ....    0
 Multiplicity           Mult            ....    1
 Number of Electrons    NEL             ....   30
 Basis Dimension        Dim             ....   76

ORBITAL ENERGIES
----------------

  NO   OCC          E(Eh)            E(eV)
   0   2.0000     -19.137962      -520.7704
   1   2.0000     -10.275806      -279.6189
   2   2.0000     -10.196319      -277.4560
   3   2.0000     -10.194879      -277.4168
   4   2.0000      -1.047116       -28.4935
   5   2.0000      -0.806463       -21.9450
   6   2.0000      -0.657098       -17.8805
   7   2.0000      -0.544661       -14.8210
   8   2.0000      -0.508578       -13.8391
   9   2.0000      -0.460874       -12.5410
  10   2.0000      -0.435032       -11.8378
  11   2.0000      -0.397564       -10.8183
  12   2.0000      -0.366850        -9.9825
  13   2.0000      -0.298489        -8.1223
  14   2.0000      -0.253232        -6.8908
  15   0.0000      -0.063571        -1.7298
  16   0.0000       0.055683         1.5152
  17   0.0000       0.076356         2.0778
  18   0.0000       0.100235         2.7275
  19   0.0000       0.120576         3.2810

MULLIKEN ATOMIC CHARGES
-----------------------
   0 C :    0.145663
   1 O :   -0.186726
   2 C :   -0.104688
   3 C :    0.144493
   4 H :   -0.004647
   5 H :   -0.032247
   6 H :    0.024672
   7 H :    0.013480
Sum of atomic charges:   -0.0000000

LOEWDIN ATOMIC CHARGES
----------------------
   0 C :   -0.026765
   1 O :   -0.001801
   2 C :   -0.075690
   3 C :    0.017951
   4 H :    0.003361
   5 H :    0.020477
   6 H :    0.038792
   7 H :    0.023674

  Mayer bond orders larger than 0.100000
B(  0-C ,  1-O ) :   2.1894 B(  0-C ,  2-C ) :   1.0273 B(  0-C ,  4-H ) :   0.9191
B(  2-C ,  3-C ) :   2.0277 B(  2-C ,  5-H ) :   0.9463 B(  3-C ,  6-H ) :   0.9074
B(  3-C ,  7-H ) :   0.9330

-----------------------------------------------------------------------------
         ABSORPTION SPECTRUM VIA TRANSITION ELECTRIC DIPOLE MOMENTS
-----------------------------------------------------------------------------
State   Energy    Wavelength  fosc         T2        TX        TY        TZ
        (cm-1)      (nm)                 (au**2)    (au)      (au)      (au)
-----------------------------------------------------------------------------
   1   27981.9    357.4   0.000257392   0.00303   0.03535   0.00136  -0.04215

FINAL SINGLE POINT ENERGY      -191.661643560528

DIPOLE MOMENT
-------------
                                X             Y             Z
Electronic contribution:     -1.82520      -1.62584      -0.14332
Nuclear contribution   :      2.13195       2.47801       0.14431
                        -----------------------------------------
Total Dipole Moment    :      0.30675       0.85217       0.00098
                        -----------------------------------------
Magnitude (a.u.)       :      0.90570
Magnitude (Debye)      :      2.30210

Rotational constants in cm-1:     0.816877     0.205378     0.164677
Rotational constants in MHz : 24489.366891  6157.088750  4936.889155

                             ****ORCA TERMINATED NORMALLY****
TOTAL RUN TIME: 0 days 0 hours 3 minutes 22 seconds 781 msec
