                         Program Version 5.0.3 -  RELEASE  -
|  1> ! HF-3c
|  2> !TightSCF
|  3> %scf
|  4>  ConvForced true
|  5>  convergence tight
|  6>  MaxIter 500
|  7> end
|  8>
|  9> %tddft
| 10>  nroots 1
| 11> end
| 12>
| 13> # 	15913
| 14> * xyz 0 1
| 15> 		C   -1.197429  -0.375105   0.030698
| 16> 		O   -2.026554  -0.715220   0.732177
| 17> 		C   -0.035132   0.434182   0.349729
| 18> 		C    1.210671   0.073319  -0.212770
| 19> 		H   -1.143192  -0.738701  -0.906356
| 20> 		H   -0.124106   1.398795   0.975502
| 21> 		H    1.179079  -0.846733  -0.916115
| 22> 		H    2.104326   0.719527  -0.066599
| 23> *
| 24>
| 25>                          ****END OF INPUT****

CARTESIAN COORDINATES (ANGSTROEM)
---------------------------------
  C     -1.197429   -0.375105    0.030698
  O     -2.026554   -0.715220    0.732177
  C     -0.035132    0.434182    0.349729
  C      1.210671    0.073319   -0.212770
  H     -1.143192   -0.738701   -0.906356
  H     -0.124106    1.398795    0.975502
  H      1.179079   -0.846733   -0.916115
  H      2.104326    0.719527   -0.066599

 Total Charge           Charge          ....    0
 Multiplicity           Mult            ....    1
 Number of Electrons    NEL             ....   30
 Basis Dimension        Dim             ....   24

ORBITAL ENERGIES
----------------

  NO   OCC          E(Eh)            E(eV)
   0   2.0000     -20.394226      -554.9551
   1   2.0000     -11.320992      -308.0599
   2   2.0000     -11.180887      -304.2474
   3   2.0000     -11.176496      -304.1279
   4   2.0000      -1.464234       -39.8438
   5   2.0000      -1.063086       -28.9280
   6   2.0000      -0.879604       -23.9352
   7   2.0000      -0.789808       -21.4918
   8   2.0000      -0.670956       -18.2576
   9   2.0000      -0.648663       -17.6510
  10   2.0000      -0.597851       -16.2684
  11   2.0000      -0.563864       -15.3435
  12   2.0000      -0.524868       -14.2824
  13   2.0000      -0.415785       -11.3141
  14   2.0000      -0.374764       -10.1979
  15   0.0000       0.141234         3.8432
  16   0.0000       0.282006         7.6738
  17   0.0000       0.556438        15.1414
  18   0.0000       0.590667        16.0729
  19   0.0000       0.618134        16.8203

MULLIKEN ATOMIC CHARGES
-----------------------
   0 C :    0.164702
   1 O :   -0.352373
   2 C :   -0.160371
   3 C :   -0.217646
   4 H :    0.130811
   5 H :    0.149860
   6 H :    0.138892
   7 H :    0.146125
Sum of atomic charges:   -0.0000000

LOEWDIN ATOMIC CHARGES
----------------------
   0 C :    0.139058
   1 O :   -0.232492
   2 C :   -0.129465
   3 C :   -0.129522
   4 H :    0.056733
   5 H :    0.102436
   6 H :    0.095519
   7 H :    0.097732

  Mayer bond orders larger than 0.100000
B(  0-C ,  1-O ) :   1.9161 B(  0-C ,  2-C ) :   1.0145 B(  0-C ,  4-H ) :   0.9214
B(  2-C ,  3-C ) :   1.9473 B(  2-C ,  5-H ) :   0.9549 B(  3-C ,  6-H ) :   0.9640
B(  3-C ,  7-H ) :   0.9654

-----------------------------------------------------------------------------
         ABSORPTION SPECTRUM VIA TRANSITION ELECTRIC DIPOLE MOMENTS
-----------------------------------------------------------------------------
State   Energy    Wavelength  fosc         T2        TX        TY        TZ
        (cm-1)      (nm)                 (au**2)    (au)      (au)      (au)
-----------------------------------------------------------------------------
   1   36670.7    272.7   0.000138535   0.00124  -0.03419  -0.00588  -0.00636

Dispersion correction           -0.025546545
FINAL SINGLE POINT ENERGY      -189.281693170425

DIPOLE MOMENT
-------------
                                X             Y             Z
Electronic contribution:     -3.02357      -0.77894       1.14478
Nuclear contribution   :      3.92141       1.11536      -1.70689
                        -----------------------------------------
Total Dipole Moment    :      0.89784       0.33642      -0.56211
                        -----------------------------------------
Magnitude (a.u.)       :      1.11142
Magnitude (Debye)      :      2.82500

Rotational constants in cm-1:     1.349647     0.159911     0.148483
Rotational constants in MHz : 40461.405447  4794.009938  4451.411442

                             ****ORCA TERMINATED NORMALLY****
TOTAL RUN TIME: 0 days 0 hours 0 minutes 10 seconds 207 msec
