                         Program Version 5.0.3 -  RELEASE  -
|  1> ! B3LYP cc-pVDZ
|  2> !TightSCF
|  3> %scf
|  4>  ConvForced true
|  5>  convergence tight
|  6>  MaxIter 500
|  7> end
|  8>
|  9> %tddft
| 10>  nroots 1
| 11> end
| 12>
| 13> # 	32305
| 14> * xyz 0 1
| 15> 		C   -0.608107  -0.392169  -0.015504
| 16> 		O   -0.574867  -1.641766  -0.011800
| 17> 		C    0.622207   0.365389  -0.008267
| 18> 		C    1.875602  -0.107309   0.003087
| 19> 		H   -1.501663  -0.047621   0.337760
| 20> 		H    0.343523   1.658472  -0.095823
| 21> 		H    1.858831  -1.200524   0.202758
| 22> 		H    2.853835   0.488828  -0.024339
| 23> *
| 24>
| 25>                          ****END OF INPUT****

CARTESIAN COORDINATES (ANGSTROEM)
---------------------------------
  C     -0.608107   -0.392169   -0.015504
  O     -0.574867   -1.641766   -0.011800
  C      0.622207    0.365389   -0.008267
  C      1.875602   -0.107309    0.003087
  H     -1.501663   -0.047621    0.337760
  H      0.343523    1.658472   -0.095823
  H      1.858831   -1.200524    0.202758
  H      2.853835    0.488828   -0.024339

 Total Charge           Charge          ....    0
 Multiplicity           Mult            ....    1
 Number of Electrons    NEL             ....   30
 Basis Dimension        Dim             ....   76

ORBITAL ENERGIES
----------------

  NO   OCC          E(Eh)            E(eV)
   0   2.0000     -19.134981      -520.6893
   1   2.0000     -10.268681      -279.4250
   2   2.0000     -10.225976      -278.2630
   3   2.0000     -10.224928      -278.2344
   4   2.0000      -1.027999       -27.9733
   5   2.0000      -0.792162       -21.5558
   6   2.0000      -0.666284       -18.1305
   7   2.0000      -0.548918       -14.9368
   8   2.0000      -0.489107       -13.3093
   9   2.0000      -0.448674       -12.2090
  10   2.0000      -0.431024       -11.7288
  11   2.0000      -0.388444       -10.5701
  12   2.0000      -0.348771        -9.4905
  13   2.0000      -0.287107        -7.8126
  14   2.0000      -0.254924        -6.9368
  15   0.0000      -0.082299        -2.2395
  16   0.0000       0.037558         1.0220
  17   0.0000       0.053933         1.4676
  18   0.0000       0.083472         2.2714
  19   0.0000       0.118644         3.2285

MULLIKEN ATOMIC CHARGES
-----------------------
   0 C :    0.235687
   1 O :   -0.230558
   2 C :   -0.175779
   3 C :    0.062750
   4 H :   -0.018037
   5 H :    0.013783
   6 H :    0.048941
   7 H :    0.063214
Sum of atomic charges:   -0.0000000

LOEWDIN ATOMIC CHARGES
----------------------
   0 C :   -0.015701
   1 O :   -0.035571
   2 C :   -0.085689
   3 C :    0.011399
   4 H :   -0.005758
   5 H :    0.037964
   6 H :    0.042549
   7 H :    0.050807

  Mayer bond orders larger than 0.100000
B(  0-C ,  1-O ) :   2.1058 B(  0-C ,  2-C ) :   1.0854 B(  0-C ,  4-H ) :   0.9480
B(  2-C ,  3-C ) :   1.9475 B(  2-C ,  5-H ) :   0.9158 B(  3-C ,  6-H ) :   0.9100
B(  3-C ,  7-H ) :   0.9412

-----------------------------------------------------------------------------
         ABSORPTION SPECTRUM VIA TRANSITION ELECTRIC DIPOLE MOMENTS
-----------------------------------------------------------------------------
State   Energy    Wavelength  fosc         T2        TX        TY        TZ
        (cm-1)      (nm)                 (au**2)    (au)      (au)      (au)
-----------------------------------------------------------------------------
   1   24365.4    410.4   0.000185145   0.00250   0.02989  -0.00464  -0.03983

FINAL SINGLE POINT ENERGY      -191.652511220915

DIPOLE MOMENT
-------------
                                X             Y             Z
Electronic contribution:     -1.81401      -1.78849      -0.31474
Nuclear contribution   :      2.17830       2.63172       0.39510
                        -----------------------------------------
Total Dipole Moment    :      0.36429       0.84323       0.08036
                        -----------------------------------------
Magnitude (a.u.)       :      0.92206
Magnitude (Debye)      :      2.34370

Rotational constants in cm-1:     0.752577     0.206432     0.162534
Rotational constants in MHz : 22561.691287  6188.670141  4872.632168

                             ****ORCA TERMINATED NORMALLY****
TOTAL RUN TIME: 0 days 0 hours 3 minutes 11 seconds 450 msec
