                         Program Version 5.0.3 -  RELEASE  -
|  1> ! B3LYP cc-pVDZ
|  2> !TightSCF
|  3> %scf
|  4>  ConvForced true
|  5>  convergence tight
|  6>  MaxIter 500
|  7> end
|  8>
|  9> %tddft
| 10>  nroots 1
| 11> end
| 12>
| 13> # 	19497
| 14> * xyz 0 1
| 15> 		C   -1.129877  -0.367585   0.086156
| 16> 		O   -2.049107  -0.485349   0.870371
| 17> 		C    0.032852   0.330892   0.320194
| 18> 		C    1.245171   0.015141  -0.227611
| 19> 		H   -1.349773  -0.772913  -1.052695
| 20> 		H    0.050909   1.307356   1.064388
| 21> 		H    1.277582  -0.685800  -0.904997
| 22> 		H    1.916425   0.657162  -0.122202
| 23> *
| 24>
| 25>                          ****END OF INPUT****

CARTESIAN COORDINATES (ANGSTROEM)
---------------------------------
  C     -1.129877   -0.367585    0.086156
  O     -2.049107   -0.485349    0.870371
  C      0.032852    0.330892    0.320194
  C      1.245171    0.015141   -0.227611
  H     -1.349773   -0.772913   -1.052695
  H      0.050909    1.307356    1.064388
  H      1.277582   -0.685800   -0.904997
  H      1.916425    0.657162   -0.122202

 Total Charge           Charge          ....    0
 Multiplicity           Mult            ....    1
 Number of Electrons    NEL             ....   30
 Basis Dimension        Dim             ....   76

ORBITAL ENERGIES
----------------

  NO   OCC          E(Eh)            E(eV)
   0   2.0000     -19.137856      -520.7675
   1   2.0000     -10.277815      -279.6736
   2   2.0000     -10.220068      -278.1022
   3   2.0000     -10.198565      -277.5171
   4   2.0000      -1.045994       -28.4629
   5   2.0000      -0.816354       -22.2141
   6   2.0000      -0.679951       -18.5024
   7   2.0000      -0.552973       -15.0472
   8   2.0000      -0.496372       -13.5070
   9   2.0000      -0.477252       -12.9867
  10   2.0000      -0.428797       -11.6682
  11   2.0000      -0.411653       -11.2016
  12   2.0000      -0.369093       -10.0435
  13   2.0000      -0.291064        -7.9203
  14   2.0000      -0.254151        -6.9158
  15   0.0000      -0.076627        -2.0851
  16   0.0000       0.020619         0.5611
  17   0.0000       0.077556         2.1104
  18   0.0000       0.088176         2.3994
  19   0.0000       0.121714         3.3120

MULLIKEN ATOMIC CHARGES
-----------------------
   0 C :    0.145320
   1 O :   -0.189018
   2 C :   -0.164410
   3 C :    0.243156
   4 H :   -0.016091
   5 H :    0.044040
   6 H :   -0.028776
   7 H :   -0.034222
Sum of atomic charges:    0.0000000

LOEWDIN ATOMIC CHARGES
----------------------
   0 C :   -0.069715
   1 O :    0.002064
   2 C :   -0.049216
   3 C :    0.065948
   4 H :    0.000877
   5 H :    0.062281
   6 H :    0.000051
   7 H :   -0.012291

  Mayer bond orders larger than 0.100000
B(  0-C ,  1-O ) :   2.1527 B(  0-C ,  2-C ) :   1.0926 B(  0-C ,  4-H ) :   0.9019
B(  2-C ,  3-C ) :   1.9472 B(  2-C ,  5-H ) :   0.9270 B(  3-C ,  6-H ) :   0.9489
B(  3-C ,  7-H ) :   0.9263

-----------------------------------------------------------------------------
         ABSORPTION SPECTRUM VIA TRANSITION ELECTRIC DIPOLE MOMENTS
-----------------------------------------------------------------------------
State   Energy    Wavelength  fosc         T2        TX        TY        TZ
        (cm-1)      (nm)                 (au**2)    (au)      (au)      (au)
-----------------------------------------------------------------------------
   1   26500.2    377.4   0.000310622   0.00386  -0.06096   0.01189  -0.00111

FINAL SINGLE POINT ENERGY      -191.626426829232

DIPOLE MOMENT
-------------
                                X             Y             Z
Electronic contribution:     -2.69535      -0.67850       1.42308
Nuclear contribution   :      3.70279       0.97230      -1.95109
                        -----------------------------------------
Total Dipole Moment    :      1.00743       0.29381      -0.52802
                        -----------------------------------------
Magnitude (a.u.)       :      1.17475
Magnitude (Debye)      :      2.98598

Rotational constants in cm-1:     1.495724     0.159641     0.148236
Rotational constants in MHz : 44840.685622  4785.929058  4443.998546

                             ****ORCA TERMINATED NORMALLY****
TOTAL RUN TIME: 0 days 0 hours 3 minutes 20 seconds 714 msec
