                         Program Version 5.0.3 -  RELEASE  -
|  1> ! HF-3c
|  2> !TightSCF
|  3> %scf
|  4>  ConvForced true
|  5>  convergence tight
|  6>  MaxIter 500
|  7> end
|  8>
|  9> %tddft
| 10>  nroots 1
| 11> end
| 12>
| 13> # 	5274
| 14> * xyz 0 1
| 15> 		C   -1.225524  -0.316036  -0.040348
| 16> 		O   -1.818006  -0.929174  -0.955899
| 17> 		C    0.017605   0.506733  -0.281104
| 18> 		C    1.129829   0.046514   0.260743
| 19> 		H   -1.291168  -0.451192   0.967090
| 20> 		H   -0.127234   1.363214  -0.821003
| 21> 		H    1.157666  -0.929661   0.759402
| 22> 		H    2.113084   0.657735   0.099963
| 23> *
| 24>
| 25>                          ****END OF INPUT****

CARTESIAN COORDINATES (ANGSTROEM)
---------------------------------
  C     -1.225524   -0.316036   -0.040348
  O     -1.818006   -0.929174   -0.955899
  C      0.017605    0.506733   -0.281104
  C      1.129829    0.046514    0.260743
  H     -1.291168   -0.451192    0.967090
  H     -0.127234    1.363214   -0.821003
  H      1.157666   -0.929661    0.759402
  H      2.113084    0.657735    0.099963

 Total Charge           Charge          ....    0
 Multiplicity           Mult            ....    1
 Number of Electrons    NEL             ....   30
 Basis Dimension        Dim             ....   24

ORBITAL ENERGIES
----------------

  NO   OCC          E(Eh)            E(eV)
   0   2.0000     -20.374038      -554.4058
   1   2.0000     -11.292995      -307.2980
   2   2.0000     -11.188996      -304.4681
   3   2.0000     -11.184466      -304.3448
   4   2.0000      -1.379676       -37.5429
   5   2.0000      -1.089953       -29.6591
   6   2.0000      -0.887179       -24.1414
   7   2.0000      -0.791201       -21.5297
   8   2.0000      -0.670308       -18.2400
   9   2.0000      -0.634989       -17.2789
  10   2.0000      -0.600726       -16.3466
  11   2.0000      -0.547046       -14.8859
  12   2.0000      -0.500627       -13.6228
  13   2.0000      -0.415107       -11.2956
  14   2.0000      -0.403689       -10.9849
  15   0.0000       0.153999         4.1905
  16   0.0000       0.240779         6.5519
  17   0.0000       0.544544        14.8178
  18   0.0000       0.596158        16.2223
  19   0.0000       0.667673        18.1683

MULLIKEN ATOMIC CHARGES
-----------------------
   0 C :    0.152097
   1 O :   -0.327361
   2 C :   -0.177553
   3 C :   -0.231707
   4 H :    0.143481
   5 H :    0.151565
   6 H :    0.141162
   7 H :    0.148317
Sum of atomic charges:    0.0000000

LOEWDIN ATOMIC CHARGES
----------------------
   0 C :    0.151200
   1 O :   -0.243504
   2 C :   -0.124502
   3 C :   -0.145292
   4 H :    0.072958
   5 H :    0.093062
   6 H :    0.092483
   7 H :    0.103594

  Mayer bond orders larger than 0.100000
B(  0-C ,  1-O ) :   1.9445 B(  0-C ,  2-C ) :   0.9867 B(  0-C ,  4-H ) :   0.9331
B(  2-C ,  3-C ) :   1.9917 B(  2-C ,  5-H ) :   0.9565 B(  3-C ,  6-H ) :   0.9637
B(  3-C ,  7-H ) :   0.9584

-----------------------------------------------------------------------------
         ABSORPTION SPECTRUM VIA TRANSITION ELECTRIC DIPOLE MOMENTS
-----------------------------------------------------------------------------
State   Energy    Wavelength  fosc         T2        TX        TY        TZ
        (cm-1)      (nm)                 (au**2)    (au)      (au)      (au)
-----------------------------------------------------------------------------
   1   31148.7    321.0   0.000176550   0.00187  -0.03722  -0.00985   0.01958

Dispersion correction           -0.025828520
FINAL SINGLE POINT ENERGY      -189.322377730906

DIPOLE MOMENT
-------------
                                X             Y             Z
Electronic contribution:     -2.93038      -0.91463      -1.23263
Nuclear contribution   :      3.60309       1.35094       1.93776
                        -----------------------------------------
Total Dipole Moment    :      0.67271       0.43631       0.70514
                        -----------------------------------------
Magnitude (a.u.)       :      1.06777
Magnitude (Debye)      :      2.71404

Rotational constants in cm-1:     1.088548     0.162299     0.156710
Rotational constants in MHz : 32633.833382  4865.593642  4698.058814

                             ****ORCA TERMINATED NORMALLY****
TOTAL RUN TIME: 0 days 0 hours 0 minutes 13 seconds 40 msec
