                         Program Version 5.0.3 -  RELEASE  -
|  1> ! HF-3c
|  2> !TightSCF
|  3> %scf
|  4>  ConvForced true
|  5>  convergence tight
|  6>  MaxIter 500
|  7> end
|  8>
|  9> %tddft
| 10>  nroots 1
| 11> end
| 12>
| 13> # 	10781
| 14> * xyz 0 1
| 15> 		C   -1.244078  -0.277680   0.044595
| 16> 		O   -1.232815  -1.549642   0.137857
| 17> 		C   -0.019135   0.555370   0.116521
| 18> 		C    1.297616   0.001169   0.034659
| 19> 		H   -2.198574   0.012058  -0.071011
| 20> 		H   -0.165893   1.731269  -0.125316
| 21> 		H    1.260637  -1.059589  -0.008386
| 22> 		H    2.229918   0.663916  -0.093122
| 23> *
| 24>
| 25>                          ****END OF INPUT****

CARTESIAN COORDINATES (ANGSTROEM)
---------------------------------
  C     -1.244078   -0.277680    0.044595
  O     -1.232815   -1.549642    0.137857
  C     -0.019135    0.555370    0.116521
  C      1.297616    0.001169    0.034659
  H     -2.198574    0.012058   -0.071011
  H     -0.165893    1.731269   -0.125316
  H      1.260637   -1.059589   -0.008386
  H      2.229918    0.663916   -0.093122

 Total Charge           Charge          ....    0
 Multiplicity           Mult            ....    1
 Number of Electrons    NEL             ....   30
 Basis Dimension        Dim             ....   24

ORBITAL ENERGIES
----------------

  NO   OCC          E(Eh)            E(eV)
   0   2.0000     -20.335985      -553.3703
   1   2.0000     -11.277023      -306.8634
   2   2.0000     -11.188636      -304.4583
   3   2.0000     -11.182496      -304.2912
   4   2.0000      -1.354356       -36.8539
   5   2.0000      -1.041342       -28.3363
   6   2.0000      -0.888233       -24.1700
   7   2.0000      -0.755917       -20.5695
   8   2.0000      -0.677437       -18.4340
   9   2.0000      -0.584490       -15.9048
  10   2.0000      -0.582858       -15.8604
  11   2.0000      -0.510590       -13.8939
  12   2.0000      -0.502854       -13.6834
  13   2.0000      -0.417861       -11.3706
  14   2.0000      -0.359423        -9.7804
  15   0.0000       0.109203         2.9716
  16   0.0000       0.280942         7.6448
  17   0.0000       0.502349        13.6696
  18   0.0000       0.557360        15.1665
  19   0.0000       0.611505        16.6399

MULLIKEN ATOMIC CHARGES
-----------------------
   0 C :    0.101861
   1 O :   -0.341339
   2 C :   -0.151537
   3 C :   -0.212709
   4 H :    0.150445
   5 H :    0.137572
   6 H :    0.160058
   7 H :    0.155649
Sum of atomic charges:    0.0000000

LOEWDIN ATOMIC CHARGES
----------------------
   0 C :    0.113301
   1 O :   -0.267771
   2 C :   -0.120527
   3 C :   -0.113207
   4 H :    0.079258
   5 H :    0.096142
   6 H :    0.103535
   7 H :    0.109270

  Mayer bond orders larger than 0.100000
B(  0-C ,  1-O ) :   1.8698 B(  0-C ,  2-C ) :   1.0621 B(  0-C ,  4-H ) :   0.9485
B(  2-C ,  3-C ) :   1.9069 B(  2-C ,  5-H ) :   0.9577 B(  3-C ,  6-H ) :   0.9605
B(  3-C ,  7-H ) :   0.9628

-----------------------------------------------------------------------------
         ABSORPTION SPECTRUM VIA TRANSITION ELECTRIC DIPOLE MOMENTS
-----------------------------------------------------------------------------
State   Energy    Wavelength  fosc         T2        TX        TY        TZ
        (cm-1)      (nm)                 (au**2)    (au)      (au)      (au)
-----------------------------------------------------------------------------
   1   27589.7    362.5   0.000121128   0.00145  -0.03465  -0.00511   0.01479

Dispersion correction           -0.024897367
FINAL SINGLE POINT ENERGY      -189.314365116889

DIPOLE MOMENT
-------------
                                X             Y             Z
Electronic contribution:     -1.84591      -1.60770       0.37674
Nuclear contribution   :      2.25963       2.59112      -0.56344
                        -----------------------------------------
Total Dipole Moment    :      0.41371       0.98342      -0.18670
                        -----------------------------------------
Magnitude (a.u.)       :      1.08311
Magnitude (Debye)      :      2.75305

Rotational constants in cm-1:     0.718570     0.195769     0.154272
Rotational constants in MHz : 21542.176778  5869.018631  4624.971529

                             ****ORCA TERMINATED NORMALLY****
TOTAL RUN TIME: 0 days 0 hours 0 minutes 13 seconds 536 msec
