                         Program Version 5.0.3 -  RELEASE  -
|  1> ! B3LYP cc-pVDZ
|  2> !TightSCF
|  3> %scf
|  4>  ConvForced true
|  5>  convergence tight
|  6>  MaxIter 500
|  7> end
|  8>
|  9> %tddft
| 10>  nroots 1
| 11> end
| 12>
| 13> # 	23333
| 14> * xyz 0 1
| 15> 		C   -0.541654  -0.433892  -0.027766
| 16> 		O   -0.630106  -1.671984   0.024912
| 17> 		C    0.650838   0.404925   0.009451
| 18> 		C    1.834635  -0.059932  -0.018182
| 19> 		H   -1.438420   0.121607  -0.114189
| 20> 		H    0.654025   1.436927   0.158630
| 21> 		H    1.976903  -1.105433  -0.124823
| 22> 		H    2.633960   0.377697   0.138042
| 23> *
| 24>
| 25>                          ****END OF INPUT****

CARTESIAN COORDINATES (ANGSTROEM)
---------------------------------
  C     -0.541654   -0.433892   -0.027766
  O     -0.630106   -1.671984    0.024912
  C      0.650838    0.404925    0.009451
  C      1.834635   -0.059932   -0.018182
  H     -1.438420    0.121607   -0.114189
  H      0.654025    1.436927    0.158630
  H      1.976903   -1.105433   -0.124823
  H      2.633960    0.377697    0.138042

 Total Charge           Charge          ....    0
 Multiplicity           Mult            ....    1
 Number of Electrons    NEL             ....   30
 Basis Dimension        Dim             ....   76

ORBITAL ENERGIES
----------------

  NO   OCC          E(Eh)            E(eV)
   0   2.0000     -19.138661      -520.7894
   1   2.0000     -10.272008      -279.5155
   2   2.0000     -10.192864      -277.3619
   3   2.0000     -10.185886      -277.1720
   4   2.0000      -1.027886       -27.9702
   5   2.0000      -0.820448       -22.3255
   6   2.0000      -0.676566       -18.4103
   7   2.0000      -0.566988       -15.4285
   8   2.0000      -0.528059       -14.3692
   9   2.0000      -0.451911       -12.2971
  10   2.0000      -0.431876       -11.7519
  11   2.0000      -0.390877       -10.6363
  12   2.0000      -0.376889       -10.2557
  13   2.0000      -0.298371        -8.1191
  14   2.0000      -0.256329        -6.9751
  15   0.0000      -0.070942        -1.9304
  16   0.0000       0.065846         1.7918
  17   0.0000       0.078959         2.1486
  18   0.0000       0.103550         2.8177
  19   0.0000       0.132463         3.6045

MULLIKEN ATOMIC CHARGES
-----------------------
   0 C :    0.224297
   1 O :   -0.215978
   2 C :   -0.128520
   3 C :    0.231360
   4 H :   -0.026436
   5 H :   -0.036976
   6 H :    0.007239
   7 H :   -0.054986
Sum of atomic charges:    0.0000000

LOEWDIN ATOMIC CHARGES
----------------------
   0 C :   -0.002226
   1 O :   -0.029947
   2 C :   -0.068935
   3 C :    0.071243
   4 H :   -0.009855
   5 H :    0.026403
   6 H :    0.031396
   7 H :   -0.018078

  Mayer bond orders larger than 0.100000
B(  0-C ,  1-O ) :   2.1686 B(  0-C ,  2-C ) :   1.0539 B(  0-C ,  4-H ) :   0.9300
B(  2-C ,  3-C ) :   2.0061 B(  2-C ,  5-H ) :   0.9425 B(  3-C ,  6-H ) :   0.9330
B(  3-C ,  7-H ) :   0.9241

-----------------------------------------------------------------------------
         ABSORPTION SPECTRUM VIA TRANSITION ELECTRIC DIPOLE MOMENTS
-----------------------------------------------------------------------------
State   Energy    Wavelength  fosc         T2        TX        TY        TZ
        (cm-1)      (nm)                 (au**2)    (au)      (au)      (au)
-----------------------------------------------------------------------------
   1   27223.2    367.3   0.000044796   0.00054   0.00289   0.00384   0.02277

FINAL SINGLE POINT ENERGY      -191.640381877440

DIPOLE MOMENT
-------------
                                X             Y             Z
Electronic contribution:     -1.92574      -1.58880      -0.04669
Nuclear contribution   :      2.42990       2.56779       0.05323
                        -----------------------------------------
Total Dipole Moment    :      0.50416       0.97899       0.00655
                        -----------------------------------------
Magnitude (a.u.)       :      1.10120
Magnitude (Debye)      :      2.79902

Rotational constants in cm-1:     0.845874     0.202217     0.163511
Rotational constants in MHz : 25358.670462  6062.318496  4901.925846

                             ****ORCA TERMINATED NORMALLY****
TOTAL RUN TIME: 0 days 0 hours 3 minutes 21 seconds 603 msec
