                         Program Version 5.0.3 -  RELEASE  -
|  1> ! HF-3c
|  2> !TightSCF
|  3> %scf
|  4>  ConvForced true
|  5>  convergence tight
|  6>  MaxIter 500
|  7> end
|  8>
|  9> %tddft
| 10>  nroots 1
| 11> end
| 12>
| 13> # 	20335
| 14> * xyz 0 1
| 15> 		C   -0.552723  -0.449555   0.018999
| 16> 		O   -0.596935  -1.642049  -0.021517
| 17> 		C    0.578152   0.418637  -0.015403
| 18> 		C    1.886832  -0.127605  -0.000242
| 19> 		H   -1.534151   0.278090   0.185295
| 20> 		H    0.572181   1.519511  -0.093296
| 21> 		H    1.981549  -1.206082   0.230149
| 22> 		H    2.648456   0.623592  -0.032782
| 23> *
| 24>
| 25>                          ****END OF INPUT****

CARTESIAN COORDINATES (ANGSTROEM)
---------------------------------
  C     -0.552723   -0.449555    0.018999
  O     -0.596935   -1.642049   -0.021517
  C      0.578152    0.418637   -0.015403
  C      1.886832   -0.127605   -0.000242
  H     -1.534151    0.278090    0.185295
  H      0.572181    1.519511   -0.093296
  H      1.981549   -1.206082    0.230149
  H      2.648456    0.623592   -0.032782

 Total Charge           Charge          ....    0
 Multiplicity           Mult            ....    1
 Number of Electrons    NEL             ....   30
 Basis Dimension        Dim             ....   24

ORBITAL ENERGIES
----------------

  NO   OCC          E(Eh)            E(eV)
   0   2.0000     -20.361326      -554.0599
   1   2.0000     -11.295745      -307.3729
   2   2.0000     -11.191930      -304.5479
   3   2.0000     -11.175966      -304.1135
   4   2.0000      -1.406049       -38.2605
   5   2.0000      -1.065755       -29.0007
   6   2.0000      -0.889799       -24.2127
   7   2.0000      -0.723528       -19.6882
   8   2.0000      -0.696695       -18.9580
   9   2.0000      -0.608363       -16.5544
  10   2.0000      -0.582354       -15.8467
  11   2.0000      -0.546325       -14.8663
  12   2.0000      -0.532507       -14.4902
  13   2.0000      -0.393454       -10.7064
  14   2.0000      -0.372645       -10.1402
  15   0.0000       0.115148         3.1333
  16   0.0000       0.314702         8.5635
  17   0.0000       0.521647        14.1947
  18   0.0000       0.584568        15.9069
  19   0.0000       0.614135        16.7115

MULLIKEN ATOMIC CHARGES
-----------------------
   0 C :    0.182263
   1 O :   -0.370332
   2 C :   -0.183830
   3 C :   -0.198446
   4 H :    0.116148
   5 H :    0.142681
   6 H :    0.165285
   7 H :    0.146231
Sum of atomic charges:    0.0000000

LOEWDIN ATOMIC CHARGES
----------------------
   0 C :    0.151306
   1 O :   -0.270885
   2 C :   -0.149127
   3 C :   -0.093968
   4 H :    0.063791
   5 H :    0.092871
   6 H :    0.111670
   7 H :    0.094342

  Mayer bond orders larger than 0.100000
B(  0-C ,  1-O ) :   1.8877 B(  0-C ,  2-C ) :   1.0642 B(  0-C ,  4-H ) :   0.9027
B(  2-C ,  3-C ) :   1.8923 B(  2-C ,  5-H ) :   0.9631 B(  3-C ,  6-H ) :   0.9605
B(  3-C ,  7-H ) :   0.9685

-----------------------------------------------------------------------------
         ABSORPTION SPECTRUM VIA TRANSITION ELECTRIC DIPOLE MOMENTS
-----------------------------------------------------------------------------
State   Energy    Wavelength  fosc         T2        TX        TY        TZ
        (cm-1)      (nm)                 (au**2)    (au)      (au)      (au)
-----------------------------------------------------------------------------
   1   32463.5    308.0   0.000021531   0.00022  -0.00633  -0.00044  -0.01334

Dispersion correction           -0.025636719
FINAL SINGLE POINT ENERGY      -189.311889377618

DIPOLE MOMENT
-------------
                                X             Y             Z
Electronic contribution:     -1.79117      -1.92341      -0.18926
Nuclear contribution   :      2.28230       2.92676       0.27198
                        -----------------------------------------
Total Dipole Moment    :      0.49113       1.00335       0.08273
                        -----------------------------------------
Magnitude (a.u.)       :      1.12016
Magnitude (Debye)      :      2.84723

Rotational constants in cm-1:     0.748472     0.206769     0.162363
Rotational constants in MHz : 22438.629947  6198.778043  4867.526978

                             ****ORCA TERMINATED NORMALLY****
TOTAL RUN TIME: 0 days 0 hours 0 minutes 16 seconds 100 msec
