                         Program Version 5.0.3 -  RELEASE  -
|  1> ! B3LYP cc-pVDZ
|  2> !TightSCF
|  3> %scf
|  4>  ConvForced true
|  5>  convergence tight
|  6>  MaxIter 500
|  7> end
|  8>
|  9> %tddft
| 10>  nroots 1
| 11> end
| 12>
| 13> # 	17113
| 14> * xyz 0 1
| 15> 		C   -1.193856  -0.374255  -0.000354
| 16> 		O   -1.857281  -0.979592  -0.851221
| 17> 		C   -0.014090   0.402214  -0.366260
| 18> 		C    1.197432   0.128821   0.137010
| 19> 		H   -1.489556  -0.421614   1.075542
| 20> 		H   -0.149289   1.247359  -0.954359
| 21> 		H    1.262175  -0.771597   0.951440
| 22> 		H    2.294413   0.740628  -0.062457
| 23> *
| 24>
| 25>                          ****END OF INPUT****

CARTESIAN COORDINATES (ANGSTROEM)
---------------------------------
  C     -1.193856   -0.374255   -0.000354
  O     -1.857281   -0.979592   -0.851221
  C     -0.014090    0.402214   -0.366260
  C      1.197432    0.128821    0.137010
  H     -1.489556   -0.421614    1.075542
  H     -0.149289    1.247359   -0.954359
  H      1.262175   -0.771597    0.951440
  H      2.294413    0.740628   -0.062457

 Total Charge           Charge          ....    0
 Multiplicity           Mult            ....    1
 Number of Electrons    NEL             ....   30
 Basis Dimension        Dim             ....   76

ORBITAL ENERGIES
----------------

  NO   OCC          E(Eh)            E(eV)
   0   2.0000     -19.144961      -520.9609
   1   2.0000     -10.283961      -279.8408
   2   2.0000     -10.235532      -278.5230
   3   2.0000     -10.205782      -277.7135
   4   2.0000      -1.038045       -28.2466
   5   2.0000      -0.799489       -21.7552
   6   2.0000      -0.639378       -17.3984
   7   2.0000      -0.565825       -15.3969
   8   2.0000      -0.485380       -13.2079
   9   2.0000      -0.457167       -12.4402
  10   2.0000      -0.433034       -11.7834
  11   2.0000      -0.376587       -10.2474
  12   2.0000      -0.365974        -9.9587
  13   2.0000      -0.288631        -7.8541
  14   2.0000      -0.259264        -7.0549
  15   0.0000      -0.056785        -1.5452
  16   0.0000       0.003326         0.0905
  17   0.0000       0.054615         1.4862
  18   0.0000       0.080984         2.2037
  19   0.0000       0.102430         2.7873

MULLIKEN ATOMIC CHARGES
-----------------------
   0 C :    0.167277
   1 O :   -0.204340
   2 C :    0.013219
   3 C :   -0.099606
   4 H :    0.001961
   5 H :    0.002023
   6 H :    0.046282
   7 H :    0.073184
Sum of atomic charges:   -0.0000000

LOEWDIN ATOMIC CHARGES
----------------------
   0 C :   -0.006256
   1 O :   -0.013948
   2 C :   -0.062921
   3 C :   -0.048591
   4 H :    0.002083
   5 H :    0.025804
   6 H :    0.042892
   7 H :    0.060936

  Mayer bond orders larger than 0.100000
B(  0-C ,  1-O ) :   2.1749 B(  0-C ,  2-C ) :   1.0112 B(  0-C ,  4-H ) :   0.9239
B(  2-C ,  3-C ) :   1.9724 B(  2-C ,  5-H ) :   0.9482 B(  3-C ,  6-H ) :   0.9355
B(  3-C ,  7-H ) :   0.9344

-----------------------------------------------------------------------------
         ABSORPTION SPECTRUM VIA TRANSITION ELECTRIC DIPOLE MOMENTS
-----------------------------------------------------------------------------
State   Energy    Wavelength  fosc         T2        TX        TY        TZ
        (cm-1)      (nm)                 (au**2)    (au)      (au)      (au)
-----------------------------------------------------------------------------
   1   30217.0    330.9   0.000470800   0.00513   0.06254  -0.00946   0.03359

FINAL SINGLE POINT ENERGY      -191.635274336057

DIPOLE MOMENT
-------------
                                X             Y             Z
Electronic contribution:     -2.99341      -1.02818      -1.39448
Nuclear contribution   :      3.64712       1.60396       1.96720
                        -----------------------------------------
Total Dipole Moment    :      0.65370       0.57578       0.57271
                        -----------------------------------------
Magnitude (a.u.)       :      1.04252
Magnitude (Debye)      :      2.64988

Rotational constants in cm-1:     1.162723     0.157411     0.152401
Rotational constants in MHz : 34857.558087  4719.057655  4568.880345

                             ****ORCA TERMINATED NORMALLY****
TOTAL RUN TIME: 0 days 0 hours 3 minutes 18 seconds 799 msec
