                         Program Version 5.0.3 -  RELEASE  -
|  1> ! HF-3c
|  2> !TightSCF
|  3> %scf
|  4>  ConvForced true
|  5>  convergence tight
|  6>  MaxIter 500
|  7> end
|  8>
|  9> %tddft
| 10>  nroots 1
| 11> end
| 12>
| 13> # 	28174
| 14> * xyz 0 1
| 15> 		C   -0.581332  -0.442485   0.039704
| 16> 		O   -0.553832  -1.602020  -0.027656
| 17> 		C    0.618271   0.433894   0.008027
| 18> 		C    1.822078  -0.162463   0.005904
| 19> 		H   -1.551879   0.002801   0.037336
| 20> 		H    0.546328   1.584307  -0.284710
| 21> 		H    1.916638  -1.245305   0.078666
| 22> 		H    2.696713   0.369012  -0.048489
| 23> *
| 24>
| 25>                          ****END OF INPUT****

CARTESIAN COORDINATES (ANGSTROEM)
---------------------------------
  C     -0.581332   -0.442485    0.039704
  O     -0.553832   -1.602020   -0.027656
  C      0.618271    0.433894    0.008027
  C      1.822078   -0.162463    0.005904
  H     -1.551879    0.002801    0.037336
  H      0.546328    1.584307   -0.284710
  H      1.916638   -1.245305    0.078666
  H      2.696713    0.369012   -0.048489

 Total Charge           Charge          ....    0
 Multiplicity           Mult            ....    1
 Number of Electrons    NEL             ....   30
 Basis Dimension        Dim             ....   24

ORBITAL ENERGIES
----------------

  NO   OCC          E(Eh)            E(eV)
   0   2.0000     -20.378010      -554.5138
   1   2.0000     -11.308550      -307.7213
   2   2.0000     -11.186540      -304.4012
   3   2.0000     -11.184933      -304.3575
   4   2.0000      -1.442634       -39.2561
   5   2.0000      -1.072793       -29.1922
   6   2.0000      -0.889359       -24.2007
   7   2.0000      -0.761325       -20.7167
   8   2.0000      -0.702478       -19.1154
   9   2.0000      -0.619184       -16.8489
  10   2.0000      -0.604067       -16.4375
  11   2.0000      -0.565043       -15.3756
  12   2.0000      -0.526483       -14.3263
  13   2.0000      -0.414664       -11.2836
  14   2.0000      -0.392450       -10.6791
  15   0.0000       0.139804         3.8043
  16   0.0000       0.308383         8.3915
  17   0.0000       0.534423        14.5424
  18   0.0000       0.581082        15.8120
  19   0.0000       0.684538        18.6272

MULLIKEN ATOMIC CHARGES
-----------------------
   0 C :    0.169574
   1 O :   -0.360350
   2 C :   -0.160589
   3 C :   -0.232063
   4 H :    0.134085
   5 H :    0.149478
   6 H :    0.159218
   7 H :    0.140647
Sum of atomic charges:   -0.0000000

LOEWDIN ATOMIC CHARGES
----------------------
   0 C :    0.143478
   1 O :   -0.250224
   2 C :   -0.127747
   3 C :   -0.127257
   4 H :    0.065544
   5 H :    0.104968
   6 H :    0.105074
   7 H :    0.086163

  Mayer bond orders larger than 0.100000
B(  0-C ,  1-O ) :   1.9129 B(  0-C ,  2-C ) :   1.0098 B(  0-C ,  4-H ) :   0.9259
B(  2-C ,  3-C ) :   1.9518 B(  2-C ,  5-H ) :   0.9553 B(  3-C ,  6-H ) :   0.9585
B(  3-C ,  7-H ) :   0.9685

-----------------------------------------------------------------------------
         ABSORPTION SPECTRUM VIA TRANSITION ELECTRIC DIPOLE MOMENTS
-----------------------------------------------------------------------------
State   Energy    Wavelength  fosc         T2        TX        TY        TZ
        (cm-1)      (nm)                 (au**2)    (au)      (au)      (au)
-----------------------------------------------------------------------------
   1   35138.6    284.6   0.000066279   0.00062  -0.02306   0.00138   0.00936

Dispersion correction           -0.025877415
FINAL SINGLE POINT ENERGY      -189.314960800992

DIPOLE MOMENT
-------------
                                X             Y             Z
Electronic contribution:     -1.95921      -1.56907       0.17106
Nuclear contribution   :      2.22714       2.45547      -0.20302
                        -----------------------------------------
Total Dipole Moment    :      0.26793       0.88641      -0.03197
                        -----------------------------------------
Magnitude (a.u.)       :      0.92657
Magnitude (Debye)      :      2.35514

Rotational constants in cm-1:     0.760564     0.218055     0.169892
Rotational constants in MHz : 22801.128783  6537.120453  5093.224417

                             ****ORCA TERMINATED NORMALLY****
TOTAL RUN TIME: 0 days 0 hours 0 minutes 12 seconds 314 msec
