                         Program Version 5.0.3 -  RELEASE  -
|  1> ! B3LYP cc-pVDZ
|  2> !TightSCF
|  3> %scf
|  4>  ConvForced true
|  5>  convergence tight
|  6>  MaxIter 500
|  7> end
|  8>
|  9> %tddft
| 10>  nroots 1
| 11> end
| 12>
| 13> # 	23270
| 14> * xyz 0 1
| 15> 		C   -0.647792  -0.422857   0.061152
| 16> 		O   -0.552894  -1.674897  -0.031774
| 17> 		C    0.613218   0.448656   0.003461
| 18> 		C    1.881164  -0.128703  -0.035888
| 19> 		H   -1.723955   0.116855  -0.057070
| 20> 		H    0.515632   1.712478  -0.194359
| 21> 		H    2.087333  -1.150718   0.301466
| 22> 		H    2.859549   0.414176   0.105108
| 23> *
| 24>
| 25>                          ****END OF INPUT****

CARTESIAN COORDINATES (ANGSTROEM)
---------------------------------
  C     -0.647792   -0.422857    0.061152
  O     -0.552894   -1.674897   -0.031774
  C      0.613218    0.448656    0.003461
  C      1.881164   -0.128703   -0.035888
  H     -1.723955    0.116855   -0.057070
  H      0.515632    1.712478   -0.194359
  H      2.087333   -1.150718    0.301466
  H      2.859549    0.414176    0.105108

 Total Charge           Charge          ....    0
 Multiplicity           Mult            ....    1
 Number of Electrons    NEL             ....   30
 Basis Dimension        Dim             ....   76

ORBITAL ENERGIES
----------------

  NO   OCC          E(Eh)            E(eV)
   0   2.0000     -19.146739      -521.0093
   1   2.0000     -10.297077      -280.1977
   2   2.0000     -10.238804      -278.6120
   3   2.0000     -10.224360      -278.2190
   4   2.0000      -1.025781       -27.9129
   5   2.0000      -0.773470       -21.0472
   6   2.0000      -0.646547       -17.5935
   7   2.0000      -0.537795       -14.6341
   8   2.0000      -0.479058       -13.0358
   9   2.0000      -0.441510       -12.0141
  10   2.0000      -0.412516       -11.2251
  11   2.0000      -0.386812       -10.5257
  12   2.0000      -0.363420        -9.8892
  13   2.0000      -0.282861        -7.6970
  14   2.0000      -0.260117        -7.0782
  15   0.0000      -0.084332        -2.2948
  16   0.0000       0.029230         0.7954
  17   0.0000       0.042928         1.1681
  18   0.0000       0.085387         2.3235
  19   0.0000       0.088183         2.3996

MULLIKEN ATOMIC CHARGES
-----------------------
   0 C :    0.169613
   1 O :   -0.214417
   2 C :   -0.157793
   3 C :    0.034912
   4 H :    0.022699
   5 H :    0.048164
   6 H :    0.049258
   7 H :    0.047564
Sum of atomic charges:    0.0000000

LOEWDIN ATOMIC CHARGES
----------------------
   0 C :   -0.012790
   1 O :   -0.043149
   2 C :   -0.091138
   3 C :    0.005345
   4 H :    0.014444
   5 H :    0.053909
   6 H :    0.033678
   7 H :    0.039700

  Mayer bond orders larger than 0.100000
B(  0-C ,  1-O ) :   2.1319 B(  0-C ,  2-C ) :   1.0078 B(  0-C ,  4-H ) :   0.9037
B(  2-C ,  3-C ) :   1.9212 B(  2-C ,  5-H ) :   0.9256 B(  3-C ,  6-H ) :   0.9490
B(  3-C ,  7-H ) :   0.9527

-----------------------------------------------------------------------------
         ABSORPTION SPECTRUM VIA TRANSITION ELECTRIC DIPOLE MOMENTS
-----------------------------------------------------------------------------
State   Energy    Wavelength  fosc         T2        TX        TY        TZ
        (cm-1)      (nm)                 (au**2)    (au)      (au)      (au)
-----------------------------------------------------------------------------
   1   25906.9    386.0   0.000122810   0.00156   0.02642  -0.00008  -0.02937

FINAL SINGLE POINT ENERGY      -191.651991162346

DIPOLE MOMENT
-------------
                                X             Y             Z
Electronic contribution:     -1.99738      -1.94242      -0.04736
Nuclear contribution   :      2.34999       2.81023       0.14555
                        -----------------------------------------
Total Dipole Moment    :      0.35261       0.86781       0.09819
                        -----------------------------------------
Magnitude (a.u.)       :      0.94185
Magnitude (Debye)      :      2.39399

Rotational constants in cm-1:     0.666227     0.200786     0.154914
Rotational constants in MHz : 19972.992533  6019.426727  4644.190051

                             ****ORCA TERMINATED NORMALLY****
TOTAL RUN TIME: 0 days 0 hours 3 minutes 20 seconds 602 msec
