                         Program Version 5.0.3 -  RELEASE  -
|  1> ! HF-3c
|  2> !TightSCF
|  3> %scf
|  4>  ConvForced true
|  5>  convergence tight
|  6>  MaxIter 500
|  7> end
|  8>
|  9> %tddft
| 10>  nroots 1
| 11> end
| 12>
| 13> # 	26019
| 14> * xyz 0 1
| 15> 		C   -0.566512  -0.443073   0.042627
| 16> 		O   -0.625430  -1.645436  -0.019371
| 17> 		C    0.615474   0.406762  -0.044989
| 18> 		C    1.878090  -0.108086   0.027214
| 19> 		H   -1.487686   0.178715   0.098525
| 20> 		H    0.369624   1.318323  -0.090057
| 21> 		H    2.184282  -1.015219  -0.069645
| 22> 		H    2.832141   0.625491   0.071517
| 23> *
| 24>
| 25>                          ****END OF INPUT****

CARTESIAN COORDINATES (ANGSTROEM)
---------------------------------
  C     -0.566512   -0.443073    0.042627
  O     -0.625430   -1.645436   -0.019371
  C      0.615474    0.406762   -0.044989
  C      1.878090   -0.108086    0.027214
  H     -1.487686    0.178715    0.098525
  H      0.369624    1.318323   -0.090057
  H      2.184282   -1.015219   -0.069645
  H      2.832141    0.625491    0.071517

 Total Charge           Charge          ....    0
 Multiplicity           Mult            ....    1
 Number of Electrons    NEL             ....   30
 Basis Dimension        Dim             ....   24

ORBITAL ENERGIES
----------------

  NO   OCC          E(Eh)            E(eV)
   0   2.0000     -20.364540      -554.1473
   1   2.0000     -11.294389      -307.3360
   2   2.0000     -11.209510      -305.0263
   3   2.0000     -11.197800      -304.7076
   4   2.0000      -1.401585       -38.1391
   5   2.0000      -1.086868       -29.5752
   6   2.0000      -0.915691       -24.9172
   7   2.0000      -0.773741       -21.0545
   8   2.0000      -0.706136       -19.2149
   9   2.0000      -0.644937       -17.5496
  10   2.0000      -0.587364       -15.9830
  11   2.0000      -0.548607       -14.9284
  12   2.0000      -0.541443       -14.7334
  13   2.0000      -0.409269       -11.1368
  14   2.0000      -0.392266       -10.6741
  15   0.0000       0.117375         3.1939
  16   0.0000       0.301797         8.2123
  17   0.0000       0.506718        13.7885
  18   0.0000       0.654525        17.8105
  19   0.0000       0.687972        18.7207

MULLIKEN ATOMIC CHARGES
-----------------------
   0 C :    0.172983
   1 O :   -0.353969
   2 C :   -0.201525
   3 C :   -0.191891
   4 H :    0.129136
   5 H :    0.142357
   6 H :    0.152199
   7 H :    0.150708
Sum of atomic charges:   -0.0000000

LOEWDIN ATOMIC CHARGES
----------------------
   0 C :    0.150984
   1 O :   -0.257836
   2 C :   -0.147627
   3 C :   -0.086985
   4 H :    0.066752
   5 H :    0.079636
   6 H :    0.087614
   7 H :    0.107461

  Mayer bond orders larger than 0.100000
B(  0-C ,  1-O ) :   1.9013 B(  0-C ,  2-C ) :   1.0367 B(  0-C ,  4-H ) :   0.9229
B(  2-C ,  3-C ) :   1.9256 B(  2-C ,  5-H ) :   0.9655 B(  3-C ,  6-H ) :   0.9684
B(  3-C ,  7-H ) :   0.9618

-----------------------------------------------------------------------------
         ABSORPTION SPECTRUM VIA TRANSITION ELECTRIC DIPOLE MOMENTS
-----------------------------------------------------------------------------
State   Energy    Wavelength  fosc         T2        TX        TY        TZ
        (cm-1)      (nm)                 (au**2)    (au)      (au)      (au)
-----------------------------------------------------------------------------
   1   31913.7    313.3   0.000052661   0.00054  -0.02327   0.00132  -0.00007

Dispersion correction           -0.025632506
FINAL SINGLE POINT ENERGY      -189.294745713314

DIPOLE MOMENT
-------------
                                X             Y             Z
Electronic contribution:     -2.01193      -1.86939       0.03249
Nuclear contribution   :      2.50106       2.82512       0.00948
                        -----------------------------------------
Total Dipole Moment    :      0.48913       0.95573       0.04197
                        -----------------------------------------
Magnitude (a.u.)       :      1.07445
Magnitude (Debye)      :      2.73103

Rotational constants in cm-1:     0.798474     0.200136     0.160296
Rotational constants in MHz : 23937.656721  5999.912699  4805.563446

                             ****ORCA TERMINATED NORMALLY****
TOTAL RUN TIME: 0 days 0 hours 0 minutes 7 seconds 484 msec
