                         Program Version 5.0.3 -  RELEASE  -
|  1> ! HF-3c
|  2> !TightSCF
|  3> %scf
|  4>  ConvForced true
|  5>  convergence tight
|  6>  MaxIter 500
|  7> end
|  8>
|  9> %tddft
| 10>  nroots 1
| 11> end
| 12>
| 13> # 	30333
| 14> * xyz 0 1
| 15> 		C   -0.569588  -0.423056   0.032143
| 16> 		O   -0.569165  -1.672938  -0.013316
| 17> 		C    0.609293   0.436099  -0.021814
| 18> 		C    1.840995  -0.104895   0.031415
| 19> 		H   -1.652400   0.178565  -0.034539
| 20> 		H    0.664241   1.643915  -0.062515
| 21> 		H    1.816131  -1.450822  -0.106991
| 22> 		H    2.813182   0.521549  -0.087709
| 23> *
| 24>
| 25>                          ****END OF INPUT****

CARTESIAN COORDINATES (ANGSTROEM)
---------------------------------
  C     -0.569588   -0.423056    0.032143
  O     -0.569165   -1.672938   -0.013316
  C      0.609293    0.436099   -0.021814
  C      1.840995   -0.104895    0.031415
  H     -1.652400    0.178565   -0.034539
  H      0.664241    1.643915   -0.062515
  H      1.816131   -1.450822   -0.106991
  H      2.813182    0.521549   -0.087709

 Total Charge           Charge          ....    0
 Multiplicity           Mult            ....    1
 Number of Electrons    NEL             ....   30
 Basis Dimension        Dim             ....   24

ORBITAL ENERGIES
----------------

  NO   OCC          E(Eh)            E(eV)
   0   2.0000     -20.337678      -553.4163
   1   2.0000     -11.280966      -306.9707
   2   2.0000     -11.176833      -304.1371
   3   2.0000     -11.169605      -303.9404
   4   2.0000      -1.361851       -37.0578
   5   2.0000      -1.055687       -28.7267
   6   2.0000      -0.856226       -23.2991
   7   2.0000      -0.689374       -18.7588
   8   2.0000      -0.665689       -18.1143
   9   2.0000      -0.581060       -15.8115
  10   2.0000      -0.554603       -15.0915
  11   2.0000      -0.518729       -14.1153
  12   2.0000      -0.461087       -12.5468
  13   2.0000      -0.398338       -10.8393
  14   2.0000      -0.373663       -10.1679
  15   0.0000       0.131726         3.5844
  16   0.0000       0.316310         8.6072
  17   0.0000       0.424009        11.5379
  18   0.0000       0.477915        13.0047
  19   0.0000       0.525318        14.2946

MULLIKEN ATOMIC CHARGES
-----------------------
   0 C :    0.167562
   1 O :   -0.369138
   2 C :   -0.202513
   3 C :   -0.176895
   4 H :    0.129425
   5 H :    0.143178
   6 H :    0.166614
   7 H :    0.141766
Sum of atomic charges:    0.0000000

LOEWDIN ATOMIC CHARGES
----------------------
   0 C :    0.150973
   1 O :   -0.287928
   2 C :   -0.170344
   3 C :   -0.101865
   4 H :    0.078594
   5 H :    0.101694
   6 H :    0.131207
   7 H :    0.097669

  Mayer bond orders larger than 0.100000
B(  0-C ,  1-O ) :   1.8832 B(  0-C ,  2-C ) :   1.0520 B(  0-C ,  4-H ) :   0.9146
B(  2-C ,  3-C ) :   1.9146 B(  2-C ,  5-H ) :   0.9513 B(  3-C ,  6-H ) :   0.9392
B(  3-C ,  7-H ) :   0.9600

-----------------------------------------------------------------------------
         ABSORPTION SPECTRUM VIA TRANSITION ELECTRIC DIPOLE MOMENTS
-----------------------------------------------------------------------------
State   Energy    Wavelength  fosc         T2        TX        TY        TZ
        (cm-1)      (nm)                 (au**2)    (au)      (au)      (au)
-----------------------------------------------------------------------------
   1   31534.7    317.1   0.000169887   0.00177  -0.03017   0.00090  -0.02936

Dispersion correction           -0.025396847
FINAL SINGLE POINT ENERGY      -189.273566743231

DIPOLE MOMENT
-------------
                                X             Y             Z
Electronic contribution:     -1.79293      -1.65629       0.22623
Nuclear contribution   :      2.25493       2.62551      -0.27353
                        -----------------------------------------
Total Dipole Moment    :      0.46199       0.96921      -0.04730
                        -----------------------------------------
Magnitude (a.u.)       :      1.07473
Magnitude (Debye)      :      2.73175

Rotational constants in cm-1:     0.716411     0.206578     0.160518
Rotational constants in MHz : 21477.462005  6193.060262  4812.201817

                             ****ORCA TERMINATED NORMALLY****
TOTAL RUN TIME: 0 days 0 hours 0 minutes 13 seconds 611 msec
