                         Program Version 5.0.3 -  RELEASE  -
|  1> ! HF-3c
|  2> !TightSCF
|  3> %scf
|  4>  ConvForced true
|  5>  convergence tight
|  6>  MaxIter 500
|  7> end
|  8>
|  9> %tddft
| 10>  nroots 1
| 11> end
| 12>
| 13> # 	16051
| 14> * xyz 0 1
| 15> 		C   -1.159654  -0.378366  -0.070159
| 16> 		O   -1.560328  -1.272630  -0.750362
| 17> 		C    0.064683   0.477412  -0.218316
| 18> 		C    1.260310   0.041004   0.169690
| 19> 		H   -1.782833  -0.076378   0.811765
| 20> 		H   -0.191751   1.426601  -0.538428
| 21> 		H    1.268093  -0.950868   0.541285
| 22> 		H    2.064286   0.681712   0.070811
| 23> *
| 24>
| 25>                          ****END OF INPUT****

CARTESIAN COORDINATES (ANGSTROEM)
---------------------------------
  C     -1.159654   -0.378366   -0.070159
  O     -1.560328   -1.272630   -0.750362
  C      0.064683    0.477412   -0.218316
  C      1.260310    0.041004    0.169690
  H     -1.782833   -0.076378    0.811765
  H     -0.191751    1.426601   -0.538428
  H      1.268093   -0.950868    0.541285
  H      2.064286    0.681712    0.070811

 Total Charge           Charge          ....    0
 Multiplicity           Mult            ....    1
 Number of Electrons    NEL             ....   30
 Basis Dimension        Dim             ....   24

ORBITAL ENERGIES
----------------

  NO   OCC          E(Eh)            E(eV)
   0   2.0000     -20.383793      -554.6712
   1   2.0000     -11.303142      -307.5741
   2   2.0000     -11.198216      -304.7189
   3   2.0000     -11.190376      -304.5056
   4   2.0000      -1.420272       -38.6476
   5   2.0000      -1.092674       -29.7332
   6   2.0000      -0.896541       -24.3961
   7   2.0000      -0.766499       -20.8575
   8   2.0000      -0.705161       -19.1884
   9   2.0000      -0.640481       -17.4284
  10   2.0000      -0.616196       -16.7675
  11   2.0000      -0.571420       -15.5491
  12   2.0000      -0.518231       -14.1018
  13   2.0000      -0.421643       -11.4735
  14   2.0000      -0.399727       -10.8771
  15   0.0000       0.183206         4.9853
  16   0.0000       0.221628         6.0308
  17   0.0000       0.555120        15.1056
  18   0.0000       0.667707        18.1692
  19   0.0000       0.688573        18.7370

MULLIKEN ATOMIC CHARGES
-----------------------
   0 C :    0.179119
   1 O :   -0.346083
   2 C :   -0.160936
   3 C :   -0.255877
   4 H :    0.131575
   5 H :    0.149184
   6 H :    0.152092
   7 H :    0.150926
Sum of atomic charges:   -0.0000000

LOEWDIN ATOMIC CHARGES
----------------------
   0 C :    0.153641
   1 O :   -0.243938
   2 C :   -0.110524
   3 C :   -0.155291
   4 H :    0.069234
   5 H :    0.092522
   6 H :    0.098856
   7 H :    0.095500

  Mayer bond orders larger than 0.100000
B(  0-C ,  1-O ) :   1.9546 B(  0-C ,  2-C ) :   0.9821 B(  0-C ,  4-H ) :   0.9143
B(  2-C ,  3-C ) :   1.9925 B(  2-C ,  5-H ) :   0.9543 B(  3-C ,  6-H ) :   0.9637
B(  3-C ,  7-H ) :   0.9641

-----------------------------------------------------------------------------
         ABSORPTION SPECTRUM VIA TRANSITION ELECTRIC DIPOLE MOMENTS
-----------------------------------------------------------------------------
State   Energy    Wavelength  fosc         T2        TX        TY        TZ
        (cm-1)      (nm)                 (au**2)    (au)      (au)      (au)
-----------------------------------------------------------------------------
   1   35645.5    280.5   0.000189559   0.00175  -0.04144  -0.00200  -0.00544

Dispersion correction           -0.025509340
FINAL SINGLE POINT ENERGY      -189.316033115789

DIPOLE MOMENT
-------------
                                X             Y             Z
Electronic contribution:     -2.29864      -1.45467      -1.10438
Nuclear contribution   :      2.70291       2.17739       1.66223
                        -----------------------------------------
Total Dipole Moment    :      0.40427       0.72272       0.55786
                        -----------------------------------------
Magnitude (a.u.)       :      0.99848
Magnitude (Debye)      :      2.53793

Rotational constants in cm-1:     1.001789     0.170029     0.156612
Rotational constants in MHz : 30032.877481  5097.331112  4695.113012

                             ****ORCA TERMINATED NORMALLY****
TOTAL RUN TIME: 0 days 0 hours 0 minutes 8 seconds 939 msec
