                         Program Version 5.0.3 -  RELEASE  -
|  1> ! HF-3c
|  2> !TightSCF
|  3> %scf
|  4>  ConvForced true
|  5>  convergence tight
|  6>  MaxIter 500
|  7> end
|  8>
|  9> %tddft
| 10>  nroots 1
| 11> end
| 12>
| 13> # 	19003
| 14> * xyz 0 1
| 15> 		C   -1.231030  -0.340730   0.011052
| 16> 		O   -1.242892  -1.486347  -0.257253
| 17> 		C    0.064517   0.445593  -0.002112
| 18> 		C    1.199931  -0.011131   0.096575
| 19> 		H   -2.089882   0.269616   0.407203
| 20> 		H   -0.121368   1.459479  -0.437445
| 21> 		H    1.439873  -1.039272   0.347645
| 22> 		H    2.065454   0.678921  -0.155804
| 23> *
| 24>
| 25>                          ****END OF INPUT****

CARTESIAN COORDINATES (ANGSTROEM)
---------------------------------
  C     -1.231030   -0.340730    0.011052
  O     -1.242892   -1.486347   -0.257253
  C      0.064517    0.445593   -0.002112
  C      1.199931   -0.011131    0.096575
  H     -2.089882    0.269616    0.407203
  H     -0.121368    1.459479   -0.437445
  H      1.439873   -1.039272    0.347645
  H      2.065454    0.678921   -0.155804

 Total Charge           Charge          ....    0
 Multiplicity           Mult            ....    1
 Number of Electrons    NEL             ....   30
 Basis Dimension        Dim             ....   24

ORBITAL ENERGIES
----------------

  NO   OCC          E(Eh)            E(eV)
   0   2.0000     -20.386370      -554.7413
   1   2.0000     -11.306314      -307.6604
   2   2.0000     -11.187564      -304.4291
   3   2.0000     -11.185562      -304.3746
   4   2.0000      -1.433047       -38.9952
   5   2.0000      -1.101276       -29.9673
   6   2.0000      -0.885745       -24.1023
   7   2.0000      -0.741435       -20.1755
   8   2.0000      -0.704528       -19.1712
   9   2.0000      -0.627537       -17.0762
  10   2.0000      -0.617108       -16.7924
  11   2.0000      -0.548338       -14.9210
  12   2.0000      -0.518975       -14.1220
  13   2.0000      -0.427937       -11.6448
  14   2.0000      -0.403191       -10.9714
  15   0.0000       0.164924         4.4878
  16   0.0000       0.312039         8.4910
  17   0.0000       0.507820        13.8185
  18   0.0000       0.621921        16.9233
  19   0.0000       0.650448        17.6996

MULLIKEN ATOMIC CHARGES
-----------------------
   0 C :    0.189105
   1 O :   -0.351459
   2 C :   -0.179461
   3 C :   -0.239945
   4 H :    0.137715
   5 H :    0.140184
   6 H :    0.155455
   7 H :    0.148406
Sum of atomic charges:   -0.0000000

LOEWDIN ATOMIC CHARGES
----------------------
   0 C :    0.156790
   1 O :   -0.242644
   2 C :   -0.137414
   3 C :   -0.145758
   4 H :    0.074489
   5 H :    0.091518
   6 H :    0.101806
   7 H :    0.101212

  Mayer bond orders larger than 0.100000
B(  0-C ,  1-O ) :   1.9436 B(  0-C ,  2-C ) :   0.9756 B(  0-C ,  4-H ) :   0.9159
B(  2-C ,  3-C ) :   2.0051 B(  2-C ,  5-H ) :   0.9479 B(  3-C ,  6-H ) :   0.9540
B(  3-C ,  7-H ) :   0.9529

-----------------------------------------------------------------------------
         ABSORPTION SPECTRUM VIA TRANSITION ELECTRIC DIPOLE MOMENTS
-----------------------------------------------------------------------------
State   Energy    Wavelength  fosc         T2        TX        TY        TZ
        (cm-1)      (nm)                 (au**2)    (au)      (au)      (au)
-----------------------------------------------------------------------------
   1   35141.5    284.6   0.000320837   0.00301   0.05463  -0.00423  -0.00183

Dispersion correction           -0.025837289
FINAL SINGLE POINT ENERGY      -189.311225243401

DIPOLE MOMENT
-------------
                                X             Y             Z
Electronic contribution:     -2.21161      -1.80277      -0.18160
Nuclear contribution   :      2.41733       2.69179       0.32827
                        -----------------------------------------
Total Dipole Moment    :      0.20573       0.88902       0.14667
                        -----------------------------------------
Magnitude (a.u.)       :      0.92422
Magnitude (Debye)      :      2.34919

Rotational constants in cm-1:     0.840315     0.204341     0.167668
Rotational constants in MHz : 25192.018151  6125.981742  5026.564360

                             ****ORCA TERMINATED NORMALLY****
TOTAL RUN TIME: 0 days 0 hours 0 minutes 16 seconds 57 msec
