                         Program Version 5.0.3 -  RELEASE  -
|  1> ! B3LYP cc-pVDZ
|  2> !TightSCF
|  3> %scf
|  4>  ConvForced true
|  5>  convergence tight
|  6>  MaxIter 500
|  7> end
|  8>
|  9> %tddft
| 10>  nroots 1
| 11> end
| 12>
| 13> # 	15686
| 14> * xyz 0 1
| 15> 		C   -1.181664  -0.354871  -0.030723
| 16> 		O   -1.463545  -1.264049  -0.703522
| 17> 		C   -0.008220   0.522704  -0.125996
| 18> 		C    1.249963   0.013694   0.136522
| 19> 		H   -1.902732  -0.160761   0.753478
| 20> 		H   -0.142282   1.595225  -0.495334
| 21> 		H    1.299447  -1.102092   0.433893
| 22> 		H    2.180988   0.723105   0.009123
| 23> *
| 24>
| 25>                          ****END OF INPUT****

CARTESIAN COORDINATES (ANGSTROEM)
---------------------------------
  C     -1.181664   -0.354871   -0.030723
  O     -1.463545   -1.264049   -0.703522
  C     -0.008220    0.522704   -0.125996
  C      1.249963    0.013694    0.136522
  H     -1.902732   -0.160761    0.753478
  H     -0.142282    1.595225   -0.495334
  H      1.299447   -1.102092    0.433893
  H      2.180988    0.723105    0.009123

 Total Charge           Charge          ....    0
 Multiplicity           Mult            ....    1
 Number of Electrons    NEL             ....   30
 Basis Dimension        Dim             ....   76

ORBITAL ENERGIES
----------------

  NO   OCC          E(Eh)            E(eV)
   0   2.0000     -19.139209      -520.8044
   1   2.0000     -10.271016      -279.4885
   2   2.0000     -10.225932      -278.2618
   3   2.0000     -10.213976      -277.9364
   4   2.0000      -1.074975       -29.2516
   5   2.0000      -0.785259       -21.3680
   6   2.0000      -0.643899       -17.5214
   7   2.0000      -0.546440       -14.8694
   8   2.0000      -0.501568       -13.6484
   9   2.0000      -0.450140       -12.2489
  10   2.0000      -0.438246       -11.9253
  11   2.0000      -0.392980       -10.6935
  12   2.0000      -0.381451       -10.3798
  13   2.0000      -0.280688        -7.6379
  14   2.0000      -0.251234        -6.8364
  15   0.0000      -0.036842        -1.0025
  16   0.0000      -0.003468        -0.0944
  17   0.0000       0.069398         1.8884
  18   0.0000       0.082130         2.2349
  19   0.0000       0.109177         2.9709

MULLIKEN ATOMIC CHARGES
-----------------------
   0 C :    0.178996
   1 O :   -0.146699
   2 C :   -0.110746
   3 C :   -0.031870
   4 H :   -0.036077
   5 H :    0.036451
   6 H :    0.051832
   7 H :    0.058112
Sum of atomic charges:    0.0000000

LOEWDIN ATOMIC CHARGES
----------------------
   0 C :   -0.062719
   1 O :    0.049387
   2 C :   -0.072217
   3 C :   -0.037225
   4 H :   -0.015769
   5 H :    0.046114
   6 H :    0.043564
   7 H :    0.048864

  Mayer bond orders larger than 0.100000
B(  0-C ,  1-O ) :   2.2761 B(  0-C ,  2-C ) :   0.9821 B(  0-C ,  4-H ) :   0.9210
B(  2-C ,  3-C ) :   1.9996 B(  2-C ,  5-H ) :   0.9350 B(  3-C ,  6-H ) :   0.9384
B(  3-C ,  7-H ) :   0.9414

-----------------------------------------------------------------------------
         ABSORPTION SPECTRUM VIA TRANSITION ELECTRIC DIPOLE MOMENTS
-----------------------------------------------------------------------------
State   Energy    Wavelength  fosc         T2        TX        TY        TZ
        (cm-1)      (nm)                 (au**2)    (au)      (au)      (au)
-----------------------------------------------------------------------------
   1   33522.5    298.3   0.000266935   0.00262   0.05054  -0.00698  -0.00430

FINAL SINGLE POINT ENERGY      -191.628602517945

DIPOLE MOMENT
-------------
                                X             Y             Z
Electronic contribution:     -2.33617      -1.43049      -0.99125
Nuclear contribution   :      2.75281       2.11253       1.37259
                        -----------------------------------------
Total Dipole Moment    :      0.41664       0.68204       0.38134
                        -----------------------------------------
Magnitude (a.u.)       :      0.88554
Magnitude (Debye)      :      2.25088

Rotational constants in cm-1:     0.882749     0.180550     0.160468
Rotational constants in MHz : 26464.154464  5412.750553  4810.701498

                             ****ORCA TERMINATED NORMALLY****
TOTAL RUN TIME: 0 days 0 hours 3 minutes 23 seconds 102 msec
