                         Program Version 5.0.3 -  RELEASE  -
|  1> ! HF-3c
|  2> !TightSCF
|  3> %scf
|  4>  ConvForced true
|  5>  convergence tight
|  6>  MaxIter 500
|  7> end
|  8>
|  9> %tddft
| 10>  nroots 1
| 11> end
| 12>
| 13> # 	25836
| 14> * xyz 0 1
| 15> 		C   -0.607933  -0.446320  -0.047148
| 16> 		O   -0.608222  -1.687121   0.010614
| 17> 		C    0.653922   0.457032   0.004438
| 18> 		C    1.892288  -0.091831   0.013399
| 19> 		H   -1.746214   0.021982   0.164824
| 20> 		H    0.490314   1.549542   0.124207
| 21> 		H    2.030672  -1.171353   0.082315
| 22> 		H    2.768609   0.586339  -0.199158
| 23> *
| 24>
| 25>                          ****END OF INPUT****

CARTESIAN COORDINATES (ANGSTROEM)
---------------------------------
  C     -0.607933   -0.446320   -0.047148
  O     -0.608222   -1.687121    0.010614
  C      0.653922    0.457032    0.004438
  C      1.892288   -0.091831    0.013399
  H     -1.746214    0.021982    0.164824
  H      0.490314    1.549542    0.124207
  H      2.030672   -1.171353    0.082315
  H      2.768609    0.586339   -0.199158

 Total Charge           Charge          ....    0
 Multiplicity           Mult            ....    1
 Number of Electrons    NEL             ....   30
 Basis Dimension        Dim             ....   24

ORBITAL ENERGIES
----------------

  NO   OCC          E(Eh)            E(eV)
   0   2.0000     -20.346322      -553.6516
   1   2.0000     -11.277221      -306.8688
   2   2.0000     -11.188105      -304.4438
   3   2.0000     -11.186642      -304.4040
   4   2.0000      -1.369624       -37.2694
   5   2.0000      -1.058351       -28.7992
   6   2.0000      -0.856982       -23.3197
   7   2.0000      -0.726862       -19.7789
   8   2.0000      -0.675297       -18.3758
   9   2.0000      -0.596741       -16.2381
  10   2.0000      -0.575043       -15.6477
  11   2.0000      -0.527979       -14.3670
  12   2.0000      -0.511539       -13.9197
  13   2.0000      -0.398420       -10.8416
  14   2.0000      -0.379080       -10.3153
  15   0.0000       0.131642         3.5822
  16   0.0000       0.289011         7.8644
  17   0.0000       0.460337        12.5264
  18   0.0000       0.574089        15.6218
  19   0.0000       0.618480        16.8297

MULLIKEN ATOMIC CHARGES
-----------------------
   0 C :    0.165439
   1 O :   -0.360006
   2 C :   -0.169404
   3 C :   -0.219839
   4 H :    0.133773
   5 H :    0.143319
   6 H :    0.158918
   7 H :    0.147800
Sum of atomic charges:    0.0000000

LOEWDIN ATOMIC CHARGES
----------------------
   0 C :    0.140250
   1 O :   -0.272871
   2 C :   -0.126961
   3 C :   -0.123374
   4 H :    0.083860
   5 H :    0.093539
   6 H :    0.104942
   7 H :    0.100616

  Mayer bond orders larger than 0.100000
B(  0-C ,  1-O ) :   1.9138 B(  0-C ,  2-C ) :   1.0013 B(  0-C ,  4-H ) :   0.9170
B(  2-C ,  3-C ) :   1.9559 B(  2-C ,  5-H ) :   0.9600 B(  3-C ,  6-H ) :   0.9594
B(  3-C ,  7-H ) :   0.9621

-----------------------------------------------------------------------------
         ABSORPTION SPECTRUM VIA TRANSITION ELECTRIC DIPOLE MOMENTS
-----------------------------------------------------------------------------
State   Energy    Wavelength  fosc         T2        TX        TY        TZ
        (cm-1)      (nm)                 (au**2)    (au)      (au)      (au)
-----------------------------------------------------------------------------
   1   30428.5    328.6   0.000252089   0.00273  -0.04587  -0.00548   0.02436

Dispersion correction           -0.024592879
FINAL SINGLE POINT ENERGY      -189.330011951426

DIPOLE MOMENT
-------------
                                X             Y             Z
Electronic contribution:     -1.85431      -1.72334      -0.15506
Nuclear contribution   :      2.16476       2.71310       0.16228
                        -----------------------------------------
Total Dipole Moment    :      0.31046       0.98976       0.00723
                        -----------------------------------------
Magnitude (a.u.)       :      1.03733
Magnitude (Debye)      :      2.63668

Rotational constants in cm-1:     0.735149     0.192661     0.152989
Rotational constants in MHz : 22039.205030  5775.836854  4586.492264

                             ****ORCA TERMINATED NORMALLY****
TOTAL RUN TIME: 0 days 0 hours 0 minutes 11 seconds 356 msec
