                         Program Version 5.0.3 -  RELEASE  -
|  1> ! HF-3c
|  2> !TightSCF
|  3> %scf
|  4>  ConvForced true
|  5>  convergence tight
|  6>  MaxIter 500
|  7> end
|  8>
|  9> %tddft
| 10>  nroots 1
| 11> end
| 12>
| 13> # 	21682
| 14> * xyz 0 1
| 15> 		C   -0.580478  -0.412884  -0.047938
| 16> 		O   -0.582385  -1.637149   0.012134
| 17> 		C    0.646770   0.410244   0.009208
| 18> 		C    1.828161  -0.119478  -0.002625
| 19> 		H   -1.661441  -0.003268   0.242693
| 20> 		H    0.437253   1.480491  -0.005289
| 21> 		H    2.092485  -1.174379   0.016751
| 22> 		H    2.757072   0.400146   0.044808
| 23> *
| 24>
| 25>                          ****END OF INPUT****

CARTESIAN COORDINATES (ANGSTROEM)
---------------------------------
  C     -0.580478   -0.412884   -0.047938
  O     -0.582385   -1.637149    0.012134
  C      0.646770    0.410244    0.009208
  C      1.828161   -0.119478   -0.002625
  H     -1.661441   -0.003268    0.242693
  H      0.437253    1.480491   -0.005289
  H      2.092485   -1.174379    0.016751
  H      2.757072    0.400146    0.044808

 Total Charge           Charge          ....    0
 Multiplicity           Mult            ....    1
 Number of Electrons    NEL             ....   30
 Basis Dimension        Dim             ....   24

ORBITAL ENERGIES
----------------

  NO   OCC          E(Eh)            E(eV)
   0   2.0000     -20.349793      -553.7460
   1   2.0000     -11.281363      -306.9815
   2   2.0000     -11.201603      -304.8111
   3   2.0000     -11.197461      -304.6984
   4   2.0000      -1.385505       -37.7015
   5   2.0000      -1.089157       -29.6375
   6   2.0000      -0.886757       -24.1299
   7   2.0000      -0.745174       -20.2772
   8   2.0000      -0.696793       -18.9607
   9   2.0000      -0.634058       -17.2536
  10   2.0000      -0.581327       -15.8187
  11   2.0000      -0.532536       -14.4910
  12   2.0000      -0.518792       -14.1170
  13   2.0000      -0.406278       -11.0554
  14   2.0000      -0.400822       -10.9069
  15   0.0000       0.134203         3.6518
  16   0.0000       0.308496         8.3946
  17   0.0000       0.488494        13.2926
  18   0.0000       0.611973        16.6526
  19   0.0000       0.651517        17.7287

MULLIKEN ATOMIC CHARGES
-----------------------
   0 C :    0.159057
   1 O :   -0.352311
   2 C :   -0.180785
   3 C :   -0.221632
   4 H :    0.139993
   5 H :    0.149750
   6 H :    0.160100
   7 H :    0.145829
Sum of atomic charges:   -0.0000000

LOEWDIN ATOMIC CHARGES
----------------------
   0 C :    0.134609
   1 O :   -0.262512
   2 C :   -0.130630
   3 C :   -0.120272
   4 H :    0.084407
   5 H :    0.096654
   6 H :    0.104949
   7 H :    0.092794

  Mayer bond orders larger than 0.100000
B(  0-C ,  1-O ) :   1.9017 B(  0-C ,  2-C ) :   1.0216 B(  0-C ,  4-H ) :   0.9254
B(  2-C ,  3-C ) :   1.9594 B(  2-C ,  5-H ) :   0.9543 B(  3-C ,  6-H ) :   0.9574
B(  3-C ,  7-H ) :   0.9626

-----------------------------------------------------------------------------
         ABSORPTION SPECTRUM VIA TRANSITION ELECTRIC DIPOLE MOMENTS
-----------------------------------------------------------------------------
State   Energy    Wavelength  fosc         T2        TX        TY        TZ
        (cm-1)      (nm)                 (au**2)    (au)      (au)      (au)
-----------------------------------------------------------------------------
   1   29853.2    335.0   0.000330228   0.00364   0.05473   0.00568  -0.02478

Dispersion correction           -0.025438923
FINAL SINGLE POINT ENERGY      -189.339876271114

DIPOLE MOMENT
-------------
                                X             Y             Z
Electronic contribution:     -1.92860      -1.54384      -0.24730
Nuclear contribution   :      2.24410       2.44641       0.28074
                        -----------------------------------------
Total Dipole Moment    :      0.31551       0.90258       0.03344
                        -----------------------------------------
Magnitude (a.u.)       :      0.95672
Magnitude (Debye)      :      2.43178

Rotational constants in cm-1:     0.769048     0.208960     0.164611
Rotational constants in MHz : 23055.465842  6264.466134  4934.926051

                             ****ORCA TERMINATED NORMALLY****
TOTAL RUN TIME: 0 days 0 hours 0 minutes 11 seconds 385 msec
