                         Program Version 5.0.3 -  RELEASE  -
|  1> ! B3LYP cc-pVDZ
|  2> !TightSCF
|  3> %scf
|  4>  ConvForced true
|  5>  convergence tight
|  6>  MaxIter 500
|  7> end
|  8>
|  9> %tddft
| 10>  nroots 1
| 11> end
| 12>
| 13> # 	27365
| 14> * xyz 0 1
| 15> 		C   -0.625718  -0.445791  -0.087442
| 16> 		O   -0.523303  -1.602244   0.048018
| 17> 		C    0.617674   0.414396   0.131390
| 18> 		C    1.824097  -0.162928  -0.043886
| 19> 		H   -1.716049   0.166370  -0.492295
| 20> 		H    0.512688   1.656706   0.118920
| 21> 		H    1.863988  -1.210538  -0.087379
| 22> 		H    2.952998   0.403784  -0.303635
| 23> *
| 24>
| 25>                          ****END OF INPUT****

CARTESIAN COORDINATES (ANGSTROEM)
---------------------------------
  C     -0.625718   -0.445791   -0.087442
  O     -0.523303   -1.602244    0.048018
  C      0.617674    0.414396    0.131390
  C      1.824097   -0.162928   -0.043886
  H     -1.716049    0.166370   -0.492295
  H      0.512688    1.656706    0.118920
  H      1.863988   -1.210538   -0.087379
  H      2.952998    0.403784   -0.303635

 Total Charge           Charge          ....    0
 Multiplicity           Mult            ....    1
 Number of Electrons    NEL             ....   30
 Basis Dimension        Dim             ....   76

ORBITAL ENERGIES
----------------

  NO   OCC          E(Eh)            E(eV)
   0   2.0000     -19.150778      -521.1192
   1   2.0000     -10.297414      -280.2069
   2   2.0000     -10.225284      -278.2441
   3   2.0000     -10.222286      -278.1625
   4   2.0000      -1.082442       -29.4547
   5   2.0000      -0.782682       -21.2979
   6   2.0000      -0.629872       -17.1397
   7   2.0000      -0.523900       -14.2560
   8   2.0000      -0.489726       -13.3261
   9   2.0000      -0.455274       -12.3886
  10   2.0000      -0.423886       -11.5345
  11   2.0000      -0.406095       -11.0504
  12   2.0000      -0.365487        -9.9454
  13   2.0000      -0.286269        -7.7898
  14   2.0000      -0.261460        -7.1147
  15   0.0000      -0.061535        -1.6745
  16   0.0000       0.022753         0.6191
  17   0.0000       0.052373         1.4251
  18   0.0000       0.065606         1.7852
  19   0.0000       0.089046         2.4231

MULLIKEN ATOMIC CHARGES
-----------------------
   0 C :    0.125549
   1 O :   -0.138075
   2 C :   -0.130878
   3 C :    0.011667
   4 H :   -0.000646
   5 H :    0.029366
   6 H :    0.032630
   7 H :    0.070387
Sum of atomic charges:   -0.0000000

LOEWDIN ATOMIC CHARGES
----------------------
   0 C :   -0.064720
   1 O :    0.043396
   2 C :   -0.101201
   3 C :    0.000279
   4 H :    0.000884
   5 H :    0.044353
   6 H :    0.014410
   7 H :    0.062598

  Mayer bond orders larger than 0.100000
B(  0-C ,  1-O ) :   2.2301 B(  0-C ,  2-C ) :   0.9746 B(  0-C ,  4-H ) :   0.8599
B(  2-C ,  3-C ) :   1.9509 B(  2-C ,  5-H ) :   0.9276 B(  3-C ,  6-H ) :   0.9314
B(  3-C ,  7-H ) :   0.9457

-----------------------------------------------------------------------------
         ABSORPTION SPECTRUM VIA TRANSITION ELECTRIC DIPOLE MOMENTS
-----------------------------------------------------------------------------
State   Energy    Wavelength  fosc         T2        TX        TY        TZ
        (cm-1)      (nm)                 (au**2)    (au)      (au)      (au)
-----------------------------------------------------------------------------
   1   31625.6    316.2   0.000496641   0.00517   0.06307   0.02521  -0.02359

FINAL SINGLE POINT ENERGY      -191.611287574480

DIPOLE MOMENT
-------------
                                X             Y             Z
Electronic contribution:     -1.89664      -2.08587       0.55582
Nuclear contribution   :      2.23451       2.74042      -0.71632
                        -----------------------------------------
Total Dipole Moment    :      0.33787       0.65455      -0.16050
                        -----------------------------------------
Magnitude (a.u.)       :      0.75389
Magnitude (Debye)      :      1.91623

Rotational constants in cm-1:     0.704316     0.213982     0.166447
Rotational constants in MHz : 21114.868143  6415.010832  4989.960671

                             ****ORCA TERMINATED NORMALLY****
TOTAL RUN TIME: 0 days 0 hours 3 minutes 21 seconds 634 msec
