                         Program Version 5.0.3 -  RELEASE  -
|  1> ! HF-3c
|  2> !TightSCF
|  3> %scf
|  4>  ConvForced true
|  5>  convergence tight
|  6>  MaxIter 500
|  7> end
|  8>
|  9> %tddft
| 10>  nroots 1
| 11> end
| 12>
| 13> # 	3364
| 14> * xyz 0 1
| 15> 		C   -1.195092  -0.310933   0.014401
| 16> 		O   -1.334926  -1.399938  -0.392715
| 17> 		C   -0.003576   0.619881  -0.062947
| 18> 		C    1.183891   0.017593   0.143101
| 19> 		H   -1.984370   0.166147   0.540557
| 20> 		H   -0.202205   1.557785  -0.397220
| 21> 		H    1.255209  -1.129519   0.241955
| 22> 		H    2.217158   0.441888  -0.058707
| 23> *
| 24>
| 25>                          ****END OF INPUT****

CARTESIAN COORDINATES (ANGSTROEM)
---------------------------------
  C     -1.195092   -0.310933    0.014401
  O     -1.334926   -1.399938   -0.392715
  C     -0.003576    0.619881   -0.062947
  C      1.183891    0.017593    0.143101
  H     -1.984370    0.166147    0.540557
  H     -0.202205    1.557785   -0.397220
  H      1.255209   -1.129519    0.241955
  H      2.217158    0.441888   -0.058707

 Total Charge           Charge          ....    0
 Multiplicity           Mult            ....    1
 Number of Electrons    NEL             ....   30
 Basis Dimension        Dim             ....   24

ORBITAL ENERGIES
----------------

  NO   OCC          E(Eh)            E(eV)
   0   2.0000     -20.386465      -554.7439
   1   2.0000     -11.306412      -307.6631
   2   2.0000     -11.187226      -304.4199
   3   2.0000     -11.185765      -304.3801
   4   2.0000      -1.435557       -39.0635
   5   2.0000      -1.073233       -29.2041
   6   2.0000      -0.883617       -24.0444
   7   2.0000      -0.763232       -20.7686
   8   2.0000      -0.704338       -19.1660
   9   2.0000      -0.622681       -16.9440
  10   2.0000      -0.617591       -16.8055
  11   2.0000      -0.540295       -14.7022
  12   2.0000      -0.531038       -14.4503
  13   2.0000      -0.407985       -11.1018
  14   2.0000      -0.395301       -10.7567
  15   0.0000       0.155647         4.2354
  16   0.0000       0.267709         7.2847
  17   0.0000       0.519014        14.1231
  18   0.0000       0.617664        16.8075
  19   0.0000       0.660520        17.9737

MULLIKEN ATOMIC CHARGES
-----------------------
   0 C :    0.185767
   1 O :   -0.355617
   2 C :   -0.194741
   3 C :   -0.201620
   4 H :    0.126607
   5 H :    0.148109
   6 H :    0.149906
   7 H :    0.141589
Sum of atomic charges:    0.0000000

LOEWDIN ATOMIC CHARGES
----------------------
   0 C :    0.159963
   1 O :   -0.245889
   2 C :   -0.147685
   3 C :   -0.112176
   4 H :    0.058458
   5 H :    0.090660
   6 H :    0.102432
   7 H :    0.094238

  Mayer bond orders larger than 0.100000
B(  0-C ,  1-O ) :   1.9402 B(  0-C ,  2-C ) :   0.9840 B(  0-C ,  4-H ) :   0.9212
B(  2-C ,  3-C ) :   1.9715 B(  2-C ,  5-H ) :   0.9596 B(  3-C ,  6-H ) :   0.9589
B(  3-C ,  7-H ) :   0.9627

-----------------------------------------------------------------------------
         ABSORPTION SPECTRUM VIA TRANSITION ELECTRIC DIPOLE MOMENTS
-----------------------------------------------------------------------------
State   Energy    Wavelength  fosc         T2        TX        TY        TZ
        (cm-1)      (nm)                 (au**2)    (au)      (au)      (au)
-----------------------------------------------------------------------------
   1   36063.0    277.3   0.000054498   0.00050   0.01872  -0.01193   0.00213

Dispersion correction           -0.025618193
FINAL SINGLE POINT ENERGY      -189.304754389852

DIPOLE MOMENT
-------------
                                X             Y             Z
Electronic contribution:     -2.11557      -1.38826      -0.37068
Nuclear contribution   :      2.54661       2.12289       0.62437
                        -----------------------------------------
Total Dipole Moment    :      0.43104       0.73463       0.25369
                        -----------------------------------------
Magnitude (a.u.)       :      0.88873
Magnitude (Debye)      :      2.25896

Rotational constants in cm-1:     0.790080     0.199330     0.164203
Rotational constants in MHz : 23686.001043  5975.761486  4922.679380

                             ****ORCA TERMINATED NORMALLY****
TOTAL RUN TIME: 0 days 0 hours 0 minutes 9 seconds 563 msec
