                         Program Version 5.0.3 -  RELEASE  -
|  1> ! HF-3c
|  2> !TightSCF
|  3> %scf
|  4>  ConvForced true
|  5>  convergence tight
|  6>  MaxIter 500
|  7> end
|  8>
|  9> %tddft
| 10>  nroots 1
| 11> end
| 12>
| 13> # 	1631
| 14> * xyz 0 1
| 15> 		C   -1.176117  -0.349117   0.007022
| 16> 		O   -1.605191  -1.226152  -0.766248
| 17> 		C   -0.007863   0.441119  -0.237261
| 18> 		C    1.220827   0.033291   0.142676
| 19> 		H   -1.874398  -0.131883   0.910070
| 20> 		H   -0.087851   1.519916  -0.591553
| 21> 		H    1.418416  -0.947043   0.450190
| 22> 		H    2.044532   0.728396   0.095820
| 23> *
| 24>
| 25>                          ****END OF INPUT****

CARTESIAN COORDINATES (ANGSTROEM)
---------------------------------
  C     -1.176117   -0.349117    0.007022
  O     -1.605191   -1.226152   -0.766248
  C     -0.007863    0.441119   -0.237261
  C      1.220827    0.033291    0.142676
  H     -1.874398   -0.131883    0.910070
  H     -0.087851    1.519916   -0.591553
  H      1.418416   -0.947043    0.450190
  H      2.044532    0.728396    0.095820

 Total Charge           Charge          ....    0
 Multiplicity           Mult            ....    1
 Number of Electrons    NEL             ....   30
 Basis Dimension        Dim             ....   24

ORBITAL ENERGIES
----------------

  NO   OCC          E(Eh)            E(eV)
   0   2.0000     -20.358510      -553.9832
   1   2.0000     -11.290109      -307.2195
   2   2.0000     -11.197027      -304.6866
   3   2.0000     -11.183823      -304.3273
   4   2.0000      -1.378210       -37.5030
   5   2.0000      -1.082982       -29.4694
   6   2.0000      -0.891605       -24.2618
   7   2.0000      -0.750822       -20.4309
   8   2.0000      -0.690062       -18.7775
   9   2.0000      -0.625369       -17.0172
  10   2.0000      -0.597841       -16.2681
  11   2.0000      -0.551292       -15.0014
  12   2.0000      -0.479447       -13.0464
  13   2.0000      -0.414709       -11.2848
  14   2.0000      -0.397222       -10.8090
  15   0.0000       0.174124         4.7381
  16   0.0000       0.203028         5.5247
  17   0.0000       0.570165        15.5150
  18   0.0000       0.599691        16.3184
  19   0.0000       0.690517        18.7899

MULLIKEN ATOMIC CHARGES
-----------------------
   0 C :    0.150810
   1 O :   -0.336203
   2 C :   -0.163643
   3 C :   -0.240248
   4 H :    0.145331
   5 H :    0.158569
   6 H :    0.142659
   7 H :    0.142725
Sum of atomic charges:    0.0000000

LOEWDIN ATOMIC CHARGES
----------------------
   0 C :    0.139098
   1 O :   -0.253165
   2 C :   -0.118383
   3 C :   -0.144905
   4 H :    0.086872
   5 H :    0.109327
   6 H :    0.088968
   7 H :    0.092189

  Mayer bond orders larger than 0.100000
B(  0-C ,  1-O ) :   1.9283 B(  0-C ,  2-C ) :   1.0253 B(  0-C ,  4-H ) :   0.9156
B(  2-C ,  3-C ) :   1.9757 B(  2-C ,  5-H ) :   0.9421 B(  3-C ,  6-H ) :   0.9675
B(  3-C ,  7-H ) :   0.9658

-----------------------------------------------------------------------------
         ABSORPTION SPECTRUM VIA TRANSITION ELECTRIC DIPOLE MOMENTS
-----------------------------------------------------------------------------
State   Energy    Wavelength  fosc         T2        TX        TY        TZ
        (cm-1)      (nm)                 (au**2)    (au)      (au)      (au)
-----------------------------------------------------------------------------
   1   31867.4    313.8   0.000107078   0.00111   0.03207   0.00592  -0.00651

Dispersion correction           -0.025076512
FINAL SINGLE POINT ENERGY      -189.325691071837

DIPOLE MOMENT
-------------
                                X             Y             Z
Electronic contribution:     -2.51097      -1.43954      -1.02366
Nuclear contribution   :      2.97858       2.21689       1.63568
                        -----------------------------------------
Total Dipole Moment    :      0.46760       0.77735       0.61202
                        -----------------------------------------
Magnitude (a.u.)       :      1.09431
Magnitude (Debye)      :      2.78150

Rotational constants in cm-1:     0.961797     0.171160     0.159108
Rotational constants in MHz : 28833.954986  5131.246617  4769.941971

                             ****ORCA TERMINATED NORMALLY****
TOTAL RUN TIME: 0 days 0 hours 0 minutes 13 seconds 583 msec
