                         Program Version 5.0.3 -  RELEASE  -
|  1> ! B3LYP cc-pVDZ
|  2> !TightSCF
|  3> %scf
|  4>  ConvForced true
|  5>  convergence tight
|  6>  MaxIter 500
|  7> end
|  8>
|  9> %tddft
| 10>  nroots 1
| 11> end
| 12>
| 13> # 	9149
| 14> * xyz 0 1
| 15> 		C   -1.178476  -0.323308  -0.034187
| 16> 		O   -1.479548  -1.321740   0.623344
| 17> 		C    0.021511   0.455995   0.247810
| 18> 		C    1.172128  -0.005792  -0.167969
| 19> 		H   -1.774504   0.121878  -0.829008
| 20> 		H   -0.227158   1.502261   0.538549
| 21> 		H    1.287715  -1.049962  -0.398408
| 22> 		H    2.175451   0.569139   0.024528
| 23> *
| 24>
| 25>                          ****END OF INPUT****

CARTESIAN COORDINATES (ANGSTROEM)
---------------------------------
  C     -1.178476   -0.323308   -0.034187
  O     -1.479548   -1.321740    0.623344
  C      0.021511    0.455995    0.247810
  C      1.172128   -0.005792   -0.167969
  H     -1.774504    0.121878   -0.829008
  H     -0.227158    1.502261    0.538549
  H      1.287715   -1.049962   -0.398408
  H      2.175451    0.569139    0.024528

 Total Charge           Charge          ....    0
 Multiplicity           Mult            ....    1
 Number of Electrons    NEL             ....   30
 Basis Dimension        Dim             ....   76

ORBITAL ENERGIES
----------------

  NO   OCC          E(Eh)            E(eV)
   0   2.0000     -19.143203      -520.9130
   1   2.0000     -10.277865      -279.6749
   2   2.0000     -10.208791      -277.7953
   3   2.0000     -10.204855      -277.6882
   4   2.0000      -1.037917       -28.2432
   5   2.0000      -0.805742       -21.9253
   6   2.0000      -0.658513       -17.9190
   7   2.0000      -0.551580       -15.0092
   8   2.0000      -0.498430       -13.5630
   9   2.0000      -0.454880       -12.3779
  10   2.0000      -0.441722       -12.0199
  11   2.0000      -0.378457       -10.2983
  12   2.0000      -0.370494       -10.0816
  13   2.0000      -0.293110        -7.9759
  14   2.0000      -0.254795        -6.9333
  15   0.0000      -0.041471        -1.1285
  16   0.0000      -0.002687        -0.0731
  17   0.0000       0.068871         1.8741
  18   0.0000       0.092038         2.5045
  19   0.0000       0.108149         2.9429

MULLIKEN ATOMIC CHARGES
-----------------------
   0 C :    0.176829
   1 O :   -0.207386
   2 C :   -0.058476
   3 C :    0.004673
   4 H :   -0.006691
   5 H :    0.016988
   6 H :    0.029714
   7 H :    0.044349
Sum of atomic charges:   -0.0000000

LOEWDIN ATOMIC CHARGES
----------------------
   0 C :   -0.007035
   1 O :   -0.014879
   2 C :   -0.059702
   3 C :   -0.030163
   4 H :   -0.002795
   5 H :    0.041613
   6 H :    0.028005
   7 H :    0.044957

  Mayer bond orders larger than 0.100000
B(  0-C ,  1-O ) :   2.1907 B(  0-C ,  2-C ) :   1.0261 B(  0-C ,  4-H ) :   0.9143
B(  2-C ,  3-C ) :   2.0210 B(  2-C ,  5-H ) :   0.9273 B(  3-C ,  6-H ) :   0.9373
B(  3-C ,  7-H ) :   0.9451

-----------------------------------------------------------------------------
         ABSORPTION SPECTRUM VIA TRANSITION ELECTRIC DIPOLE MOMENTS
-----------------------------------------------------------------------------
State   Energy    Wavelength  fosc         T2        TX        TY        TZ
        (cm-1)      (nm)                 (au**2)    (au)      (au)      (au)
-----------------------------------------------------------------------------
   1   31884.9    313.6   0.000024508   0.00025  -0.01481  -0.00559  -0.00160

FINAL SINGLE POINT ENERGY      -191.641865670862

DIPOLE MOMENT
-------------
                                X             Y             Z
Electronic contribution:     -2.43280      -1.51331       0.85341
Nuclear contribution   :      2.82874       2.29426      -1.27607
                        -----------------------------------------
Total Dipole Moment    :      0.39594       0.78095      -0.42267
                        -----------------------------------------
Magnitude (a.u.)       :      0.97227
Magnitude (Debye)      :      2.47130

Rotational constants in cm-1:     0.875857     0.186766     0.166750
Rotational constants in MHz : 26257.534965  5599.101201  4999.052600

                             ****ORCA TERMINATED NORMALLY****
TOTAL RUN TIME: 0 days 0 hours 3 minutes 17 seconds 822 msec
