                         Program Version 5.0.3 -  RELEASE  -
|  1> ! HF-3c
|  2> !TightSCF
|  3> %scf
|  4>  ConvForced true
|  5>  convergence tight
|  6>  MaxIter 500
|  7> end
|  8>
|  9> %tddft
| 10>  nroots 1
| 11> end
| 12>
| 13> # 	10117
| 14> * xyz 0 1
| 15> 		C   -1.174368  -0.387361  -0.075560
| 16> 		O   -2.057861  -0.536784  -0.890690
| 17> 		C    0.015528   0.390420  -0.302139
| 18> 		C    1.275325   0.120839   0.182613
| 19> 		H   -1.314498  -0.785014   1.001392
| 20> 		H   -0.108186   1.111792  -1.047919
| 21> 		H    1.173312  -0.633651   1.079806
| 22> 		H    2.168792   0.676436   0.005731
| 23> *
| 24>
| 25>                          ****END OF INPUT****

CARTESIAN COORDINATES (ANGSTROEM)
---------------------------------
  C     -1.174368   -0.387361   -0.075560
  O     -2.057861   -0.536784   -0.890690
  C      0.015528    0.390420   -0.302139
  C      1.275325    0.120839    0.182613
  H     -1.314498   -0.785014    1.001392
  H     -0.108186    1.111792   -1.047919
  H      1.173312   -0.633651    1.079806
  H      2.168792    0.676436    0.005731

 Total Charge           Charge          ....    0
 Multiplicity           Mult            ....    1
 Number of Electrons    NEL             ....   30
 Basis Dimension        Dim             ....   24

ORBITAL ENERGIES
----------------

  NO   OCC          E(Eh)            E(eV)
   0   2.0000     -20.366869      -554.2107
   1   2.0000     -11.298058      -307.4358
   2   2.0000     -11.194950      -304.6301
   3   2.0000     -11.188073      -304.4429
   4   2.0000      -1.402445       -38.1625
   5   2.0000      -1.076773       -29.3005
   6   2.0000      -0.885221       -24.0881
   7   2.0000      -0.771215       -20.9858
   8   2.0000      -0.659155       -17.9365
   9   2.0000      -0.653716       -17.7885
  10   2.0000      -0.587961       -15.9992
  11   2.0000      -0.545751       -14.8506
  12   2.0000      -0.512387       -13.9428
  13   2.0000      -0.412811       -11.2332
  14   2.0000      -0.386650       -10.5213
  15   0.0000       0.124156         3.3785
  16   0.0000       0.283776         7.7219
  17   0.0000       0.546484        14.8706
  18   0.0000       0.587918        15.9980
  19   0.0000       0.608609        16.5611

MULLIKEN ATOMIC CHARGES
-----------------------
   0 C :    0.167630
   1 O :   -0.349875
   2 C :   -0.182200
   3 C :   -0.210005
   4 H :    0.130562
   5 H :    0.148928
   6 H :    0.142290
   7 H :    0.152672
Sum of atomic charges:    0.0000000

LOEWDIN ATOMIC CHARGES
----------------------
   0 C :    0.146391
   1 O :   -0.256033
   2 C :   -0.135175
   3 C :   -0.117217
   4 H :    0.071784
   5 H :    0.091686
   6 H :    0.099620
   7 H :    0.098945

  Mayer bond orders larger than 0.100000
B(  0-C ,  1-O ) :   1.9050 B(  0-C ,  2-C ) :   1.0397 B(  0-C ,  4-H ) :   0.9168
B(  2-C ,  3-C ) :   1.9359 B(  2-C ,  5-H ) :   0.9553 B(  3-C ,  6-H ) :   0.9621
B(  3-C ,  7-H ) :   0.9646

-----------------------------------------------------------------------------
         ABSORPTION SPECTRUM VIA TRANSITION ELECTRIC DIPOLE MOMENTS
-----------------------------------------------------------------------------
State   Energy    Wavelength  fosc         T2        TX        TY        TZ
        (cm-1)      (nm)                 (au**2)    (au)      (au)      (au)
-----------------------------------------------------------------------------
   1   32642.9    306.3   0.000103219   0.00104  -0.03208  -0.00268   0.00213

Dispersion correction           -0.025390829
FINAL SINGLE POINT ENERGY      -189.320388967040

DIPOLE MOMENT
-------------
                                X             Y             Z
Electronic contribution:     -2.80666      -0.61923      -1.29344
Nuclear contribution   :      3.75875       0.79085       2.00629
                        -----------------------------------------
Total Dipole Moment    :      0.95209       0.17162       0.71286
                        -----------------------------------------
Magnitude (a.u.)       :      1.20171
Magnitude (Debye)      :      3.05450

Rotational constants in cm-1:     1.497736     0.153022     0.142873
Rotational constants in MHz : 44901.008575  4587.491470  4283.212426

                             ****ORCA TERMINATED NORMALLY****
TOTAL RUN TIME: 0 days 0 hours 0 minutes 11 seconds 640 msec
