                         Program Version 5.0.3 -  RELEASE  -
|  1> ! B3LYP cc-pVDZ
|  2> !TightSCF
|  3> %scf
|  4>  ConvForced true
|  5>  convergence tight
|  6>  MaxIter 500
|  7> end
|  8>
|  9> %tddft
| 10>  nroots 1
| 11> end
| 12>
| 13> # 	3418
| 14> * xyz 0 1
| 15> 		C   -1.131206  -0.414787  -0.062763
| 16> 		O   -2.193716  -0.451780  -0.732664
| 17> 		C    0.107177   0.239172  -0.383986
| 18> 		C    1.185464   0.144546   0.232711
| 19> 		H   -1.225453  -0.879500   0.864813
| 20> 		H    0.084022   1.145114  -1.132578
| 21> 		H    1.238246  -0.545150   1.122570
| 22> 		H    1.970058   0.793154   0.079543
| 23> *
| 24>
| 25>                          ****END OF INPUT****

CARTESIAN COORDINATES (ANGSTROEM)
---------------------------------
  C     -1.131206   -0.414787   -0.062763
  O     -2.193716   -0.451780   -0.732664
  C      0.107177    0.239172   -0.383986
  C      1.185464    0.144546    0.232711
  H     -1.225453   -0.879500    0.864813
  H      0.084022    1.145114   -1.132578
  H      1.238246   -0.545150    1.122570
  H      1.970058    0.793154    0.079543

 Total Charge           Charge          ....    0
 Multiplicity           Mult            ....    1
 Number of Electrons    NEL             ....   30
 Basis Dimension        Dim             ....   76

ORBITAL ENERGIES
----------------

  NO   OCC          E(Eh)            E(eV)
   0   2.0000     -19.136227      -520.7232
   1   2.0000     -10.270776      -279.4820
   2   2.0000     -10.207353      -277.7562
   3   2.0000     -10.205225      -277.6983
   4   2.0000      -1.020423       -27.7671
   5   2.0000      -0.830183       -22.5904
   6   2.0000      -0.664136       -18.0721
   7   2.0000      -0.567721       -15.4485
   8   2.0000      -0.491826       -13.3833
   9   2.0000      -0.486337       -13.2339
  10   2.0000      -0.417924       -11.3723
  11   2.0000      -0.391597       -10.6559
  12   2.0000      -0.363777        -9.8989
  13   2.0000      -0.307643        -8.3714
  14   2.0000      -0.253499        -6.8981
  15   0.0000      -0.069152        -1.8817
  16   0.0000       0.044830         1.2199
  17   0.0000       0.073979         2.0131
  18   0.0000       0.078554         2.1376
  19   0.0000       0.126302         3.4368

MULLIKEN ATOMIC CHARGES
-----------------------
   0 C :    0.213558
   1 O :   -0.231798
   2 C :   -0.122978
   3 C :    0.127379
   4 H :   -0.036575
   5 H :    0.019868
   6 H :    0.020433
   7 H :    0.010113
Sum of atomic charges:   -0.0000000

LOEWDIN ATOMIC CHARGES
----------------------
   0 C :   -0.003156
   1 O :   -0.037942
   2 C :   -0.075733
   3 C :    0.010397
   4 H :   -0.008658
   5 H :    0.054257
   6 H :    0.037152
   7 H :    0.023682

  Mayer bond orders larger than 0.100000
B(  0-C ,  1-O ) :   2.1217 B(  0-C ,  2-C ) :   1.0770 B(  0-C ,  4-H ) :   0.9483
B(  2-C ,  3-C ) :   1.9974 B(  2-C ,  5-H ) :   0.9275 B(  3-C ,  6-H ) :   0.9299
B(  3-C ,  7-H ) :   0.9112

-----------------------------------------------------------------------------
         ABSORPTION SPECTRUM VIA TRANSITION ELECTRIC DIPOLE MOMENTS
-----------------------------------------------------------------------------
State   Energy    Wavelength  fosc         T2        TX        TY        TZ
        (cm-1)      (nm)                 (au**2)    (au)      (au)      (au)
-----------------------------------------------------------------------------
   1   26658.6    375.1   0.000071565   0.00088   0.00025  -0.02671  -0.01306

FINAL SINGLE POINT ENERGY      -191.656217827485

DIPOLE MOMENT
-------------
                                X             Y             Z
Electronic contribution:     -2.88320      -0.71815      -1.20905
Nuclear contribution   :      3.99488       0.95119       1.76293
                        -----------------------------------------
Total Dipole Moment    :      1.11167       0.23304       0.55387
                        -----------------------------------------
Magnitude (a.u.)       :      1.26369
Magnitude (Debye)      :      3.21203

Rotational constants in cm-1:     1.751321     0.154140     0.142258
Rotational constants in MHz : 52503.294571  4620.997025  4264.776474

                             ****ORCA TERMINATED NORMALLY****
TOTAL RUN TIME: 0 days 0 hours 3 minutes 15 seconds 60 msec
