                         Program Version 5.0.3 -  RELEASE  -
|  1> ! HF-3c
|  2> !TightSCF
|  3> %scf
|  4>  ConvForced true
|  5>  convergence tight
|  6>  MaxIter 500
|  7> end
|  8>
|  9> %tddft
| 10>  nroots 1
| 11> end
| 12>
| 13> # 	3981
| 14> * xyz 0 1
| 15> 		C   -1.231822  -0.304805   0.044926
| 16> 		O   -1.225643  -1.553404   0.128885
| 17> 		C   -0.011690   0.503542   0.028148
| 18> 		C    1.265293   0.012784  -0.022897
| 19> 		H   -2.230193   0.055906  -0.287713
| 20> 		H   -0.181257   1.555186   0.050835
| 21> 		H    1.413852  -0.955879  -0.041131
| 22> 		H    2.182514   0.703253   0.066549
| 23> *
| 24>
| 25>                          ****END OF INPUT****

CARTESIAN COORDINATES (ANGSTROEM)
---------------------------------
  C     -1.231822   -0.304805    0.044926
  O     -1.225643   -1.553404    0.128885
  C     -0.011690    0.503542    0.028148
  C      1.265293    0.012784   -0.022897
  H     -2.230193    0.055906   -0.287713
  H     -0.181257    1.555186    0.050835
  H      1.413852   -0.955879   -0.041131
  H      2.182514    0.703253    0.066549

 Total Charge           Charge          ....    0
 Multiplicity           Mult            ....    1
 Number of Electrons    NEL             ....   30
 Basis Dimension        Dim             ....   24

ORBITAL ENERGIES
----------------

  NO   OCC          E(Eh)            E(eV)
   0   2.0000     -20.347491      -553.6834
   1   2.0000     -11.281924      -306.9968
   2   2.0000     -11.198906      -304.7377
   3   2.0000     -11.195564      -304.6468
   4   2.0000      -1.370763       -37.3004
   5   2.0000      -1.073077       -29.1999
   6   2.0000      -0.898304       -24.4441
   7   2.0000      -0.758449       -20.6384
   8   2.0000      -0.699653       -19.0385
   9   2.0000      -0.615685       -16.7536
  10   2.0000      -0.587743       -15.9933
  11   2.0000      -0.536923       -14.6104
  12   2.0000      -0.516314       -14.0496
  13   2.0000      -0.415420       -11.3042
  14   2.0000      -0.383907       -10.4466
  15   0.0000       0.115308         3.1377
  16   0.0000       0.291842         7.9414
  17   0.0000       0.516757        14.0617
  18   0.0000       0.640089        17.4177
  19   0.0000       0.672505        18.2998

MULLIKEN ATOMIC CHARGES
-----------------------
   0 C :    0.134365
   1 O :   -0.341408
   2 C :   -0.170984
   3 C :   -0.218519
   4 H :    0.147271
   5 H :    0.141722
   6 H :    0.151622
   7 H :    0.155931
Sum of atomic charges:   -0.0000000

LOEWDIN ATOMIC CHARGES
----------------------
   0 C :    0.126318
   1 O :   -0.259832
   2 C :   -0.123189
   3 C :   -0.114914
   4 H :    0.085014
   5 H :    0.088234
   6 H :    0.089268
   7 H :    0.109100

  Mayer bond orders larger than 0.100000
B(  0-C ,  1-O ) :   1.8852 B(  0-C ,  2-C ) :   1.0498 B(  0-C ,  4-H ) :   0.9346
B(  2-C ,  3-C ) :   1.9302 B(  2-C ,  5-H ) :   0.9611 B(  3-C ,  6-H ) :   0.9662
B(  3-C ,  7-H ) :   0.9622

-----------------------------------------------------------------------------
         ABSORPTION SPECTRUM VIA TRANSITION ELECTRIC DIPOLE MOMENTS
-----------------------------------------------------------------------------
State   Energy    Wavelength  fosc         T2        TX        TY        TZ
        (cm-1)      (nm)                 (au**2)    (au)      (au)      (au)
-----------------------------------------------------------------------------
   1   28286.6    353.5   0.000079367   0.00092   0.02383   0.00480   0.01825

Dispersion correction           -0.025295200
FINAL SINGLE POINT ENERGY      -189.339210396728

DIPOLE MOMENT
-------------
                                X             Y             Z
Electronic contribution:     -1.97419      -1.68175       0.25650
Nuclear contribution   :      2.31342       2.65887      -0.36122
                        -----------------------------------------
Total Dipole Moment    :      0.33923       0.97712      -0.10472
                        -----------------------------------------
Magnitude (a.u.)       :      1.03962
Magnitude (Debye)      :      2.64251

Rotational constants in cm-1:     0.773203     0.198468     0.158429
Rotational constants in MHz : 23180.035970  5949.914302  4749.580076

                             ****ORCA TERMINATED NORMALLY****
TOTAL RUN TIME: 0 days 0 hours 0 minutes 13 seconds 71 msec
