                         Program Version 5.0.3 -  RELEASE  -
|  1> ! B3LYP cc-pVDZ
|  2> !TightSCF
|  3> %scf
|  4>  ConvForced true
|  5>  convergence tight
|  6>  MaxIter 500
|  7> end
|  8>
|  9> %tddft
| 10>  nroots 1
| 11> end
| 12>
| 13> # 	23178
| 14> * xyz 0 1
| 15> 		C   -0.580189  -0.434502   0.038323
| 16> 		O   -0.593044  -1.679518  -0.037117
| 17> 		C    0.662028   0.467520  -0.000562
| 18> 		C    1.845035  -0.117372   0.018870
| 19> 		H   -1.684138  -0.017005   0.122464
| 20> 		H    0.643655   1.578671  -0.227573
| 21> 		H    1.879382  -1.231492   0.256173
| 22> 		H    2.633001   0.555413  -0.267043
| 23> *
| 24>
| 25>                          ****END OF INPUT****

CARTESIAN COORDINATES (ANGSTROEM)
---------------------------------
  C     -0.580189   -0.434502    0.038323
  O     -0.593044   -1.679518   -0.037117
  C      0.662028    0.467520   -0.000562
  C      1.845035   -0.117372    0.018870
  H     -1.684138   -0.017005    0.122464
  H      0.643655    1.578671   -0.227573
  H      1.879382   -1.231492    0.256173
  H      2.633001    0.555413   -0.267043

 Total Charge           Charge          ....    0
 Multiplicity           Mult            ....    1
 Number of Electrons    NEL             ....   30
 Basis Dimension        Dim             ....   76

ORBITAL ENERGIES
----------------

  NO   OCC          E(Eh)            E(eV)
   0   2.0000     -19.141704      -520.8722
   1   2.0000     -10.288610      -279.9673
   2   2.0000     -10.214158      -277.9414
   3   2.0000     -10.212543      -277.8974
   4   2.0000      -1.028498       -27.9869
   5   2.0000      -0.799177       -21.7467
   6   2.0000      -0.638629       -17.3780
   7   2.0000      -0.532309       -14.4849
   8   2.0000      -0.509851       -13.8737
   9   2.0000      -0.435245       -11.8436
  10   2.0000      -0.418010       -11.3746
  11   2.0000      -0.385856       -10.4997
  12   2.0000      -0.383361       -10.4318
  13   2.0000      -0.291394        -7.9292
  14   2.0000      -0.254247        -6.9184
  15   0.0000      -0.069245        -1.8843
  16   0.0000       0.045899         1.2490
  17   0.0000       0.060620         1.6495
  18   0.0000       0.083981         2.2852
  19   0.0000       0.105189         2.8623

MULLIKEN ATOMIC CHARGES
-----------------------
   0 C :    0.162987
   1 O :   -0.216541
   2 C :   -0.134385
   3 C :    0.088441
   4 H :    0.004756
   5 H :    0.014168
   6 H :    0.054988
   7 H :    0.025585
Sum of atomic charges:   -0.0000000

LOEWDIN ATOMIC CHARGES
----------------------
   0 C :   -0.008413
   1 O :   -0.042937
   2 C :   -0.091856
   3 C :    0.017454
   4 H :    0.005662
   5 H :    0.040174
   6 H :    0.047916
   7 H :    0.031999

  Mayer bond orders larger than 0.100000
B(  0-C ,  1-O ) :   2.1428 B(  0-C ,  2-C ) :   0.9900 B(  0-C ,  4-H ) :   0.9207
B(  2-C ,  3-C ) :   1.9783 B(  2-C ,  5-H ) :   0.9433 B(  3-C ,  6-H ) :   0.9262
B(  3-C ,  7-H ) :   0.9335

-----------------------------------------------------------------------------
         ABSORPTION SPECTRUM VIA TRANSITION ELECTRIC DIPOLE MOMENTS
-----------------------------------------------------------------------------
State   Energy    Wavelength  fosc         T2        TX        TY        TZ
        (cm-1)      (nm)                 (au**2)    (au)      (au)      (au)
-----------------------------------------------------------------------------
   1   27376.1    365.3   0.000258654   0.00311  -0.02908  -0.00555   0.04726

FINAL SINGLE POINT ENERGY      -191.665004000998

DIPOLE MOMENT
-------------
                                X             Y             Z
Electronic contribution:     -1.67659      -1.69465       0.09275
Nuclear contribution   :      2.09565       2.61980      -0.10730
                        -----------------------------------------
Total Dipole Moment    :      0.41907       0.92515      -0.01456
                        -----------------------------------------
Magnitude (a.u.)       :      1.01574
Magnitude (Debye)      :      2.58181

Rotational constants in cm-1:     0.749737     0.200790     0.159120
Rotational constants in MHz : 22476.539841  6019.535961  4770.295122

                             ****ORCA TERMINATED NORMALLY****
TOTAL RUN TIME: 0 days 0 hours 3 minutes 16 seconds 965 msec
