                         Program Version 5.0.3 -  RELEASE  -
|  1> ! HF-3c
|  2> !TightSCF
|  3> %scf
|  4>  ConvForced true
|  5>  convergence tight
|  6>  MaxIter 500
|  7> end
|  8>
|  9> %tddft
| 10>  nroots 1
| 11> end
| 12>
| 13> # 	32646
| 14> * xyz 0 1
| 15> 		C   -0.580943  -0.395213   0.006585
| 16> 		O   -0.534306  -1.597772  -0.003300
| 17> 		C    0.605368   0.388288  -0.008368
| 18> 		C    1.806069  -0.156102   0.018032
| 19> 		H   -1.498848   0.110446  -0.019100
| 20> 		H    0.505406   1.406773   0.016869
| 21> 		H    1.842376  -1.234693  -0.037615
| 22> 		H    2.742052   0.273712  -0.105615
| 23> *
| 24>
| 25>                          ****END OF INPUT****

CARTESIAN COORDINATES (ANGSTROEM)
---------------------------------
  C     -0.580943   -0.395213    0.006585
  O     -0.534306   -1.597772   -0.003300
  C      0.605368    0.388288   -0.008368
  C      1.806069   -0.156102    0.018032
  H     -1.498848    0.110446   -0.019100
  H      0.505406    1.406773    0.016869
  H      1.842376   -1.234693   -0.037615
  H      2.742052    0.273712   -0.105615

 Total Charge           Charge          ....    0
 Multiplicity           Mult            ....    1
 Number of Electrons    NEL             ....   30
 Basis Dimension        Dim             ....   24

ORBITAL ENERGIES
----------------

  NO   OCC          E(Eh)            E(eV)
   0   2.0000     -20.366608      -554.2036
   1   2.0000     -11.302499      -307.5566
   2   2.0000     -11.198276      -304.7206
   3   2.0000     -11.194568      -304.6197
   4   2.0000      -1.412922       -38.4476
   5   2.0000      -1.097752       -29.8714
   6   2.0000      -0.916690       -24.9444
   7   2.0000      -0.771281       -20.9876
   8   2.0000      -0.728001       -19.8099
   9   2.0000      -0.634373       -17.2622
  10   2.0000      -0.606194       -16.4954
  11   2.0000      -0.556217       -15.1354
  12   2.0000      -0.534060       -14.5325
  13   2.0000      -0.426965       -11.6183
  14   2.0000      -0.399360       -10.8671
  15   0.0000       0.122556         3.3349
  16   0.0000       0.318005         8.6534
  17   0.0000       0.581527        15.8242
  18   0.0000       0.705435        19.1959
  19   0.0000       0.716399        19.4942

MULLIKEN ATOMIC CHARGES
-----------------------
   0 C :    0.154100
   1 O :   -0.348106
   2 C :   -0.190862
   3 C :   -0.211922
   4 H :    0.142271
   5 H :    0.143815
   6 H :    0.160367
   7 H :    0.150337
Sum of atomic charges:   -0.0000000

LOEWDIN ATOMIC CHARGES
----------------------
   0 C :    0.141920
   1 O :   -0.253915
   2 C :   -0.140504
   3 C :   -0.105510
   4 H :    0.072789
   5 H :    0.086388
   6 H :    0.104512
   7 H :    0.094321

  Mayer bond orders larger than 0.100000
B(  0-C ,  1-O ) :   1.8899 B(  0-C ,  2-C ) :   1.0487 B(  0-C ,  4-H ) :   0.9308
B(  2-C ,  3-C ) :   1.9299 B(  2-C ,  5-H ) :   0.9601 B(  3-C ,  6-H ) :   0.9568
B(  3-C ,  7-H ) :   0.9668

-----------------------------------------------------------------------------
         ABSORPTION SPECTRUM VIA TRANSITION ELECTRIC DIPOLE MOMENTS
-----------------------------------------------------------------------------
State   Energy    Wavelength  fosc         T2        TX        TY        TZ
        (cm-1)      (nm)                 (au**2)    (au)      (au)      (au)
-----------------------------------------------------------------------------
   1   32121.4    311.3   0.000019984   0.00020   0.01042   0.00031   0.00980

Dispersion correction           -0.026722907
FINAL SINGLE POINT ENERGY      -189.334839888033

DIPOLE MOMENT
-------------
                                X             Y             Z
Electronic contribution:     -1.91276      -1.47763       0.10960
Nuclear contribution   :      2.21482       2.30994      -0.13623
                        -----------------------------------------
Total Dipole Moment    :      0.30206       0.83231      -0.02663
                        -----------------------------------------
Magnitude (a.u.)       :      0.88582
Magnitude (Debye)      :      2.25159

Rotational constants in cm-1:     0.774236     0.226960     0.175579
Rotational constants in MHz : 23211.002760  6804.075484  5263.723954

                             ****ORCA TERMINATED NORMALLY****
TOTAL RUN TIME: 0 days 0 hours 0 minutes 16 seconds 38 msec
