                         Program Version 5.0.3 -  RELEASE  -
|  1> ! B3LYP cc-pVDZ
|  2> !TightSCF
|  3> %scf
|  4>  ConvForced true
|  5>  convergence tight
|  6>  MaxIter 500
|  7> end
|  8>
|  9> %tddft
| 10>  nroots 1
| 11> end
| 12>
| 13> # 	13318
| 14> * xyz 0 1
| 15> 		C   -1.170041  -0.348080   0.063653
| 16> 		O   -2.192215  -0.416225   0.763057
| 17> 		C   -0.019020   0.400446   0.412994
| 18> 		C    1.166666   0.162089  -0.321850
| 19> 		H   -1.189601  -0.943707  -0.918895
| 20> 		H   -0.112375   1.135484   0.996914
| 21> 		H    1.300653  -0.439662  -1.083226
| 22> 		H    2.237237   0.482813   0.096537
| 23> *
| 24>
| 25>                          ****END OF INPUT****

CARTESIAN COORDINATES (ANGSTROEM)
---------------------------------
  C     -1.170041   -0.348080    0.063653
  O     -2.192215   -0.416225    0.763057
  C     -0.019020    0.400446    0.412994
  C      1.166666    0.162089   -0.321850
  H     -1.189601   -0.943707   -0.918895
  H     -0.112375    1.135484    0.996914
  H      1.300653   -0.439662   -1.083226
  H      2.237237    0.482813    0.096537

 Total Charge           Charge          ....    0
 Multiplicity           Mult            ....    1
 Number of Electrons    NEL             ....   30
 Basis Dimension        Dim             ....   76

ORBITAL ENERGIES
----------------

  NO   OCC          E(Eh)            E(eV)
   0   2.0000     -19.131065      -520.5827
   1   2.0000     -10.271600      -279.5044
   2   2.0000     -10.234268      -278.4886
   3   2.0000     -10.210431      -277.8400
   4   2.0000      -1.025885       -27.9158
   5   2.0000      -0.806520       -21.9465
   6   2.0000      -0.663802       -18.0630
   7   2.0000      -0.588608       -16.0168
   8   2.0000      -0.486430       -13.2364
   9   2.0000      -0.468031       -12.7358
  10   2.0000      -0.424069       -11.5395
  11   2.0000      -0.395359       -10.7583
  12   2.0000      -0.384151       -10.4533
  13   2.0000      -0.283033        -7.7017
  14   2.0000      -0.250263        -6.8100
  15   0.0000      -0.082472        -2.2442
  16   0.0000       0.031990         0.8705
  17   0.0000       0.066715         1.8154
  18   0.0000       0.091043         2.4774
  19   0.0000       0.124055         3.3757

MULLIKEN ATOMIC CHARGES
-----------------------
   0 C :    0.151172
   1 O :   -0.227671
   2 C :    0.079354
   3 C :    0.022775
   4 H :   -0.018738
   5 H :   -0.061903
   6 H :   -0.004531
   7 H :    0.059542
Sum of atomic charges:    0.0000000

LOEWDIN ATOMIC CHARGES
----------------------
   0 C :   -0.036276
   1 O :   -0.036485
   2 C :   -0.009393
   3 C :    0.049169
   4 H :    0.000653
   5 H :   -0.011715
   6 H :   -0.009291
   7 H :    0.053338

  Mayer bond orders larger than 0.100000
B(  0-C ,  1-O ) :   2.0966 B(  0-C ,  2-C ) :   1.1276 B(  0-C ,  4-H ) :   0.9293
B(  1-O ,  3-C ) :   0.1273 B(  2-C ,  3-C ) :   1.8612 B(  2-C ,  5-H ) :   0.9527
B(  3-C ,  6-H ) :   0.9610 B(  3-C ,  7-H ) :   0.9572

-----------------------------------------------------------------------------
         ABSORPTION SPECTRUM VIA TRANSITION ELECTRIC DIPOLE MOMENTS
-----------------------------------------------------------------------------
State   Energy    Wavelength  fosc         T2        TX        TY        TZ
        (cm-1)      (nm)                 (au**2)    (au)      (au)      (au)
-----------------------------------------------------------------------------
   1   24942.0    400.9   0.000032408   0.00043   0.00356  -0.00417   0.01994

FINAL SINGLE POINT ENERGY      -191.645241860478

DIPOLE MOMENT
-------------
                                X             Y             Z
Electronic contribution:     -3.11764      -0.28048       1.21882
Nuclear contribution   :      4.28880       0.47274      -1.72499
                        -----------------------------------------
Total Dipole Moment    :      1.17116       0.19226      -0.50617
                        -----------------------------------------
Magnitude (a.u.)       :      1.29026
Magnitude (Debye)      :      3.27959

Rotational constants in cm-1:     1.575891     0.153787     0.141336
Rotational constants in MHz : 47244.016412  4610.406383  4237.155174

                             ****ORCA TERMINATED NORMALLY****
TOTAL RUN TIME: 0 days 0 hours 3 minutes 22 seconds 967 msec
