                         Program Version 5.0.3 -  RELEASE  -
|  1> ! B3LYP cc-pVDZ
|  2> !TightSCF
|  3> %scf
|  4>  ConvForced true
|  5>  convergence tight
|  6>  MaxIter 500
|  7> end
|  8>
|  9> %tddft
| 10>  nroots 1
| 11> end
| 12>
| 13> # 	15571
| 14> * xyz 0 1
| 15> 		C   -1.145372  -0.364171  -0.021297
| 16> 		O   -1.564903  -1.235110  -0.825258
| 17> 		C    0.028645   0.488560  -0.227115
| 18> 		C    1.225923   0.031458   0.070888
| 19> 		H   -1.857513  -0.176052   0.893567
| 20> 		H   -0.167115   1.577198  -0.199474
| 21> 		H    1.390433  -1.080252   0.236423
| 22> 		H    2.096669   0.792913   0.054958
| 23> *
| 24>
| 25>                          ****END OF INPUT****

CARTESIAN COORDINATES (ANGSTROEM)
---------------------------------
  C     -1.145372   -0.364171   -0.021297
  O     -1.564903   -1.235110   -0.825258
  C      0.028645    0.488560   -0.227115
  C      1.225923    0.031458    0.070888
  H     -1.857513   -0.176052    0.893567
  H     -0.167115    1.577198   -0.199474
  H      1.390433   -1.080252    0.236423
  H      2.096669    0.792913    0.054958

 Total Charge           Charge          ....    0
 Multiplicity           Mult            ....    1
 Number of Electrons    NEL             ....   30
 Basis Dimension        Dim             ....   76

ORBITAL ENERGIES
----------------

  NO   OCC          E(Eh)            E(eV)
   0   2.0000     -19.140215      -520.8317
   1   2.0000     -10.285605      -279.8855
   2   2.0000     -10.220641      -278.1178
   3   2.0000     -10.211076      -277.8575
   4   2.0000      -1.022345       -27.8194
   5   2.0000      -0.807400       -21.9705
   6   2.0000      -0.648499       -17.6465
   7   2.0000      -0.542661       -14.7666
   8   2.0000      -0.499859       -13.6019
   9   2.0000      -0.445334       -12.1182
  10   2.0000      -0.433340       -11.7918
  11   2.0000      -0.384049       -10.4505
  12   2.0000      -0.363331        -9.8868
  13   2.0000      -0.295294        -8.0354
  14   2.0000      -0.252072        -6.8592
  15   0.0000      -0.046369        -1.2618
  16   0.0000      -0.010597        -0.2883
  17   0.0000       0.064281         1.7492
  18   0.0000       0.081163         2.2086
  19   0.0000       0.101310         2.7568

MULLIKEN ATOMIC CHARGES
-----------------------
   0 C :    0.138244
   1 O :   -0.222014
   2 C :   -0.033143
   3 C :   -0.011168
   4 H :    0.009524
   5 H :    0.021897
   6 H :    0.048278
   7 H :    0.048382
Sum of atomic charges:    0.0000000

LOEWDIN ATOMIC CHARGES
----------------------
   0 C :   -0.004080
   1 O :   -0.043858
   2 C :   -0.072766
   3 C :   -0.021244
   4 H :    0.008837
   5 H :    0.044101
   6 H :    0.042268
   7 H :    0.046742

  Mayer bond orders larger than 0.100000
B(  0-C ,  1-O ) :   2.1604 B(  0-C ,  2-C ) :   1.0119 B(  0-C ,  4-H ) :   0.9103
B(  2-C ,  3-C ) :   2.0086 B(  2-C ,  5-H ) :   0.9219 B(  3-C ,  6-H ) :   0.9402
B(  3-C ,  7-H ) :   0.9378

-----------------------------------------------------------------------------
         ABSORPTION SPECTRUM VIA TRANSITION ELECTRIC DIPOLE MOMENTS
-----------------------------------------------------------------------------
State   Energy    Wavelength  fosc         T2        TX        TY        TZ
        (cm-1)      (nm)                 (au**2)    (au)      (au)      (au)
-----------------------------------------------------------------------------
   1   30305.1    330.0   0.000424868   0.00462  -0.06687   0.00838   0.00855

FINAL SINGLE POINT ENERGY      -191.647279194950

DIPOLE MOMENT
-------------
                                X             Y             Z
Electronic contribution:     -2.26594      -1.40719      -1.27191
Nuclear contribution   :      2.84419       2.15335       1.87614
                        -----------------------------------------
Total Dipole Moment    :      0.57825       0.74616       0.60423
                        -----------------------------------------
Magnitude (a.u.)       :      1.12081
Magnitude (Debye)      :      2.84887

Rotational constants in cm-1:     0.924026     0.173425     0.157964
Rotational constants in MHz : 27701.587861  5199.158261  4735.648815

                             ****ORCA TERMINATED NORMALLY****
TOTAL RUN TIME: 0 days 0 hours 3 minutes 17 seconds 541 msec
