                         Program Version 5.0.3 -  RELEASE  -
|  1> ! HF-3c
|  2> !TightSCF
|  3> %scf
|  4>  ConvForced true
|  5>  convergence tight
|  6>  MaxIter 500
|  7> end
|  8>
|  9> %tddft
| 10>  nroots 1
| 11> end
| 12>
| 13> # 	6905
| 14> * xyz 0 1
| 15> 		C   -1.251894  -0.314674   0.023419
| 16> 		O   -1.437065  -1.300842   0.609880
| 17> 		C    0.008486   0.541621   0.180997
| 18> 		C    1.247289   0.050712  -0.144729
| 19> 		H   -1.808253   0.043661  -0.900517
| 20> 		H   -0.167388   1.487605   0.531717
| 21> 		H    1.194520  -1.084514  -0.408463
| 22> 		H    2.174723   0.574535   0.070172
| 23> *
| 24>
| 25>                          ****END OF INPUT****

CARTESIAN COORDINATES (ANGSTROEM)
---------------------------------
  C     -1.251894   -0.314674    0.023419
  O     -1.437065   -1.300842    0.609880
  C      0.008486    0.541621    0.180997
  C      1.247289    0.050712   -0.144729
  H     -1.808253    0.043661   -0.900517
  H     -0.167388    1.487605    0.531717
  H      1.194520   -1.084514   -0.408463
  H      2.174723    0.574535    0.070172

 Total Charge           Charge          ....    0
 Multiplicity           Mult            ....    1
 Number of Electrons    NEL             ....   30
 Basis Dimension        Dim             ....   24

ORBITAL ENERGIES
----------------

  NO   OCC          E(Eh)            E(eV)
   0   2.0000     -20.398435      -555.0696
   1   2.0000     -11.313924      -307.8675
   2   2.0000     -11.176026      -304.1151
   3   2.0000     -11.173909      -304.0575
   4   2.0000      -1.447833       -39.3975
   5   2.0000      -1.057844       -28.7854
   6   2.0000      -0.874388       -23.7933
   7   2.0000      -0.756758       -20.5924
   8   2.0000      -0.693813       -18.8796
   9   2.0000      -0.635252       -17.2861
  10   2.0000      -0.608564       -16.5599
  11   2.0000      -0.547502       -14.8983
  12   2.0000      -0.526121       -14.3165
  13   2.0000      -0.405753       -11.0411
  14   2.0000      -0.385253       -10.4833
  15   0.0000       0.176557         4.8044
  16   0.0000       0.234875         6.3913
  17   0.0000       0.529344        14.4042
  18   0.0000       0.596117        16.2212
  19   0.0000       0.638087        17.3632

MULLIKEN ATOMIC CHARGES
-----------------------
   0 C :    0.194180
   1 O :   -0.351877
   2 C :   -0.174560
   3 C :   -0.231913
   4 H :    0.136658
   5 H :    0.136788
   6 H :    0.145029
   7 H :    0.145695
Sum of atomic charges:    0.0000000

LOEWDIN ATOMIC CHARGES
----------------------
   0 C :    0.158994
   1 O :   -0.236475
   2 C :   -0.130409
   3 C :   -0.145273
   4 H :    0.073834
   5 H :    0.082270
   6 H :    0.101386
   7 H :    0.095672

  Mayer bond orders larger than 0.100000
B(  0-C ,  1-O ) :   1.9611 B(  0-C ,  2-C ) :   0.9669 B(  0-C ,  4-H ) :   0.9068
B(  2-C ,  3-C ) :   1.9902 B(  2-C ,  5-H ) :   0.9610 B(  3-C ,  6-H ) :   0.9614
B(  3-C ,  7-H ) :   0.9638

-----------------------------------------------------------------------------
         ABSORPTION SPECTRUM VIA TRANSITION ELECTRIC DIPOLE MOMENTS
-----------------------------------------------------------------------------
State   Energy    Wavelength  fosc         T2        TX        TY        TZ
        (cm-1)      (nm)                 (au**2)    (au)      (au)      (au)
-----------------------------------------------------------------------------
   1   36886.1    271.1   0.000233372   0.00208  -0.03944  -0.00507  -0.02239

Dispersion correction           -0.025271559
FINAL SINGLE POINT ENERGY      -189.297914754800

DIPOLE MOMENT
-------------
                                X             Y             Z
Electronic contribution:     -2.43737      -1.36712       0.83439
Nuclear contribution   :      2.73369       2.04420      -1.31034
                        -----------------------------------------
Total Dipole Moment    :      0.29632       0.67708      -0.47595
                        -----------------------------------------
Magnitude (a.u.)       :      0.87907
Magnitude (Debye)      :      2.23443

Rotational constants in cm-1:     0.850076     0.182008     0.160548
Rotational constants in MHz : 25484.628431  5456.452871  4813.097545

                             ****ORCA TERMINATED NORMALLY****
TOTAL RUN TIME: 0 days 0 hours 0 minutes 12 seconds 384 msec
