                         Program Version 5.0.3 -  RELEASE  -
|  1> ! B3LYP cc-pVDZ
|  2> !TightSCF
|  3> %scf
|  4>  ConvForced true
|  5>  convergence tight
|  6>  MaxIter 500
|  7> end
|  8>
|  9> %tddft
| 10>  nroots 1
| 11> end
| 12>
| 13> # 	12796
| 14> * xyz 0 1
| 15> 		C   -1.120601  -0.322566  -0.092080
| 16> 		O   -1.952689  -0.648358  -0.834448
| 17> 		C    0.046597   0.472950  -0.310003
| 18> 		C    1.153471   0.120419   0.287863
| 19> 		H   -1.396967  -0.706493   0.988265
| 20> 		H   -0.119527   1.387419  -1.015266
| 21> 		H    1.313001  -0.998871   0.852543
| 22> 		H    2.043164   0.649112   0.114028
| 23> *
| 24>
| 25>                          ****END OF INPUT****

CARTESIAN COORDINATES (ANGSTROEM)
---------------------------------
  C     -1.120601   -0.322566   -0.092080
  O     -1.952689   -0.648358   -0.834448
  C      0.046597    0.472950   -0.310003
  C      1.153471    0.120419    0.287863
  H     -1.396967   -0.706493    0.988265
  H     -0.119527    1.387419   -1.015266
  H      1.313001   -0.998871    0.852543
  H      2.043164    0.649112    0.114028

 Total Charge           Charge          ....    0
 Multiplicity           Mult            ....    1
 Number of Electrons    NEL             ....   30
 Basis Dimension        Dim             ....   76

ORBITAL ENERGIES
----------------

  NO   OCC          E(Eh)            E(eV)
   0   2.0000     -19.132726      -520.6280
   1   2.0000     -10.269161      -279.4381
   2   2.0000     -10.223549      -278.1969
   3   2.0000     -10.213021      -277.9104
   4   2.0000      -1.072800       -29.1924
   5   2.0000      -0.813607       -22.1394
   6   2.0000      -0.646482       -17.5917
   7   2.0000      -0.546699       -14.8764
   8   2.0000      -0.482054       -13.1174
   9   2.0000      -0.475768       -12.9463
  10   2.0000      -0.435223       -11.8430
  11   2.0000      -0.395872       -10.7722
  12   2.0000      -0.378726       -10.3056
  13   2.0000      -0.299938        -8.1617
  14   2.0000      -0.243870        -6.6360
  15   0.0000      -0.052202        -1.4205
  16   0.0000       0.028473         0.7748
  17   0.0000       0.048231         1.3124
  18   0.0000       0.089359         2.4316
  19   0.0000       0.112971         3.0741

MULLIKEN ATOMIC CHARGES
-----------------------
   0 C :    0.125588
   1 O :   -0.149401
   2 C :   -0.075068
   3 C :    0.014302
   4 H :   -0.041413
   5 H :    0.039635
   6 H :    0.063382
   7 H :    0.022975
Sum of atomic charges:   -0.0000000

LOEWDIN ATOMIC CHARGES
----------------------
   0 C :   -0.084960
   1 O :    0.043477
   2 C :   -0.073777
   3 C :   -0.010489
   4 H :   -0.012857
   5 H :    0.057057
   6 H :    0.061889
   7 H :    0.019660

  Mayer bond orders larger than 0.100000
B(  0-C ,  1-O ) :   2.2462 B(  0-C ,  2-C ) :   1.0322 B(  0-C ,  4-H ) :   0.9174
B(  2-C ,  3-C ) :   1.9621 B(  2-C ,  5-H ) :   0.9282 B(  3-C ,  6-H ) :   0.9354
B(  3-C ,  7-H ) :   0.9343

-----------------------------------------------------------------------------
         ABSORPTION SPECTRUM VIA TRANSITION ELECTRIC DIPOLE MOMENTS
-----------------------------------------------------------------------------
State   Energy    Wavelength  fosc         T2        TX        TY        TZ
        (cm-1)      (nm)                 (au**2)    (au)      (au)      (au)
-----------------------------------------------------------------------------
   1   29759.5    336.0   0.000005042   0.00006  -0.00135   0.00733  -0.00045

FINAL SINGLE POINT ENERGY      -191.633920159285

DIPOLE MOMENT
-------------
                                X             Y             Z
Electronic contribution:     -2.72063      -0.38918      -1.44588
Nuclear contribution   :      3.60770       0.75717       1.79483
                        -----------------------------------------
Total Dipole Moment    :      0.88706       0.36798       0.34895
                        -----------------------------------------
Magnitude (a.u.)       :      1.02179
Magnitude (Debye)      :      2.59719

Rotational constants in cm-1:     1.326030     0.165301     0.153477
Rotational constants in MHz : 39753.392104  4955.595775  4601.132572

                             ****ORCA TERMINATED NORMALLY****
TOTAL RUN TIME: 0 days 0 hours 3 minutes 13 seconds 322 msec
