                         Program Version 5.0.3 -  RELEASE  -
|  1> ! HF-3c
|  2> !TightSCF
|  3> %scf
|  4>  ConvForced true
|  5>  convergence tight
|  6>  MaxIter 500
|  7> end
|  8>
|  9> %tddft
| 10>  nroots 1
| 11> end
| 12>
| 13> # 	18175
| 14> * xyz 0 1
| 15> 		C   -1.201328  -0.379691  -0.086360
| 16> 		O   -1.929545  -0.823963  -0.830551
| 17> 		C    0.036251   0.419194  -0.306736
| 18> 		C    1.246603  -0.017286   0.156345
| 19> 		H   -1.523013  -0.468307   1.104983
| 20> 		H   -0.053801   1.294755  -0.863913
| 21> 		H    1.424851  -0.767855   0.753753
| 22> 		H    1.967297   0.680547   0.087661
| 23> *
| 24>
| 25>                          ****END OF INPUT****

CARTESIAN COORDINATES (ANGSTROEM)
---------------------------------
  C     -1.201328   -0.379691   -0.086360
  O     -1.929545   -0.823963   -0.830551
  C      0.036251    0.419194   -0.306736
  C      1.246603   -0.017286    0.156345
  H     -1.523013   -0.468307    1.104983
  H     -0.053801    1.294755   -0.863913
  H      1.424851   -0.767855    0.753753
  H      1.967297    0.680547    0.087661

 Total Charge           Charge          ....    0
 Multiplicity           Mult            ....    1
 Number of Electrons    NEL             ....   30
 Basis Dimension        Dim             ....   24

ORBITAL ENERGIES
----------------

  NO   OCC          E(Eh)            E(eV)
   0   2.0000     -20.402164      -555.1711
   1   2.0000     -11.320897      -308.0573
   2   2.0000     -11.204430      -304.8880
   3   2.0000     -11.191855      -304.5459
   4   2.0000      -1.470157       -40.0050
   5   2.0000      -1.088311       -29.6145
   6   2.0000      -0.897394       -24.4193
   7   2.0000      -0.772985       -21.0340
   8   2.0000      -0.698336       -19.0027
   9   2.0000      -0.659548       -17.9472
  10   2.0000      -0.625853       -17.0303
  11   2.0000      -0.585512       -15.9326
  12   2.0000      -0.549881       -14.9630
  13   2.0000      -0.412315       -11.2197
  14   2.0000      -0.387968       -10.5572
  15   0.0000       0.156483         4.2581
  16   0.0000       0.251356         6.8397
  17   0.0000       0.521793        14.1987
  18   0.0000       0.632993        17.2246
  19   0.0000       0.676471        18.4077

MULLIKEN ATOMIC CHARGES
-----------------------
   0 C :    0.212255
   1 O :   -0.361491
   2 C :   -0.149161
   3 C :   -0.269941
   4 H :    0.119874
   5 H :    0.157513
   6 H :    0.144724
   7 H :    0.146227
Sum of atomic charges:    0.0000000

LOEWDIN ATOMIC CHARGES
----------------------
   0 C :    0.156712
   1 O :   -0.235053
   2 C :   -0.100181
   3 C :   -0.161856
   4 H :    0.064957
   5 H :    0.099229
   6 H :    0.086055
   7 H :    0.090137

  Mayer bond orders larger than 0.100000
B(  0-C ,  1-O ) :   1.9563 B(  0-C ,  2-C ) :   0.9814 B(  0-C ,  4-H ) :   0.8904
B(  2-C ,  3-C ) :   1.9799 B(  2-C ,  5-H ) :   0.9549 B(  3-C ,  6-H ) :   0.9703
B(  3-C ,  7-H ) :   0.9669

-----------------------------------------------------------------------------
         ABSORPTION SPECTRUM VIA TRANSITION ELECTRIC DIPOLE MOMENTS
-----------------------------------------------------------------------------
State   Energy    Wavelength  fosc         T2        TX        TY        TZ
        (cm-1)      (nm)                 (au**2)    (au)      (au)      (au)
-----------------------------------------------------------------------------
   1   38017.2    263.0   0.000019922   0.00017   0.00652   0.01048  -0.00449

Dispersion correction           -0.025228395
FINAL SINGLE POINT ENERGY      -189.265319197265

DIPOLE MOMENT
-------------
                                X             Y             Z
Electronic contribution:     -2.91831      -1.03528      -1.41831
Nuclear contribution   :      3.56031       1.49913       2.01399
                        -----------------------------------------
Total Dipole Moment    :      0.64200       0.46385       0.59569
                        -----------------------------------------
Magnitude (a.u.)       :      0.99104
Magnitude (Debye)      :      2.51903

Rotational constants in cm-1:     1.284399     0.157202     0.151162
Rotational constants in MHz : 38505.319039  4712.793272  4531.709978

                             ****ORCA TERMINATED NORMALLY****
TOTAL RUN TIME: 0 days 0 hours 0 minutes 11 seconds 964 msec
