                         Program Version 5.0.3 -  RELEASE  -
|  1> ! B3LYP cc-pVDZ
|  2> !TightSCF
|  3> %scf
|  4>  ConvForced true
|  5>  convergence tight
|  6>  MaxIter 500
|  7> end
|  8>
|  9> %tddft
| 10>  nroots 1
| 11> end
| 12>
| 13> # 	28243
| 14> * xyz 0 1
| 15> 		C   -0.534102  -0.405397  -0.021906
| 16> 		O   -0.603549  -1.676459  -0.007015
| 17> 		C    0.633684   0.433148  -0.028445
| 18> 		C    1.826115  -0.132176   0.067177
| 19> 		H   -1.444975   0.146680   0.286343
| 20> 		H    0.526114   1.566955   0.006876
| 21> 		H    1.997059  -1.174458  -0.058439
| 22> 		H    2.564485   0.578946  -0.345624
| 23> *
| 24>
| 25>                          ****END OF INPUT****

CARTESIAN COORDINATES (ANGSTROEM)
---------------------------------
  C     -0.534102   -0.405397   -0.021906
  O     -0.603549   -1.676459   -0.007015
  C      0.633684    0.433148   -0.028445
  C      1.826115   -0.132176    0.067177
  H     -1.444975    0.146680    0.286343
  H      0.526114    1.566955    0.006876
  H      1.997059   -1.174458   -0.058439
  H      2.564485    0.578946   -0.345624

 Total Charge           Charge          ....    0
 Multiplicity           Mult            ....    1
 Number of Electrons    NEL             ....   30
 Basis Dimension        Dim             ....   76

ORBITAL ENERGIES
----------------

  NO   OCC          E(Eh)            E(eV)
   0   2.0000     -19.140229      -520.8321
   1   2.0000     -10.274520      -279.5839
   2   2.0000     -10.213324      -277.9187
   3   2.0000     -10.211658      -277.8734
   4   2.0000      -1.013150       -27.5692
   5   2.0000      -0.811232       -22.0747
   6   2.0000      -0.668248       -18.1839
   7   2.0000      -0.540579       -14.7099
   8   2.0000      -0.508040       -13.8245
   9   2.0000      -0.447066       -12.1653
  10   2.0000      -0.414141       -11.2694
  11   2.0000      -0.387681       -10.5493
  12   2.0000      -0.374880       -10.2010
  13   2.0000      -0.291592        -7.9346
  14   2.0000      -0.253875        -6.9083
  15   0.0000      -0.088180        -2.3995
  16   0.0000       0.048600         1.3225
  17   0.0000       0.055762         1.5174
  18   0.0000       0.095036         2.5861
  19   0.0000       0.122697         3.3387

MULLIKEN ATOMIC CHARGES
-----------------------
   0 C :    0.197749
   1 O :   -0.237453
   2 C :   -0.128088
   3 C :    0.083959
   4 H :   -0.013253
   5 H :    0.020420
   6 H :    0.037804
   7 H :    0.038861
Sum of atomic charges:   -0.0000000

LOEWDIN ATOMIC CHARGES
----------------------
   0 C :   -0.007197
   1 O :   -0.058049
   2 C :   -0.079987
   3 C :    0.028141
   4 H :   -0.001726
   5 H :    0.046218
   6 H :    0.028932
   7 H :    0.043667

  Mayer bond orders larger than 0.100000
B(  0-C ,  1-O ) :   2.1151 B(  0-C ,  2-C ) :   1.0991 B(  0-C ,  4-H ) :   0.9259
B(  1-O ,  3-C ) :   0.1023 B(  2-C ,  3-C ) :   1.9320 B(  2-C ,  5-H ) :   0.9392
B(  3-C ,  6-H ) :   0.9416 B(  3-C ,  7-H ) :   0.9372

-----------------------------------------------------------------------------
         ABSORPTION SPECTRUM VIA TRANSITION ELECTRIC DIPOLE MOMENTS
-----------------------------------------------------------------------------
State   Energy    Wavelength  fosc         T2        TX        TY        TZ
        (cm-1)      (nm)                 (au**2)    (au)      (au)      (au)
-----------------------------------------------------------------------------
   1   23523.4    425.1   0.000485014   0.00679  -0.06090  -0.01245  -0.05408

FINAL SINGLE POINT ENERGY      -191.673695649797

DIPOLE MOMENT
-------------
                                X             Y             Z
Electronic contribution:     -1.79335      -1.83394       0.03196
Nuclear contribution   :      2.25640       2.83516      -0.10263
                        -----------------------------------------
Total Dipole Moment    :      0.46304       1.00123      -0.07066
                        -----------------------------------------
Magnitude (a.u.)       :      1.10538
Magnitude (Debye)      :      2.80964

Rotational constants in cm-1:     0.752775     0.208754     0.164314
Rotational constants in MHz : 22567.613837  6258.272804  4926.002565

                             ****ORCA TERMINATED NORMALLY****
TOTAL RUN TIME: 0 days 0 hours 3 minutes 20 seconds 838 msec
