                         Program Version 5.0.3 -  RELEASE  -
|  1> ! B3LYP cc-pVDZ
|  2> !TightSCF
|  3> %scf
|  4>  ConvForced true
|  5>  convergence tight
|  6>  MaxIter 500
|  7> end
|  8>
|  9> %tddft
| 10>  nroots 1
| 11> end
| 12>
| 13> # 	6437
| 14> * xyz 0 1
| 15> 		C   -1.185071  -0.379018   0.051345
| 16> 		O   -2.105957  -0.512432   0.748830
| 17> 		C   -0.055822   0.465327   0.175513
| 18> 		C    1.218819   0.075804  -0.280676
| 19> 		H   -1.132712  -0.856091  -0.694775
| 20> 		H   -0.104545   1.332132   0.916766
| 21> 		H    1.356646  -0.790865  -0.765230
| 22> 		H    2.015935   0.758183  -0.201661
| 23> *
| 24>
| 25>                          ****END OF INPUT****

CARTESIAN COORDINATES (ANGSTROEM)
---------------------------------
  C     -1.185071   -0.379018    0.051345
  O     -2.105957   -0.512432    0.748830
  C     -0.055822    0.465327    0.175513
  C      1.218819    0.075804   -0.280676
  H     -1.132712   -0.856091   -0.694775
  H     -0.104545    1.332132    0.916766
  H      1.356646   -0.790865   -0.765230
  H      2.015935    0.758183   -0.201661

 Total Charge           Charge          ....    0
 Multiplicity           Mult            ....    1
 Number of Electrons    NEL             ....   30
 Basis Dimension        Dim             ....   76

ORBITAL ENERGIES
----------------

  NO   OCC          E(Eh)            E(eV)
   0   2.0000     -19.128107      -520.5023
   1   2.0000     -10.242333      -278.7081
   2   2.0000     -10.217506      -278.0325
   3   2.0000     -10.210906      -277.8529
   4   2.0000      -1.067628       -29.0516
   5   2.0000      -0.802097       -21.8262
   6   2.0000      -0.676949       -18.4207
   7   2.0000      -0.595544       -16.2056
   8   2.0000      -0.496260       -13.5039
   9   2.0000      -0.469345       -12.7715
  10   2.0000      -0.429927       -11.6989
  11   2.0000      -0.408677       -11.1207
  12   2.0000      -0.390927       -10.6377
  13   2.0000      -0.284127        -7.7315
  14   2.0000      -0.249756        -6.7962
  15   0.0000      -0.071898        -1.9564
  16   0.0000       0.048981         1.3328
  17   0.0000       0.083050         2.2599
  18   0.0000       0.092065         2.5052
  19   0.0000       0.135513         3.6875

MULLIKEN ATOMIC CHARGES
-----------------------
   0 C :    0.327182
   1 O :   -0.171410
   2 C :   -0.166971
   3 C :    0.097391
   4 H :   -0.133156
   5 H :    0.018061
   6 H :   -0.002187
   7 H :    0.031091
Sum of atomic charges:   -0.0000000

LOEWDIN ATOMIC CHARGES
----------------------
   0 C :   -0.071901
   1 O :    0.056579
   2 C :   -0.037746
   3 C :    0.041651
   4 H :   -0.057666
   5 H :    0.040136
   6 H :    0.002217
   7 H :    0.026731

  Mayer bond orders larger than 0.100000
B(  0-C ,  1-O ) :   2.2301 B(  0-C ,  2-C ) :   1.0940 B(  0-C ,  4-H ) :   0.9233
B(  2-C ,  3-C ) :   1.9278 B(  2-C ,  5-H ) :   0.9327 B(  3-C ,  6-H ) :   0.9543
B(  3-C ,  7-H ) :   0.9507

-----------------------------------------------------------------------------
         ABSORPTION SPECTRUM VIA TRANSITION ELECTRIC DIPOLE MOMENTS
-----------------------------------------------------------------------------
State   Energy    Wavelength  fosc         T2        TX        TY        TZ
        (cm-1)      (nm)                 (au**2)    (au)      (au)      (au)
-----------------------------------------------------------------------------
   1   27144.4    368.4   0.000581105   0.00705   0.07792   0.02949  -0.01034

FINAL SINGLE POINT ENERGY      -191.610127207276

DIPOLE MOMENT
-------------
                                X             Y             Z
Electronic contribution:     -3.09437      -0.63884       0.88569
Nuclear contribution   :      4.10952       0.79842      -1.39897
                        -----------------------------------------
Total Dipole Moment    :      1.01515       0.15958      -0.51328
                        -----------------------------------------
Magnitude (a.u.)       :      1.14867
Magnitude (Debye)      :      2.91969

Rotational constants in cm-1:     1.617559     0.156194     0.145925
Rotational constants in MHz : 48493.212747  4682.584675  4374.716732

                             ****ORCA TERMINATED NORMALLY****
TOTAL RUN TIME: 0 days 0 hours 3 minutes 21 seconds 76 msec
