                         Program Version 5.0.3 -  RELEASE  -
|  1> ! B3LYP cc-pVDZ
|  2> !TightSCF
|  3> %scf
|  4>  ConvForced true
|  5>  convergence tight
|  6>  MaxIter 500
|  7> end
|  8>
|  9> %tddft
| 10>  nroots 1
| 11> end
| 12>
| 13> # 	17404
| 14> * xyz 0 1
| 15> 		C   -1.236101  -0.316555  -0.005320
| 16> 		O   -1.255890  -1.463464  -0.258254
| 17> 		C   -0.048560   0.485488  -0.118795
| 18> 		C    1.276995  -0.045341   0.056560
| 19> 		H   -2.065116   0.299667   0.214475
| 20> 		H   -0.107367   1.595053  -0.170613
| 21> 		H    1.439311  -1.094088   0.167930
| 22> 		H    2.043023   0.542045   0.053926
| 23> *
| 24>
| 25>                          ****END OF INPUT****

CARTESIAN COORDINATES (ANGSTROEM)
---------------------------------
  C     -1.236101   -0.316555   -0.005320
  O     -1.255890   -1.463464   -0.258254
  C     -0.048560    0.485488   -0.118795
  C      1.276995   -0.045341    0.056560
  H     -2.065116    0.299667    0.214475
  H     -0.107367    1.595053   -0.170613
  H      1.439311   -1.094088    0.167930
  H      2.043023    0.542045    0.053926

 Total Charge           Charge          ....    0
 Multiplicity           Mult            ....    1
 Number of Electrons    NEL             ....   30
 Basis Dimension        Dim             ....   76

ORBITAL ENERGIES
----------------

  NO   OCC          E(Eh)            E(eV)
   0   2.0000     -19.134280      -520.6702
   1   2.0000     -10.263840      -279.2933
   2   2.0000     -10.210920      -277.8533
   3   2.0000     -10.208711      -277.7932
   4   2.0000      -1.064773       -28.9740
   5   2.0000      -0.781583       -21.2679
   6   2.0000      -0.676674       -18.4132
   7   2.0000      -0.553913       -15.0727
   8   2.0000      -0.509305       -13.8589
   9   2.0000      -0.448024       -12.1913
  10   2.0000      -0.434761       -11.8304
  11   2.0000      -0.406811       -11.0699
  12   2.0000      -0.387150       -10.5349
  13   2.0000      -0.273742        -7.4489
  14   2.0000      -0.254343        -6.9210
  15   0.0000      -0.074361        -2.0235
  16   0.0000       0.051444         1.3999
  17   0.0000       0.077705         2.1145
  18   0.0000       0.100144         2.7251
  19   0.0000       0.128233         3.4894

MULLIKEN ATOMIC CHARGES
-----------------------
   0 C :    0.225506
   1 O :   -0.167367
   2 C :   -0.160882
   3 C :    0.125912
   4 H :   -0.043815
   5 H :    0.001117
   6 H :    0.031876
   7 H :   -0.012346
Sum of atomic charges:   -0.0000000

LOEWDIN ATOMIC CHARGES
----------------------
   0 C :   -0.074952
   1 O :    0.035169
   2 C :   -0.061094
   3 C :    0.067543
   4 H :   -0.014338
   5 H :    0.030836
   6 H :    0.027624
   7 H :   -0.010790

  Mayer bond orders larger than 0.100000
B(  0-C ,  1-O ) :   2.2243 B(  0-C ,  2-C ) :   1.0760 B(  0-C ,  4-H ) :   0.9165
B(  2-C ,  3-C ) :   1.9379 B(  2-C ,  5-H ) :   0.9395 B(  3-C ,  6-H ) :   0.9571
B(  3-C ,  7-H ) :   0.9499

-----------------------------------------------------------------------------
         ABSORPTION SPECTRUM VIA TRANSITION ELECTRIC DIPOLE MOMENTS
-----------------------------------------------------------------------------
State   Energy    Wavelength  fosc         T2        TX        TY        TZ
        (cm-1)      (nm)                 (au**2)    (au)      (au)      (au)
-----------------------------------------------------------------------------
   1   27423.0    364.7   0.000054366   0.00065  -0.02445  -0.00735   0.00101

FINAL SINGLE POINT ENERGY      -191.651645304392

DIPOLE MOMENT
-------------
                                X             Y             Z
Electronic contribution:     -2.04527      -1.78594      -0.35539
Nuclear contribution   :      2.47801       2.62073       0.55966
                        -----------------------------------------
Total Dipole Moment    :      0.43273       0.83479       0.20427
                        -----------------------------------------
Magnitude (a.u.)       :      0.96222
Magnitude (Debye)      :      2.44577

Rotational constants in cm-1:     0.765148     0.205742     0.163987
Rotational constants in MHz : 22938.573821  6167.999585  4916.191883

                             ****ORCA TERMINATED NORMALLY****
TOTAL RUN TIME: 0 days 0 hours 3 minutes 27 seconds 768 msec
