                         Program Version 5.0.3 -  RELEASE  -
|  1> ! B3LYP cc-pVDZ
|  2> !TightSCF
|  3> %scf
|  4>  ConvForced true
|  5>  convergence tight
|  6>  MaxIter 500
|  7> end
|  8>
|  9> %tddft
| 10>  nroots 1
| 11> end
| 12>
| 13> # 	8763
| 14> * xyz 0 1
| 15> 		C   -1.158608  -0.337429  -0.038216
| 16> 		O   -1.205627  -1.452824  -0.261887
| 17> 		C   -0.006910   0.539469  -0.093365
| 18> 		C    1.209222  -0.010879   0.018363
| 19> 		H   -2.138698   0.261544   0.292812
| 20> 		H   -0.074337   1.611178  -0.084043
| 21> 		H    1.313538  -1.166050   0.301190
| 22> 		H    2.122962   0.530187  -0.103345
| 23> *
| 24>
| 25>                          ****END OF INPUT****

CARTESIAN COORDINATES (ANGSTROEM)
---------------------------------
  C     -1.158608   -0.337429   -0.038216
  O     -1.205627   -1.452824   -0.261887
  C     -0.006910    0.539469   -0.093365
  C      1.209222   -0.010879    0.018363
  H     -2.138698    0.261544    0.292812
  H     -0.074337    1.611178   -0.084043
  H      1.313538   -1.166050    0.301190
  H      2.122962    0.530187   -0.103345

 Total Charge           Charge          ....    0
 Multiplicity           Mult            ....    1
 Number of Electrons    NEL             ....   30
 Basis Dimension        Dim             ....   76

ORBITAL ENERGIES
----------------

  NO   OCC          E(Eh)            E(eV)
   0   2.0000     -19.140620      -520.8428
   1   2.0000     -10.272672      -279.5336
   2   2.0000     -10.219695      -278.0920
   3   2.0000     -10.199940      -277.5545
   4   2.0000      -1.090726       -29.6802
   5   2.0000      -0.799184       -21.7469
   6   2.0000      -0.649612       -17.6768
   7   2.0000      -0.532691       -14.4953
   8   2.0000      -0.515146       -14.0178
   9   2.0000      -0.454921       -12.3790
  10   2.0000      -0.438025       -11.9193
  11   2.0000      -0.413025       -11.2390
  12   2.0000      -0.380555       -10.3554
  13   2.0000      -0.289358        -7.8738
  14   2.0000      -0.252840        -6.8801
  15   0.0000      -0.061290        -1.6678
  16   0.0000       0.064120         1.7448
  17   0.0000       0.071003         1.9321
  18   0.0000       0.083107         2.2615
  19   0.0000       0.119434         3.2500

MULLIKEN ATOMIC CHARGES
-----------------------
   0 C :    0.151698
   1 O :   -0.119000
   2 C :   -0.083205
   3 C :    0.027775
   4 H :   -0.055116
   5 H :   -0.008244
   6 H :    0.059079
   7 H :    0.027013
Sum of atomic charges:   -0.0000000

LOEWDIN ATOMIC CHARGES
----------------------
   0 C :   -0.093794
   1 O :    0.073668
   2 C :   -0.083994
   3 C :    0.023846
   4 H :   -0.023758
   5 H :    0.030149
   6 H :    0.051410
   7 H :    0.022472

  Mayer bond orders larger than 0.100000
B(  0-C ,  1-O ) :   2.2883 B(  0-C ,  2-C ) :   1.0356 B(  0-C ,  4-H ) :   0.8876
B(  2-C ,  3-C ) :   1.9537 B(  2-C ,  5-H ) :   0.9449 B(  3-C ,  6-H ) :   0.9381
B(  3-C ,  7-H ) :   0.9444

-----------------------------------------------------------------------------
         ABSORPTION SPECTRUM VIA TRANSITION ELECTRIC DIPOLE MOMENTS
-----------------------------------------------------------------------------
State   Energy    Wavelength  fosc         T2        TX        TY        TZ
        (cm-1)      (nm)                 (au**2)    (au)      (au)      (au)
-----------------------------------------------------------------------------
   1   29984.5    333.5   0.000650865   0.00715  -0.07579  -0.00847  -0.03647

FINAL SINGLE POINT ENERGY      -191.650153739914

DIPOLE MOMENT
-------------
                                X             Y             Z
Electronic contribution:     -1.78062      -1.70785      -0.56270
Nuclear contribution   :      2.30805       2.46281       0.72300
                        -----------------------------------------
Total Dipole Moment    :      0.52744       0.75495       0.16030
                        -----------------------------------------
Magnitude (a.u.)       :      0.93480
Magnitude (Debye)      :      2.37606

Rotational constants in cm-1:     0.789694     0.214490     0.170672
Rotational constants in MHz : 23674.441838  6430.260483  5116.614091

                             ****ORCA TERMINATED NORMALLY****
TOTAL RUN TIME: 0 days 0 hours 3 minutes 25 seconds 312 msec
