                         Program Version 5.0.3 -  RELEASE  -
|  1> ! HF-3c
|  2> !TightSCF
|  3> %scf
|  4>  ConvForced true
|  5>  convergence tight
|  6>  MaxIter 500
|  7> end
|  8>
|  9> %tddft
| 10>  nroots 1
| 11> end
| 12>
| 13> # 	12971
| 14> * xyz 0 1
| 15> 		C   -1.159288  -0.384417   0.010560
| 16> 		O   -1.522216  -1.193287  -0.816639
| 17> 		C    0.129816   0.453985  -0.125633
| 18> 		C    1.250404   0.022100   0.193255
| 19> 		H   -2.044371   0.153560   0.842263
| 20> 		H   -0.188608   1.222254  -0.661295
| 21> 		H    1.441822  -0.840470   0.512419
| 22> 		H    2.092315   0.570281   0.029480
| 23> *
| 24>
| 25>                          ****END OF INPUT****

CARTESIAN COORDINATES (ANGSTROEM)
---------------------------------
  C     -1.159288   -0.384417    0.010560
  O     -1.522216   -1.193287   -0.816639
  C      0.129816    0.453985   -0.125633
  C      1.250404    0.022100    0.193255
  H     -2.044371    0.153560    0.842263
  H     -0.188608    1.222254   -0.661295
  H      1.441822   -0.840470    0.512419
  H      2.092315    0.570281    0.029480

 Total Charge           Charge          ....    0
 Multiplicity           Mult            ....    1
 Number of Electrons    NEL             ....   30
 Basis Dimension        Dim             ....   24

ORBITAL ENERGIES
----------------

  NO   OCC          E(Eh)            E(eV)
   0   2.0000     -20.374244      -554.4114
   1   2.0000     -11.292930      -307.2962
   2   2.0000     -11.217945      -305.2558
   3   2.0000     -11.205683      -304.9221
   4   2.0000      -1.402781       -38.1716
   5   2.0000      -1.123640       -30.5758
   6   2.0000      -0.903828       -24.5944
   7   2.0000      -0.765489       -20.8300
   8   2.0000      -0.698078       -18.9957
   9   2.0000      -0.669346       -18.2138
  10   2.0000      -0.614400       -16.7187
  11   2.0000      -0.562996       -15.3199
  12   2.0000      -0.509228       -13.8568
  13   2.0000      -0.443738       -12.0747
  14   2.0000      -0.388242       -10.5646
  15   0.0000       0.188693         5.1346
  16   0.0000       0.227154         6.1812
  17   0.0000       0.431285        11.7359
  18   0.0000       0.552304        15.0290
  19   0.0000       0.735776        20.0215

MULLIKEN ATOMIC CHARGES
-----------------------
   0 C :    0.206400
   1 O :   -0.355081
   2 C :   -0.159887
   3 C :   -0.288499
   4 H :    0.128967
   5 H :    0.159387
   6 H :    0.153383
   7 H :    0.155330
Sum of atomic charges:   -0.0000000

LOEWDIN ATOMIC CHARGES
----------------------
   0 C :    0.161305
   1 O :   -0.256841
   2 C :   -0.097224
   3 C :   -0.175258
   4 H :    0.083957
   5 H :    0.097059
   6 H :    0.089419
   7 H :    0.097584

  Mayer bond orders larger than 0.100000
B(  0-C ,  1-O ) :   1.9638 B(  0-C ,  2-C ) :   0.9568 B(  0-C ,  4-H ) :   0.8887
B(  2-C ,  3-C ) :   2.0144 B(  2-C ,  5-H ) :   0.9496 B(  3-C ,  6-H ) :   0.9606
B(  3-C ,  7-H ) :   0.9547

-----------------------------------------------------------------------------
         ABSORPTION SPECTRUM VIA TRANSITION ELECTRIC DIPOLE MOMENTS
-----------------------------------------------------------------------------
State   Energy    Wavelength  fosc         T2        TX        TY        TZ
        (cm-1)      (nm)                 (au**2)    (au)      (au)      (au)
-----------------------------------------------------------------------------
   1   34669.4    288.4   0.002008962   0.01908  -0.13400   0.01162   0.03142

Dispersion correction           -0.025566188
FINAL SINGLE POINT ENERGY      -189.248798800432

DIPOLE MOMENT
-------------
                                X             Y             Z
Electronic contribution:     -2.27499      -1.43520      -0.87601
Nuclear contribution   :      2.56833       2.15368       1.43202
                        -----------------------------------------
Total Dipole Moment    :      0.29334       0.71848       0.55601
                        -----------------------------------------
Magnitude (a.u.)       :      0.95468
Magnitude (Debye)      :      2.42660

Rotational constants in cm-1:     0.986662     0.171737     0.159466
Rotational constants in MHz : 29579.376682  5148.559347  4780.661509

                             ****ORCA TERMINATED NORMALLY****
TOTAL RUN TIME: 0 days 0 hours 0 minutes 15 seconds 653 msec
