                         Program Version 5.0.3 -  RELEASE  -
|  1> ! B3LYP cc-pVDZ
|  2> !TightSCF
|  3> %scf
|  4>  ConvForced true
|  5>  convergence tight
|  6>  MaxIter 500
|  7> end
|  8>
|  9> %tddft
| 10>  nroots 1
| 11> end
| 12>
| 13> # 	1998
| 14> * xyz 0 1
| 15> 		C   -1.129614  -0.345089  -0.096036
| 16> 		O   -2.212181  -0.113977  -0.764137
| 17> 		C    0.076866   0.457045  -0.285615
| 18> 		C    1.240244   0.039876   0.315719
| 19> 		H   -1.203862  -1.139544   0.766772
| 20> 		H   -0.019095   1.062133  -1.061791
| 21> 		H    1.211841  -0.473646   1.146201
| 22> 		H    2.125011   0.518356   0.006508
| 23> *
| 24>
| 25>                          ****END OF INPUT****

CARTESIAN COORDINATES (ANGSTROEM)
---------------------------------
  C     -1.129614   -0.345089   -0.096036
  O     -2.212181   -0.113977   -0.764137
  C      0.076866    0.457045   -0.285615
  C      1.240244    0.039876    0.315719
  H     -1.203862   -1.139544    0.766772
  H     -0.019095    1.062133   -1.061791
  H      1.211841   -0.473646    1.146201
  H      2.125011    0.518356    0.006508

 Total Charge           Charge          ....    0
 Multiplicity           Mult            ....    1
 Number of Electrons    NEL             ....   30
 Basis Dimension        Dim             ....   76

ORBITAL ENERGIES
----------------

  NO   OCC          E(Eh)            E(eV)
   0   2.0000     -19.134962      -520.6888
   1   2.0000     -10.280958      -279.7591
   2   2.0000     -10.217084      -278.0210
   3   2.0000     -10.210861      -277.8517
   4   2.0000      -1.000270       -27.2187
   5   2.0000      -0.810945       -22.0669
   6   2.0000      -0.665163       -18.1000
   7   2.0000      -0.580804       -15.8045
   8   2.0000      -0.484222       -13.1763
   9   2.0000      -0.473845       -12.8940
  10   2.0000      -0.414139       -11.2693
  11   2.0000      -0.399317       -10.8660
  12   2.0000      -0.377551       -10.2737
  13   2.0000      -0.287549        -7.8246
  14   2.0000      -0.251382        -6.8405
  15   0.0000      -0.083035        -2.2595
  16   0.0000       0.030159         0.8207
  17   0.0000       0.075747         2.0612
  18   0.0000       0.083761         2.2792
  19   0.0000       0.124508         3.3880

MULLIKEN ATOMIC CHARGES
-----------------------
   0 C :    0.132562
   1 O :   -0.260503
   2 C :    0.006336
   3 C :    0.135928
   4 H :    0.003830
   5 H :   -0.039708
   6 H :   -0.006526
   7 H :    0.028082
Sum of atomic charges:    0.0000000

LOEWDIN ATOMIC CHARGES
----------------------
   0 C :    0.004129
   1 O :   -0.082347
   2 C :   -0.018931
   3 C :    0.055167
   4 H :    0.009477
   5 H :    0.004813
   6 H :   -0.001099
   7 H :    0.028792

  Mayer bond orders larger than 0.100000
B(  0-C ,  1-O ) :   2.0430 B(  0-C ,  2-C ) :   1.1225 B(  0-C ,  4-H ) :   0.9226
B(  1-O ,  3-C ) :   0.1192 B(  2-C ,  3-C ) :   1.8960 B(  2-C ,  5-H ) :   0.9480
B(  3-C ,  6-H ) :   0.9453 B(  3-C ,  7-H ) :   0.9483

-----------------------------------------------------------------------------
         ABSORPTION SPECTRUM VIA TRANSITION ELECTRIC DIPOLE MOMENTS
-----------------------------------------------------------------------------
State   Energy    Wavelength  fosc         T2        TX        TY        TZ
        (cm-1)      (nm)                 (au**2)    (au)      (au)      (au)
-----------------------------------------------------------------------------
   1   24290.6    411.7   0.000255401   0.00346  -0.04658  -0.01554   0.03241

FINAL SINGLE POINT ENERGY      -191.662031015916

DIPOLE MOMENT
-------------
                                X             Y             Z
Electronic contribution:     -2.81006       0.02039      -1.09776
Nuclear contribution   :      4.03435      -0.03016       1.61003
                        -----------------------------------------
Total Dipole Moment    :      1.22429      -0.00977       0.51227
                        -----------------------------------------
Magnitude (a.u.)       :      1.32717
Magnitude (Debye)      :      3.37341

Rotational constants in cm-1:     1.555069     0.151767     0.138839
Rotational constants in MHz : 46619.781298  4549.870924  4162.299076

                             ****ORCA TERMINATED NORMALLY****
TOTAL RUN TIME: 0 days 0 hours 3 minutes 28 seconds 34 msec
