                         Program Version 5.0.3 -  RELEASE  -
|  1> ! HF-3c
|  2> !TightSCF
|  3> %scf
|  4>  ConvForced true
|  5>  convergence tight
|  6>  MaxIter 500
|  7> end
|  8>
|  9> %tddft
| 10>  nroots 1
| 11> end
| 12>
| 13> # 	14813
| 14> * xyz 0 1
| 15> 		C   -1.186581  -0.340893  -0.053719
| 16> 		O   -1.715063  -0.975476   0.876142
| 17> 		C   -0.048281   0.441791   0.129705
| 18> 		C    1.200988   0.081566  -0.144460
| 19> 		H   -1.825833  -0.201206  -1.131321
| 20> 		H   -0.138927   1.285204   0.897304
| 21> 		H    1.492815  -1.022834  -0.609754
| 22> 		H    2.214086   0.681505  -0.032069
| 23> *
| 24>
| 25>                          ****END OF INPUT****

CARTESIAN COORDINATES (ANGSTROEM)
---------------------------------
  C     -1.186581   -0.340893   -0.053719
  O     -1.715063   -0.975476    0.876142
  C     -0.048281    0.441791    0.129705
  C      1.200988    0.081566   -0.144460
  H     -1.825833   -0.201206   -1.131321
  H     -0.138927    1.285204    0.897304
  H      1.492815   -1.022834   -0.609754
  H      2.214086    0.681505   -0.032069

 Total Charge           Charge          ....    0
 Multiplicity           Mult            ....    1
 Number of Electrons    NEL             ....   30
 Basis Dimension        Dim             ....   24

ORBITAL ENERGIES
----------------

  NO   OCC          E(Eh)            E(eV)
   0   2.0000     -20.350987      -553.7785
   1   2.0000     -11.286960      -307.1338
   2   2.0000     -11.185769      -304.3802
   3   2.0000     -11.181610      -304.2671
   4   2.0000      -1.375089       -37.4181
   5   2.0000      -1.076452       -29.2917
   6   2.0000      -0.873430       -23.7672
   7   2.0000      -0.724948       -19.7268
   8   2.0000      -0.651127       -17.7181
   9   2.0000      -0.627146       -17.0655
  10   2.0000      -0.589314       -16.0360
  11   2.0000      -0.503324       -13.6962
  12   2.0000      -0.470812       -12.8115
  13   2.0000      -0.400898       -10.9090
  14   2.0000      -0.387330       -10.5398
  15   0.0000       0.168479         4.5846
  16   0.0000       0.223649         6.0858
  17   0.0000       0.490855        13.3568
  18   0.0000       0.511941        13.9306
  19   0.0000       0.563559        15.3352

MULLIKEN ATOMIC CHARGES
-----------------------
   0 C :    0.166052
   1 O :   -0.346866
   2 C :   -0.206614
   3 C :   -0.188486
   4 H :    0.137426
   5 H :    0.166580
   6 H :    0.130653
   7 H :    0.141257
Sum of atomic charges:   -0.0000000

LOEWDIN ATOMIC CHARGES
----------------------
   0 C :    0.146759
   1 O :   -0.263641
   2 C :   -0.163675
   3 C :   -0.113971
   4 H :    0.087245
   5 H :    0.118447
   6 H :    0.091374
   7 H :    0.097463

  Mayer bond orders larger than 0.100000
B(  0-C ,  1-O ) :   1.9202 B(  0-C ,  2-C ) :   1.0380 B(  0-C ,  4-H ) :   0.9009
B(  2-C ,  3-C ) :   1.9714 B(  2-C ,  5-H ) :   0.9272 B(  3-C ,  6-H ) :   0.9606
B(  3-C ,  7-H ) :   0.9612

-----------------------------------------------------------------------------
         ABSORPTION SPECTRUM VIA TRANSITION ELECTRIC DIPOLE MOMENTS
-----------------------------------------------------------------------------
State   Energy    Wavelength  fosc         T2        TX        TY        TZ
        (cm-1)      (nm)                 (au**2)    (au)      (au)      (au)
-----------------------------------------------------------------------------
   1   32070.2    311.8   0.000508722   0.00522  -0.06945   0.00291  -0.01975

Dispersion correction           -0.024731312
FINAL SINGLE POINT ENERGY      -189.276861439931

DIPOLE MOMENT
-------------
                                X             Y             Z
Electronic contribution:     -2.65062      -1.00593       0.98580
Nuclear contribution   :      3.36232       1.53351      -1.63611
                        -----------------------------------------
Total Dipole Moment    :      0.71170       0.52758      -0.65031
                        -----------------------------------------
Magnitude (a.u.)       :      1.09898
Magnitude (Debye)      :      2.79339

Rotational constants in cm-1:     1.009163     0.165109     0.161162
Rotational constants in MHz : 30253.952858  4949.828465  4831.517959

                             ****ORCA TERMINATED NORMALLY****
TOTAL RUN TIME: 0 days 0 hours 0 minutes 16 seconds 77 msec
