                         Program Version 5.0.3 -  RELEASE  -
|  1> ! HF-3c
|  2> !TightSCF
|  3> %scf
|  4>  ConvForced true
|  5>  convergence tight
|  6>  MaxIter 500
|  7> end
|  8>
|  9> %tddft
| 10>  nroots 1
| 11> end
| 12>
| 13> # 	27477
| 14> * xyz 0 1
| 15> 		C   -0.624947  -0.426210   0.030346
| 16> 		O   -0.619151  -1.667808  -0.010082
| 17> 		C    0.703828   0.368599  -0.034004
| 18> 		C    1.884751  -0.047495   0.026348
| 19> 		H   -1.649418   0.176655  -0.024765
| 20> 		H    0.315547   1.359288   0.031090
| 21> 		H    2.076409  -1.152851  -0.070753
| 22> 		H    2.628771   0.609762  -0.046003
| 23> *
| 24>
| 25>                          ****END OF INPUT****

CARTESIAN COORDINATES (ANGSTROEM)
---------------------------------
  C     -0.624947   -0.426210    0.030346
  O     -0.619151   -1.667808   -0.010082
  C      0.703828    0.368599   -0.034004
  C      1.884751   -0.047495    0.026348
  H     -1.649418    0.176655   -0.024765
  H      0.315547    1.359288    0.031090
  H      2.076409   -1.152851   -0.070753
  H      2.628771    0.609762   -0.046003

 Total Charge           Charge          ....    0
 Multiplicity           Mult            ....    1
 Number of Electrons    NEL             ....   30
 Basis Dimension        Dim             ....   24

ORBITAL ENERGIES
----------------

  NO   OCC          E(Eh)            E(eV)
   0   2.0000     -20.358534      -553.9839
   1   2.0000     -11.282532      -307.0133
   2   2.0000     -11.197455      -304.6982
   3   2.0000     -11.196651      -304.6764
   4   2.0000      -1.376936       -37.4683
   5   2.0000      -1.099482       -29.9184
   6   2.0000      -0.891310       -24.2538
   7   2.0000      -0.737977       -20.0814
   8   2.0000      -0.698997       -19.0207
   9   2.0000      -0.630788       -17.1646
  10   2.0000      -0.598185       -16.2774
  11   2.0000      -0.525310       -14.2944
  12   2.0000      -0.519065       -14.1245
  13   2.0000      -0.417911       -11.3719
  14   2.0000      -0.404225       -10.9995
  15   0.0000       0.140005         3.8097
  16   0.0000       0.311054         8.4642
  17   0.0000       0.460063        12.5190
  18   0.0000       0.599419        16.3110
  19   0.0000       0.666428        18.1344

MULLIKEN ATOMIC CHARGES
-----------------------
   0 C :    0.167522
   1 O :   -0.347514
   2 C :   -0.161630
   3 C :   -0.260788
   4 H :    0.141163
   5 H :    0.138980
   6 H :    0.171011
   7 H :    0.151257
Sum of atomic charges:    0.0000000

LOEWDIN ATOMIC CHARGES
----------------------
   0 C :    0.142816
   1 O :   -0.258975
   2 C :   -0.111628
   3 C :   -0.155899
   4 H :    0.086209
   5 H :    0.085668
   6 H :    0.118837
   7 H :    0.092971

  Mayer bond orders larger than 0.100000
B(  0-C ,  1-O ) :   1.9260 B(  0-C ,  2-C ) :   0.9876 B(  0-C ,  4-H ) :   0.9210
B(  2-C ,  3-C ) :   1.9897 B(  2-C ,  5-H ) :   0.9563 B(  3-C ,  6-H ) :   0.9475
B(  3-C ,  7-H ) :   0.9594

-----------------------------------------------------------------------------
         ABSORPTION SPECTRUM VIA TRANSITION ELECTRIC DIPOLE MOMENTS
-----------------------------------------------------------------------------
State   Energy    Wavelength  fosc         T2        TX        TY        TZ
        (cm-1)      (nm)                 (au**2)    (au)      (au)      (au)
-----------------------------------------------------------------------------
   1   30604.1    326.8   0.000179880   0.00193  -0.04398  -0.00078   0.00017

Dispersion correction           -0.025402741
FINAL SINGLE POINT ENERGY      -189.322672051716

DIPOLE MOMENT
-------------
                                X             Y             Z
Electronic contribution:     -1.89621      -1.78830       0.09031
Nuclear contribution   :      2.00611       2.71750      -0.10375
                        -----------------------------------------
Total Dipole Moment    :      0.10989       0.92920      -0.01344
                        -----------------------------------------
Magnitude (a.u.)       :      0.93577
Magnitude (Debye)      :      2.37855

Rotational constants in cm-1:     0.804539     0.194821     0.156969
Rotational constants in MHz : 24119.476876  5840.589109  4705.803638

                             ****ORCA TERMINATED NORMALLY****
TOTAL RUN TIME: 0 days 0 hours 0 minutes 12 seconds 635 msec
