                         Program Version 5.0.3 -  RELEASE  -
|  1> ! B3LYP cc-pVDZ
|  2> !TightSCF
|  3> %scf
|  4>  ConvForced true
|  5>  convergence tight
|  6>  MaxIter 500
|  7> end
|  8>
|  9> %tddft
| 10>  nroots 1
| 11> end
| 12>
| 13> # 	22492
| 14> * xyz 0 1
| 15> 		C   -0.623134  -0.445149   0.051136
| 16> 		O   -0.612076  -1.664218  -0.025192
| 17> 		C    0.670174   0.391072  -0.001989
| 18> 		C    1.873772  -0.064933  -0.004507
| 19> 		H   -1.481671   0.226699  -0.071839
| 20> 		H    0.486296   1.331270  -0.171062
| 21> 		H    1.983374  -1.033650   0.106183
| 22> 		H    2.778557   0.558253  -0.003958
| 23> *
| 24>
| 25>                          ****END OF INPUT****

CARTESIAN COORDINATES (ANGSTROEM)
---------------------------------
  C     -0.623134   -0.445149    0.051136
  O     -0.612076   -1.664218   -0.025192
  C      0.670174    0.391072   -0.001989
  C      1.873772   -0.064933   -0.004507
  H     -1.481671    0.226699   -0.071839
  H      0.486296    1.331270   -0.171062
  H      1.983374   -1.033650    0.106183
  H      2.778557    0.558253   -0.003958

 Total Charge           Charge          ....    0
 Multiplicity           Mult            ....    1
 Number of Electrons    NEL             ....   30
 Basis Dimension        Dim             ....   76

ORBITAL ENERGIES
----------------

  NO   OCC          E(Eh)            E(eV)
   0   2.0000     -19.146261      -520.9963
   1   2.0000     -10.281397      -279.7710
   2   2.0000     -10.191715      -277.3307
   3   2.0000     -10.184912      -277.1455
   4   2.0000      -1.043737       -28.4015
   5   2.0000      -0.803812       -21.8728
   6   2.0000      -0.663510       -18.0550
   7   2.0000      -0.560319       -15.2471
   8   2.0000      -0.507349       -13.8057
   9   2.0000      -0.451949       -12.2982
  10   2.0000      -0.433880       -11.8065
  11   2.0000      -0.396569       -10.7912
  12   2.0000      -0.385955       -10.5024
  13   2.0000      -0.293544        -7.9877
  14   2.0000      -0.257284        -7.0011
  15   0.0000      -0.066590        -1.8120
  16   0.0000       0.056385         1.5343
  17   0.0000       0.073130         1.9900
  18   0.0000       0.100564         2.7365
  19   0.0000       0.140968         3.8359

MULLIKEN ATOMIC CHARGES
-----------------------
   0 C :    0.185555
   1 O :   -0.191192
   2 C :   -0.084260
   3 C :    0.164128
   4 H :   -0.007083
   5 H :   -0.073578
   6 H :   -0.022789
   7 H :    0.029219
Sum of atomic charges:    0.0000000

LOEWDIN ATOMIC CHARGES
----------------------
   0 C :   -0.006620
   1 O :   -0.005558
   2 C :   -0.058064
   3 C :    0.038787
   4 H :   -0.003180
   5 H :   -0.006860
   6 H :    0.001429
   7 H :    0.040066

  Mayer bond orders larger than 0.100000
B(  0-C ,  1-O ) :   2.1921 B(  0-C ,  2-C ) :   1.0349 B(  0-C ,  4-H ) :   0.9110
B(  2-C ,  3-C ) :   2.0163 B(  2-C ,  5-H ) :   0.9444 B(  3-C ,  6-H ) :   0.9157
B(  3-C ,  7-H ) :   0.9412

-----------------------------------------------------------------------------
         ABSORPTION SPECTRUM VIA TRANSITION ELECTRIC DIPOLE MOMENTS
-----------------------------------------------------------------------------
State   Energy    Wavelength  fosc         T2        TX        TY        TZ
        (cm-1)      (nm)                 (au**2)    (au)      (au)      (au)
-----------------------------------------------------------------------------
   1   28415.3    351.9   0.000074436   0.00086  -0.01215  -0.01675   0.02084

FINAL SINGLE POINT ENERGY      -191.646624074561

DIPOLE MOMENT
-------------
                                X             Y             Z
Electronic contribution:     -2.07256      -1.90289       0.14607
Nuclear contribution   :      2.37721       2.80301      -0.13177
                        -----------------------------------------
Total Dipole Moment    :      0.30465       0.90012       0.01430
                        -----------------------------------------
Magnitude (a.u.)       :      0.95039
Magnitude (Debye)      :      2.41569

Rotational constants in cm-1:     0.821192     0.196685     0.158943
Rotational constants in MHz : 24618.727416  5896.476802  4764.977301

                             ****ORCA TERMINATED NORMALLY****
TOTAL RUN TIME: 0 days 0 hours 3 minutes 7 seconds 141 msec
