                         Program Version 5.0.3 -  RELEASE  -
|  1> ! HF-3c
|  2> !TightSCF
|  3> %scf
|  4>  ConvForced true
|  5>  convergence tight
|  6>  MaxIter 500
|  7> end
|  8>
|  9> %tddft
| 10>  nroots 1
| 11> end
| 12>
| 13> # 	12694
| 14> * xyz 0 1
| 15> 		C   -1.197911  -0.339312   0.002107
| 16> 		O   -1.781183  -0.957039  -0.910045
| 17> 		C   -0.013818   0.520197  -0.301250
| 18> 		C    1.189029   0.105339   0.198484
| 19> 		H   -1.324435  -0.405499   1.037374
| 20> 		H   -0.113802   1.411368  -0.860769
| 21> 		H    1.228916  -0.985224   0.704411
| 22> 		H    2.006101   0.597525   0.099348
| 23> *
| 24>
| 25>                          ****END OF INPUT****

CARTESIAN COORDINATES (ANGSTROEM)
---------------------------------
  C     -1.197911   -0.339312    0.002107
  O     -1.781183   -0.957039   -0.910045
  C     -0.013818    0.520197   -0.301250
  C      1.189029    0.105339    0.198484
  H     -1.324435   -0.405499    1.037374
  H     -0.113802    1.411368   -0.860769
  H      1.228916   -0.985224    0.704411
  H      2.006101    0.597525    0.099348

 Total Charge           Charge          ....    0
 Multiplicity           Mult            ....    1
 Number of Electrons    NEL             ....   30
 Basis Dimension        Dim             ....   24

ORBITAL ENERGIES
----------------

  NO   OCC          E(Eh)            E(eV)
   0   2.0000     -20.376659      -554.4771
   1   2.0000     -11.299329      -307.4704
   2   2.0000     -11.189570      -304.4837
   3   2.0000     -11.180997      -304.2504
   4   2.0000      -1.385957       -37.7138
   5   2.0000      -1.077199       -29.3121
   6   2.0000      -0.896286       -24.3892
   7   2.0000      -0.785438       -21.3729
   8   2.0000      -0.674492       -18.3539
   9   2.0000      -0.653115       -17.7722
  10   2.0000      -0.597023       -16.2458
  11   2.0000      -0.542666       -14.7667
  12   2.0000      -0.499836       -13.6012
  13   2.0000      -0.423563       -11.5257
  14   2.0000      -0.391079       -10.6418
  15   0.0000       0.150016         4.0821
  16   0.0000       0.226847         6.1728
  17   0.0000       0.521505        14.1909
  18   0.0000       0.616262        16.7693
  19   0.0000       0.679991        18.5035

MULLIKEN ATOMIC CHARGES
-----------------------
   0 C :    0.153236
   1 O :   -0.327117
   2 C :   -0.159743
   3 C :   -0.246317
   4 H :    0.148617
   5 H :    0.153536
   6 H :    0.142043
   7 H :    0.135745
Sum of atomic charges:    0.0000000

LOEWDIN ATOMIC CHARGES
----------------------
   0 C :    0.151378
   1 O :   -0.242544
   2 C :   -0.110410
   3 C :   -0.154093
   4 H :    0.079228
   5 H :    0.097647
   6 H :    0.101732
   7 H :    0.077062

  Mayer bond orders larger than 0.100000
B(  0-C ,  1-O ) :   1.9430 B(  0-C ,  2-C ) :   0.9977 B(  0-C ,  4-H ) :   0.9282
B(  2-C ,  3-C ) :   1.9825 B(  2-C ,  5-H ) :   0.9544 B(  3-C ,  6-H ) :   0.9635
B(  3-C ,  7-H ) :   0.9711

-----------------------------------------------------------------------------
         ABSORPTION SPECTRUM VIA TRANSITION ELECTRIC DIPOLE MOMENTS
-----------------------------------------------------------------------------
State   Energy    Wavelength  fosc         T2        TX        TY        TZ
        (cm-1)      (nm)                 (au**2)    (au)      (au)      (au)
-----------------------------------------------------------------------------
   1   31686.5    315.6   0.000044908   0.00047  -0.00969  -0.00564  -0.01846

Dispersion correction           -0.025580344
FINAL SINGLE POINT ENERGY      -189.305424977909

DIPOLE MOMENT
-------------
                                X             Y             Z
Electronic contribution:     -2.92870      -0.91918      -1.19461
Nuclear contribution   :      3.47097       1.32185       1.89955
                        -----------------------------------------
Total Dipole Moment    :      0.54227       0.40267       0.70495
                        -----------------------------------------
Magnitude (a.u.)       :      0.97630
Magnitude (Debye)      :      2.48155

Rotational constants in cm-1:     1.035217     0.163046     0.157638
Rotational constants in MHz : 31035.012608  4888.002851  4725.877487

                             ****ORCA TERMINATED NORMALLY****
TOTAL RUN TIME: 0 days 0 hours 0 minutes 11 seconds 764 msec
