                         Program Version 5.0.3 -  RELEASE  -
|  1> ! HF-3c
|  2> !TightSCF
|  3> %scf
|  4>  ConvForced true
|  5>  convergence tight
|  6>  MaxIter 500
|  7> end
|  8>
|  9> %tddft
| 10>  nroots 1
| 11> end
| 12>
| 13> # 	24042
| 14> * xyz 0 1
| 15> 		C   -0.584940  -0.426944  -0.032918
| 16> 		O   -0.573980  -1.633780   0.022465
| 17> 		C    0.631517   0.395449  -0.035302
| 18> 		C    1.830922  -0.116263  -0.001889
| 19> 		H   -1.514895   0.104991   0.089677
| 20> 		H    0.569375   1.575543   0.317096
| 21> 		H    1.882612  -1.164612  -0.026532
| 22> 		H    2.771128   0.423702   0.118007
| 23> *
| 24>
| 25>                          ****END OF INPUT****

CARTESIAN COORDINATES (ANGSTROEM)
---------------------------------
  C     -0.584940   -0.426944   -0.032918
  O     -0.573980   -1.633780    0.022465
  C      0.631517    0.395449   -0.035302
  C      1.830922   -0.116263   -0.001889
  H     -1.514895    0.104991    0.089677
  H      0.569375    1.575543    0.317096
  H      1.882612   -1.164612   -0.026532
  H      2.771128    0.423702    0.118007

 Total Charge           Charge          ....    0
 Multiplicity           Mult            ....    1
 Number of Electrons    NEL             ....   30
 Basis Dimension        Dim             ....   24

ORBITAL ENERGIES
----------------

  NO   OCC          E(Eh)            E(eV)
   0   2.0000     -20.369852      -554.2919
   1   2.0000     -11.300868      -307.5123
   2   2.0000     -11.187143      -304.4176
   3   2.0000     -11.185894      -304.3836
   4   2.0000      -1.408013       -38.3140
   5   2.0000      -1.083961       -29.4961
   6   2.0000      -0.895556       -24.3693
   7   2.0000      -0.747356       -20.3366
   8   2.0000      -0.698776       -19.0147
   9   2.0000      -0.615583       -16.7509
  10   2.0000      -0.601018       -16.3545
  11   2.0000      -0.548460       -14.9243
  12   2.0000      -0.503800       -13.7091
  13   2.0000      -0.421033       -11.4569
  14   2.0000      -0.396884       -10.7998
  15   0.0000       0.133192         3.6243
  16   0.0000       0.308433         8.3929
  17   0.0000       0.497865        13.5476
  18   0.0000       0.586146        15.9498
  19   0.0000       0.695555        18.9270

MULLIKEN ATOMIC CHARGES
-----------------------
   0 C :    0.157715
   1 O :   -0.348436
   2 C :   -0.161288
   3 C :   -0.234462
   4 H :    0.139134
   5 H :    0.144198
   6 H :    0.154217
   7 H :    0.148922
Sum of atomic charges:   -0.0000000

LOEWDIN ATOMIC CHARGES
----------------------
   0 C :    0.143662
   1 O :   -0.253616
   2 C :   -0.130247
   3 C :   -0.131296
   4 H :    0.072666
   5 H :    0.103226
   6 H :    0.097464
   7 H :    0.098142

  Mayer bond orders larger than 0.100000
B(  0-C ,  1-O ) :   1.9065 B(  0-C ,  2-C ) :   1.0246 B(  0-C ,  4-H ) :   0.9283
B(  2-C ,  3-C ) :   1.9532 B(  2-C ,  5-H ) :   0.9508 B(  3-C ,  6-H ) :   0.9574
B(  3-C ,  7-H ) :   0.9631

-----------------------------------------------------------------------------
         ABSORPTION SPECTRUM VIA TRANSITION ELECTRIC DIPOLE MOMENTS
-----------------------------------------------------------------------------
State   Energy    Wavelength  fosc         T2        TX        TY        TZ
        (cm-1)      (nm)                 (au**2)    (au)      (au)      (au)
-----------------------------------------------------------------------------
   1   32571.6    307.0   0.000065615   0.00066  -0.02357  -0.00102  -0.01033

Dispersion correction           -0.025906256
FINAL SINGLE POINT ENERGY      -189.323496219149

DIPOLE MOMENT
-------------
                                X             Y             Z
Electronic contribution:     -2.03919      -1.70989      -0.36232
Nuclear contribution   :      2.32099       2.66951       0.46646
                        -----------------------------------------
Total Dipole Moment    :      0.28180       0.95962       0.10414
                        -----------------------------------------
Magnitude (a.u.)       :      1.00555
Magnitude (Debye)      :      2.55590

Rotational constants in cm-1:     0.783135     0.210748     0.166586
Rotational constants in MHz : 23477.786059  6318.053013  4994.112902

                             ****ORCA TERMINATED NORMALLY****
TOTAL RUN TIME: 0 days 0 hours 0 minutes 11 seconds 105 msec
