                         Program Version 5.0.3 -  RELEASE  -
|  1> ! B3LYP cc-pVDZ
|  2> !TightSCF
|  3> %scf
|  4>  ConvForced true
|  5>  convergence tight
|  6>  MaxIter 500
|  7> end
|  8>
|  9> %tddft
| 10>  nroots 1
| 11> end
| 12>
| 13> # 	16031
| 14> * xyz 0 1
| 15> 		C   -1.166398  -0.328382   0.013870
| 16> 		O   -1.552472  -1.127574   0.743460
| 17> 		C   -0.004333   0.542764   0.159727
| 18> 		C    1.233849  -0.032341  -0.165120
| 19> 		H   -1.943273  -0.125016  -0.804488
| 20> 		H   -0.101470   1.670967   0.535120
| 21> 		H    1.353700  -1.171273  -0.388302
| 22> 		H    2.118383   0.599868  -0.114056
| 23> *
| 24>
| 25>                          ****END OF INPUT****

CARTESIAN COORDINATES (ANGSTROEM)
---------------------------------
  C     -1.166398   -0.328382    0.013870
  O     -1.552472   -1.127574    0.743460
  C     -0.004333    0.542764    0.159727
  C      1.233849   -0.032341   -0.165120
  H     -1.943273   -0.125016   -0.804488
  H     -0.101470    1.670967    0.535120
  H      1.353700   -1.171273   -0.388302
  H      2.118383    0.599868   -0.114056

 Total Charge           Charge          ....    0
 Multiplicity           Mult            ....    1
 Number of Electrons    NEL             ....   30
 Basis Dimension        Dim             ....   76

ORBITAL ENERGIES
----------------

  NO   OCC          E(Eh)            E(eV)
   0   2.0000     -19.138056      -520.7730
   1   2.0000     -10.273687      -279.5612
   2   2.0000     -10.222644      -278.1723
   3   2.0000     -10.221689      -278.1463
   4   2.0000      -1.085064       -29.5261
   5   2.0000      -0.783831       -21.3291
   6   2.0000      -0.641976       -17.4691
   7   2.0000      -0.540209       -14.6998
   8   2.0000      -0.499506       -13.5923
   9   2.0000      -0.452700       -12.3186
  10   2.0000      -0.443885       -12.0787
  11   2.0000      -0.395394       -10.7592
  12   2.0000      -0.386440       -10.5156
  13   2.0000      -0.277224        -7.5436
  14   2.0000      -0.247115        -6.7243
  15   0.0000      -0.032334        -0.8799
  16   0.0000      -0.014137        -0.3847
  17   0.0000       0.070537         1.9194
  18   0.0000       0.081820         2.2264
  19   0.0000       0.104058         2.8316

MULLIKEN ATOMIC CHARGES
-----------------------
   0 C :    0.156294
   1 O :   -0.128751
   2 C :   -0.124540
   3 C :   -0.017695
   4 H :   -0.037792
   5 H :    0.058242
   6 H :    0.058683
   7 H :    0.035558
Sum of atomic charges:   -0.0000000

LOEWDIN ATOMIC CHARGES
----------------------
   0 C :   -0.083170
   1 O :    0.063963
   2 C :   -0.068065
   3 C :   -0.029868
   4 H :   -0.015027
   5 H :    0.060228
   6 H :    0.046392
   7 H :    0.025548

  Mayer bond orders larger than 0.100000
B(  0-C ,  1-O ) :   2.2879 B(  0-C ,  2-C ) :   0.9741 B(  0-C ,  4-H ) :   0.9089
B(  2-C ,  3-C ) :   1.9865 B(  2-C ,  5-H ) :   0.9314 B(  3-C ,  6-H ) :   0.9478
B(  3-C ,  7-H ) :   0.9501

-----------------------------------------------------------------------------
         ABSORPTION SPECTRUM VIA TRANSITION ELECTRIC DIPOLE MOMENTS
-----------------------------------------------------------------------------
State   Energy    Wavelength  fosc         T2        TX        TY        TZ
        (cm-1)      (nm)                 (au**2)    (au)      (au)      (au)
-----------------------------------------------------------------------------
   1   34395.7    290.7   0.002485692   0.02379   0.14661   0.00792   0.04725

FINAL SINGLE POINT ENERGY      -191.613280932492

DIPOLE MOMENT
-------------
                                X             Y             Z
Electronic contribution:     -2.32688      -1.28984       1.10695
Nuclear contribution   :      2.83762       1.89696      -1.46690
                        -----------------------------------------
Total Dipole Moment    :      0.51074       0.60713      -0.35996
                        -----------------------------------------
Magnitude (a.u.)       :      0.87122
Magnitude (Debye)      :      2.21447

Rotational constants in cm-1:     0.883678     0.179947     0.162058
Rotational constants in MHz : 26492.006353  5394.687494  4858.365651

                             ****ORCA TERMINATED NORMALLY****
TOTAL RUN TIME: 0 days 0 hours 3 minutes 23 seconds 523 msec
