                         Program Version 5.0.3 -  RELEASE  -
|  1> ! HF-3c
|  2> !TightSCF
|  3> %scf
|  4>  ConvForced true
|  5>  convergence tight
|  6>  MaxIter 500
|  7> end
|  8>
|  9> %tddft
| 10>  nroots 1
| 11> end
| 12>
| 13> # 	19477
| 14> * xyz 0 1
| 15> 		C   -1.192055  -0.328123  -0.035166
| 16> 		O   -2.141871  -0.506058  -0.737357
| 17> 		C    0.042499   0.326510  -0.364024
| 18> 		C    1.162234   0.237816   0.351312
| 19> 		H   -1.080588  -0.861972   0.775329
| 20> 		H    0.125632   0.979374  -1.256512
| 21> 		H    1.140079  -0.571213   1.051929
| 22> 		H    1.935297   0.739134   0.200479
| 23> *
| 24>
| 25>                          ****END OF INPUT****

CARTESIAN COORDINATES (ANGSTROEM)
---------------------------------
  C     -1.192055   -0.328123   -0.035166
  O     -2.141871   -0.506058   -0.737357
  C      0.042499    0.326510   -0.364024
  C      1.162234    0.237816    0.351312
  H     -1.080588   -0.861972    0.775329
  H      0.125632    0.979374   -1.256512
  H      1.140079   -0.571213    1.051929
  H      1.935297    0.739134    0.200479

 Total Charge           Charge          ....    0
 Multiplicity           Mult            ....    1
 Number of Electrons    NEL             ....   30
 Basis Dimension        Dim             ....   24

ORBITAL ENERGIES
----------------

  NO   OCC          E(Eh)            E(eV)
   0   2.0000     -20.391002      -554.8674
   1   2.0000     -11.316442      -307.9360
   2   2.0000     -11.203619      -304.8660
   3   2.0000     -11.201622      -304.8116
   4   2.0000      -1.427563       -38.8460
   5   2.0000      -1.111599       -30.2482
   6   2.0000      -0.925995       -25.1976
   7   2.0000      -0.809432       -22.0258
   8   2.0000      -0.691941       -18.8287
   9   2.0000      -0.687681       -18.7128
  10   2.0000      -0.608124       -16.5479
  11   2.0000      -0.564078       -15.3494
  12   2.0000      -0.546338       -14.8666
  13   2.0000      -0.434306       -11.8181
  14   2.0000      -0.403363       -10.9761
  15   0.0000       0.110626         3.0103
  16   0.0000       0.302968         8.2442
  17   0.0000       0.595107        16.1937
  18   0.0000       0.643799        17.5187
  19   0.0000       0.719344        19.5743

MULLIKEN ATOMIC CHARGES
-----------------------
   0 C :    0.143785
   1 O :   -0.329125
   2 C :   -0.146490
   3 C :   -0.255830
   4 H :    0.137196
   5 H :    0.154998
   6 H :    0.148478
   7 H :    0.146989
Sum of atomic charges:    0.0000000

LOEWDIN ATOMIC CHARGES
----------------------
   0 C :    0.134764
   1 O :   -0.229495
   2 C :   -0.103527
   3 C :   -0.145526
   4 H :    0.061819
   5 H :    0.101025
   6 H :    0.096963
   7 H :    0.083976

  Mayer bond orders larger than 0.100000
B(  0-C ,  1-O ) :   1.9003 B(  0-C ,  2-C ) :   1.0415 B(  0-C ,  4-H ) :   0.9322
B(  2-C ,  3-C ) :   1.9380 B(  2-C ,  5-H ) :   0.9541 B(  3-C ,  6-H ) :   0.9631
B(  3-C ,  7-H ) :   0.9697

-----------------------------------------------------------------------------
         ABSORPTION SPECTRUM VIA TRANSITION ELECTRIC DIPOLE MOMENTS
-----------------------------------------------------------------------------
State   Energy    Wavelength  fosc         T2        TX        TY        TZ
        (cm-1)      (nm)                 (au**2)    (au)      (au)      (au)
-----------------------------------------------------------------------------
   1   31492.6    317.5   0.000075067   0.00078   0.00390  -0.01316   0.02442

Dispersion correction           -0.026389646
FINAL SINGLE POINT ENERGY      -189.296136617499

DIPOLE MOMENT
-------------
                                X             Y             Z
Electronic contribution:     -3.20600      -0.46501      -1.03027
Nuclear contribution   :      4.10658       0.59430       1.49180
                        -----------------------------------------
Total Dipole Moment    :      0.90058       0.12929       0.46153
                        -----------------------------------------
Magnitude (a.u.)       :      1.02019
Magnitude (Debye)      :      2.59311

Rotational constants in cm-1:     1.777883     0.156258     0.144541
Rotational constants in MHz : 53299.605055  4684.508487  4333.233267

                             ****ORCA TERMINATED NORMALLY****
TOTAL RUN TIME: 0 days 0 hours 0 minutes 10 seconds 924 msec
