                         Program Version 5.0.3 -  RELEASE  -
|  1> ! HF-3c
|  2> !TightSCF
|  3> %scf
|  4>  ConvForced true
|  5>  convergence tight
|  6>  MaxIter 500
|  7> end
|  8>
|  9> %tddft
| 10>  nroots 1
| 11> end
| 12>
| 13> # 	18865
| 14> * xyz 0 1
| 15> 		C   -1.227148  -0.419622  -0.011600
| 16> 		O   -1.367544  -1.586079   0.335284
| 17> 		C    0.021756   0.488136   0.122478
| 18> 		C    1.287643   0.059873  -0.056727
| 19> 		H   -2.193360   0.085382  -0.418988
| 20> 		H   -0.155111   1.486656   0.208371
| 21> 		H    1.594809  -0.838052  -0.193804
| 22> 		H    2.041565   0.739642   0.007296
| 23> *
| 24>
| 25>                          ****END OF INPUT****

CARTESIAN COORDINATES (ANGSTROEM)
---------------------------------
  C     -1.227148   -0.419622   -0.011600
  O     -1.367544   -1.586079    0.335284
  C      0.021756    0.488136    0.122478
  C      1.287643    0.059873   -0.056727
  H     -2.193360    0.085382   -0.418988
  H     -0.155111    1.486656    0.208371
  H      1.594809   -0.838052   -0.193804
  H      2.041565    0.739642    0.007296

 Total Charge           Charge          ....    0
 Multiplicity           Mult            ....    1
 Number of Electrons    NEL             ....   30
 Basis Dimension        Dim             ....   24

ORBITAL ENERGIES
----------------

  NO   OCC          E(Eh)            E(eV)
   0   2.0000     -20.370129      -554.2994
   1   2.0000     -11.295906      -307.3772
   2   2.0000     -11.207328      -304.9669
   3   2.0000     -11.201173      -304.7994
   4   2.0000      -1.392513       -37.8922
   5   2.0000      -1.086077       -29.5537
   6   2.0000      -0.899264       -24.4702
   7   2.0000      -0.774364       -21.0715
   8   2.0000      -0.702079       -19.1045
   9   2.0000      -0.632017       -17.1981
  10   2.0000      -0.610691       -16.6177
  11   2.0000      -0.562676       -15.3112
  12   2.0000      -0.522347       -14.2138
  13   2.0000      -0.411693       -11.2027
  14   2.0000      -0.404348       -11.0029
  15   0.0000       0.132083         3.5941
  16   0.0000       0.268188         7.2978
  17   0.0000       0.501353        13.6425
  18   0.0000       0.620376        16.8813
  19   0.0000       0.694630        18.9018

MULLIKEN ATOMIC CHARGES
-----------------------
   0 C :    0.173499
   1 O :   -0.345392
   2 C :   -0.156645
   3 C :   -0.255456
   4 H :    0.136193
   5 H :    0.147573
   6 H :    0.151608
   7 H :    0.148620
Sum of atomic charges:   -0.0000000

LOEWDIN ATOMIC CHARGES
----------------------
   0 C :    0.150606
   1 O :   -0.252929
   2 C :   -0.104326
   3 C :   -0.141494
   4 H :    0.078078
   5 H :    0.089014
   6 H :    0.088611
   7 H :    0.092440

  Mayer bond orders larger than 0.100000
B(  0-C ,  1-O ) :   1.9348 B(  0-C ,  2-C ) :   0.9926 B(  0-C ,  4-H ) :   0.9206
B(  2-C ,  3-C ) :   1.9689 B(  2-C ,  5-H ) :   0.9614 B(  3-C ,  6-H ) :   0.9674
B(  3-C ,  7-H ) :   0.9652

-----------------------------------------------------------------------------
         ABSORPTION SPECTRUM VIA TRANSITION ELECTRIC DIPOLE MOMENTS
-----------------------------------------------------------------------------
State   Energy    Wavelength  fosc         T2        TX        TY        TZ
        (cm-1)      (nm)                 (au**2)    (au)      (au)      (au)
-----------------------------------------------------------------------------
   1   32160.6    310.9   0.000356071   0.00364  -0.06028  -0.00342  -0.00007

Dispersion correction           -0.024786626
FINAL SINGLE POINT ENERGY      -189.316739372331

DIPOLE MOMENT
-------------
                                X             Y             Z
Electronic contribution:     -2.21783      -1.89696       0.45642
Nuclear contribution   :      2.50472       2.86086      -0.74490
                        -----------------------------------------
Total Dipole Moment    :      0.28689       0.96390      -0.28848
                        -----------------------------------------
Magnitude (a.u.)       :      1.04625
Magnitude (Debye)      :      2.65935

Rotational constants in cm-1:     0.852871     0.176432     0.148834
Rotational constants in MHz : 25568.437970  5289.304878  4461.930851

                             ****ORCA TERMINATED NORMALLY****
TOTAL RUN TIME: 0 days 0 hours 0 minutes 10 seconds 699 msec
