                         Program Version 5.0.3 -  RELEASE  -
|  1> ! HF-3c
|  2> !TightSCF
|  3> %scf
|  4>  ConvForced true
|  5>  convergence tight
|  6>  MaxIter 500
|  7> end
|  8>
|  9> %tddft
| 10>  nroots 1
| 11> end
| 12>
| 13> # 	26842
| 14> * xyz 0 1
| 15> 		C   -0.561537  -0.438310   0.025685
| 16> 		O   -0.587487  -1.648893  -0.027282
| 17> 		C    0.621385   0.405891  -0.062250
| 18> 		C    1.838763  -0.101541   0.032011
| 19> 		H   -1.408345   0.274331   0.410179
| 20> 		H    0.380176   1.578954  -0.099786
| 21> 		H    1.832352  -1.249962   0.123008
| 22> 		H    2.852868   0.427885   0.043596
| 23> *
| 24>
| 25>                          ****END OF INPUT****

CARTESIAN COORDINATES (ANGSTROEM)
---------------------------------
  C     -0.561537   -0.438310    0.025685
  O     -0.587487   -1.648893   -0.027282
  C      0.621385    0.405891   -0.062250
  C      1.838763   -0.101541    0.032011
  H     -1.408345    0.274331    0.410179
  H      0.380176    1.578954   -0.099786
  H      1.832352   -1.249962    0.123008
  H      2.852868    0.427885    0.043596

 Total Charge           Charge          ....    0
 Multiplicity           Mult            ....    1
 Number of Electrons    NEL             ....   30
 Basis Dimension        Dim             ....   24

ORBITAL ENERGIES
----------------

  NO   OCC          E(Eh)            E(eV)
   0   2.0000     -20.363431      -554.1171
   1   2.0000     -11.292688      -307.2897
   2   2.0000     -11.185776      -304.3804
   3   2.0000     -11.178604      -304.1853
   4   2.0000      -1.397641       -38.0318
   5   2.0000      -1.074259       -29.2321
   6   2.0000      -0.885123       -24.0854
   7   2.0000      -0.713368       -19.4117
   8   2.0000      -0.682607       -18.5747
   9   2.0000      -0.609652       -16.5895
  10   2.0000      -0.588520       -16.0145
  11   2.0000      -0.535606       -14.5746
  12   2.0000      -0.498531       -13.5657
  13   2.0000      -0.406067       -11.0496
  14   2.0000      -0.389735       -10.6052
  15   0.0000       0.136143         3.7046
  16   0.0000       0.315307         8.5799
  17   0.0000       0.498532        13.5658
  18   0.0000       0.584726        15.9112
  19   0.0000       0.594359        16.1733

MULLIKEN ATOMIC CHARGES
-----------------------
   0 C :    0.175469
   1 O :   -0.361099
   2 C :   -0.177968
   3 C :   -0.209018
   4 H :    0.129709
   5 H :    0.136173
   6 H :    0.156739
   7 H :    0.149996
Sum of atomic charges:   -0.0000000

LOEWDIN ATOMIC CHARGES
----------------------
   0 C :    0.152660
   1 O :   -0.266565
   2 C :   -0.146378
   3 C :   -0.116860
   4 H :    0.072645
   5 H :    0.093503
   6 H :    0.108134
   7 H :    0.102862

  Mayer bond orders larger than 0.100000
B(  0-C ,  1-O ) :   1.9046 B(  0-C ,  2-C ) :   1.0310 B(  0-C ,  4-H ) :   0.9123
B(  2-C ,  3-C ) :   1.9411 B(  2-C ,  5-H ) :   0.9539 B(  3-C ,  6-H ) :   0.9517
B(  3-C ,  7-H ) :   0.9612

-----------------------------------------------------------------------------
         ABSORPTION SPECTRUM VIA TRANSITION ELECTRIC DIPOLE MOMENTS
-----------------------------------------------------------------------------
State   Energy    Wavelength  fosc         T2        TX        TY        TZ
        (cm-1)      (nm)                 (au**2)    (au)      (au)      (au)
-----------------------------------------------------------------------------
   1   32900.0    304.0   0.000040197   0.00040   0.00332   0.00831   0.01795

Dispersion correction           -0.025772710
FINAL SINGLE POINT ENERGY      -189.318917241490

DIPOLE MOMENT
-------------
                                X             Y             Z
Electronic contribution:     -1.90074      -1.77836      -0.31883
Nuclear contribution   :      2.27374       2.75412       0.44780
                        -----------------------------------------
Total Dipole Moment    :      0.37300       0.97576       0.12897
                        -----------------------------------------
Magnitude (a.u.)       :      1.05255
Magnitude (Debye)      :      2.67537

Rotational constants in cm-1:     0.754749     0.209159     0.164654
Rotational constants in MHz : 22626.801942  6270.417616  4936.210375

                             ****ORCA TERMINATED NORMALLY****
TOTAL RUN TIME: 0 days 0 hours 0 minutes 12 seconds 632 msec
