                         Program Version 5.0.3 -  RELEASE  -
|  1> ! HF-3c
|  2> !TightSCF
|  3> %scf
|  4>  ConvForced true
|  5>  convergence tight
|  6>  MaxIter 500
|  7> end
|  8>
|  9> %tddft
| 10>  nroots 1
| 11> end
| 12>
| 13> # 	26601
| 14> * xyz 0 1
| 15> 		C   -0.596741  -0.416361  -0.021057
| 16> 		O   -0.588086  -1.694150   0.010808
| 17> 		C    0.623582   0.451106   0.007646
| 18> 		C    1.873061  -0.115818  -0.001835
| 19> 		H   -1.574243   0.226819   0.005556
| 20> 		H    0.277060   1.507491   0.048023
| 21> 		H    1.966751  -1.121642  -0.049433
| 22> 		H    2.962033   0.517482   0.009441
| 23> *
| 24>
| 25>                          ****END OF INPUT****

CARTESIAN COORDINATES (ANGSTROEM)
---------------------------------
  C     -0.596741   -0.416361   -0.021057
  O     -0.588086   -1.694150    0.010808
  C      0.623582    0.451106    0.007646
  C      1.873061   -0.115818   -0.001835
  H     -1.574243    0.226819    0.005556
  H      0.277060    1.507491    0.048023
  H      1.966751   -1.121642   -0.049433
  H      2.962033    0.517482    0.009441

 Total Charge           Charge          ....    0
 Multiplicity           Mult            ....    1
 Number of Electrons    NEL             ....   30
 Basis Dimension        Dim             ....   24

ORBITAL ENERGIES
----------------

  NO   OCC          E(Eh)            E(eV)
   0   2.0000     -20.338420      -553.4366
   1   2.0000     -11.272348      -306.7362
   2   2.0000     -11.194672      -304.6225
   3   2.0000     -11.184658      -304.3500
   4   2.0000      -1.344011       -36.5724
   5   2.0000      -1.059132       -28.8204
   6   2.0000      -0.885321       -24.0908
   7   2.0000      -0.732614       -19.9354
   8   2.0000      -0.663960       -18.0673
   9   2.0000      -0.610486       -16.6122
  10   2.0000      -0.558173       -15.1887
  11   2.0000      -0.516376       -14.0513
  12   2.0000      -0.506192       -13.7742
  13   2.0000      -0.402859       -10.9623
  14   2.0000      -0.375785       -10.2256
  15   0.0000       0.120254         3.2723
  16   0.0000       0.295105         8.0302
  17   0.0000       0.453094        12.3293
  18   0.0000       0.572906        15.5896
  19   0.0000       0.611705        16.6453

MULLIKEN ATOMIC CHARGES
-----------------------
   0 C :    0.153434
   1 O :   -0.352677
   2 C :   -0.177341
   3 C :   -0.202917
   4 H :    0.131969
   5 H :    0.140879
   6 H :    0.152903
   7 H :    0.153749
Sum of atomic charges:   -0.0000000

LOEWDIN ATOMIC CHARGES
----------------------
   0 C :    0.144151
   1 O :   -0.277704
   2 C :   -0.135271
   3 C :   -0.107485
   4 H :    0.077114
   5 H :    0.091854
   6 H :    0.092600
   7 H :    0.114740

  Mayer bond orders larger than 0.100000
B(  0-C ,  1-O ) :   1.8928 B(  0-C ,  2-C ) :   1.0379 B(  0-C ,  4-H ) :   0.9251
B(  2-C ,  3-C ) :   1.9299 B(  2-C ,  5-H ) :   0.9604 B(  3-C ,  6-H ) :   0.9625
B(  3-C ,  7-H ) :   0.9579

-----------------------------------------------------------------------------
         ABSORPTION SPECTRUM VIA TRANSITION ELECTRIC DIPOLE MOMENTS
-----------------------------------------------------------------------------
State   Energy    Wavelength  fosc         T2        TX        TY        TZ
        (cm-1)      (nm)                 (au**2)    (au)      (au)      (au)
-----------------------------------------------------------------------------
   1   29304.0    341.3   0.000006706   0.00008  -0.00554   0.00086   0.00663

Dispersion correction           -0.025028994
FINAL SINGLE POINT ENERGY      -189.321376738227

DIPOLE MOMENT
-------------
                                X             Y             Z
Electronic contribution:     -1.85861      -1.77787      -0.02469
Nuclear contribution   :      2.25118       2.84554       0.01267
                        -----------------------------------------
Total Dipole Moment    :      0.39256       1.06767      -0.01202
                        -----------------------------------------
Magnitude (a.u.)       :      1.13762
Magnitude (Debye)      :      2.89159

Rotational constants in cm-1:     0.699399     0.200197     0.155682
Rotational constants in MHz : 20967.448618  6001.751144  4667.222760

                             ****ORCA TERMINATED NORMALLY****
TOTAL RUN TIME: 0 days 0 hours 0 minutes 10 seconds 735 msec
