                         Program Version 5.0.3 -  RELEASE  -
|  1> ! HF-3c
|  2> !TightSCF
|  3> %scf
|  4>  ConvForced true
|  5>  convergence tight
|  6>  MaxIter 500
|  7> end
|  8>
|  9> %tddft
| 10>  nroots 1
| 11> end
| 12>
| 13> # 	10517
| 14> * xyz 0 1
| 15> 		C   -1.153602  -0.365665  -0.032496
| 16> 		O   -2.105031  -0.600386  -0.727913
| 17> 		C    0.011730   0.411000  -0.402721
| 18> 		C    1.255795   0.092952   0.340325
| 19> 		H   -1.138839  -0.524660   0.950026
| 20> 		H   -0.242549   0.981833  -1.140914
| 21> 		H    1.276639  -0.726243   0.966850
| 22> 		H    2.116702   0.728774   0.043067
| 23> *
| 24>
| 25>                          ****END OF INPUT****

CARTESIAN COORDINATES (ANGSTROEM)
---------------------------------
  C     -1.153602   -0.365665   -0.032496
  O     -2.105031   -0.600386   -0.727913
  C      0.011730    0.411000   -0.402721
  C      1.255795    0.092952    0.340325
  H     -1.138839   -0.524660    0.950026
  H     -0.242549    0.981833   -1.140914
  H      1.276639   -0.726243    0.966850
  H      2.116702    0.728774    0.043067

 Total Charge           Charge          ....    0
 Multiplicity           Mult            ....    1
 Number of Electrons    NEL             ....   30
 Basis Dimension        Dim             ....   24

ORBITAL ENERGIES
----------------

  NO   OCC          E(Eh)            E(eV)
   0   2.0000     -20.367968      -554.2406
   1   2.0000     -11.295004      -307.3527
   2   2.0000     -11.202945      -304.8476
   3   2.0000     -11.188880      -304.4649
   4   2.0000      -1.408592       -38.3297
   5   2.0000      -1.070855       -29.1394
   6   2.0000      -0.901387       -24.5280
   7   2.0000      -0.818486       -22.2721
   8   2.0000      -0.671030       -18.2597
   9   2.0000      -0.640035       -17.4163
  10   2.0000      -0.603257       -16.4155
  11   2.0000      -0.574666       -15.6374
  12   2.0000      -0.529071       -14.3968
  13   2.0000      -0.413821       -11.2606
  14   2.0000      -0.366504        -9.9731
  15   0.0000       0.103980         2.8294
  16   0.0000       0.268513         7.3066
  17   0.0000       0.588091        16.0028
  18   0.0000       0.605158        16.4672
  19   0.0000       0.653841        17.7919

MULLIKEN ATOMIC CHARGES
-----------------------
   0 C :    0.145883
   1 O :   -0.349533
   2 C :   -0.175593
   3 C :   -0.210891
   4 H :    0.132124
   5 H :    0.154206
   6 H :    0.148749
   7 H :    0.155057
Sum of atomic charges:   -0.0000000

LOEWDIN ATOMIC CHARGES
----------------------
   0 C :    0.136624
   1 O :   -0.253263
   2 C :   -0.122822
   3 C :   -0.108483
   4 H :    0.059930
   5 H :    0.090044
   6 H :    0.093243
   7 H :    0.104729

  Mayer bond orders larger than 0.100000
B(  0-C ,  1-O ) :   1.8925 B(  0-C ,  2-C ) :   1.0468 B(  0-C ,  4-H ) :   0.9326
B(  2-C ,  3-C ) :   1.9143 B(  2-C ,  5-H ) :   0.9642 B(  3-C ,  6-H ) :   0.9685
B(  3-C ,  7-H ) :   0.9668

-----------------------------------------------------------------------------
         ABSORPTION SPECTRUM VIA TRANSITION ELECTRIC DIPOLE MOMENTS
-----------------------------------------------------------------------------
State   Energy    Wavelength  fosc         T2        TX        TY        TZ
        (cm-1)      (nm)                 (au**2)    (au)      (au)      (au)
-----------------------------------------------------------------------------
   1   31845.5    314.0   0.000002683   0.00003  -0.00149  -0.00214   0.00458

Dispersion correction           -0.025824248
FINAL SINGLE POINT ENERGY      -189.274780027935

DIPOLE MOMENT
-------------
                                X             Y             Z
Electronic contribution:     -2.82643      -0.68250      -1.00195
Nuclear contribution   :      3.89138       0.92514       1.56134
                        -----------------------------------------
Total Dipole Moment    :      1.06495       0.24264       0.55939
                        -----------------------------------------
Magnitude (a.u.)       :      1.22715
Magnitude (Debye)      :      3.11918

Rotational constants in cm-1:     1.488402     0.152973     0.141672
Rotational constants in MHz : 44621.177701  4586.023652  4247.228696

                             ****ORCA TERMINATED NORMALLY****
TOTAL RUN TIME: 0 days 0 hours 0 minutes 13 seconds 495 msec
