                         Program Version 5.0.3 -  RELEASE  -
|  1> ! HF-3c
|  2> !TightSCF
|  3> %scf
|  4>  ConvForced true
|  5>  convergence tight
|  6>  MaxIter 500
|  7> end
|  8>
|  9> %tddft
| 10>  nroots 1
| 11> end
| 12>
| 13> # 	19994
| 14> * xyz 0 1
| 15> 		C   -1.268759  -0.291471   0.105910
| 16> 		O   -1.719144  -0.845969   0.979961
| 17> 		C   -0.006574   0.479872   0.113372
| 18> 		C    1.184236  -0.036451  -0.187788
| 19> 		H   -1.768377  -0.390700  -0.895097
| 20> 		H   -0.000909   1.531293   0.584502
| 21> 		H    1.335142  -1.040802  -0.588728
| 22> 		H    2.204979   0.572551  -0.161253
| 23> *
| 24>
| 25>                          ****END OF INPUT****

CARTESIAN COORDINATES (ANGSTROEM)
---------------------------------
  C     -1.268759   -0.291471    0.105910
  O     -1.719144   -0.845969    0.979961
  C     -0.006574    0.479872    0.113372
  C      1.184236   -0.036451   -0.187788
  H     -1.768377   -0.390700   -0.895097
  H     -0.000909    1.531293    0.584502
  H      1.335142   -1.040802   -0.588728
  H      2.204979    0.572551   -0.161253

 Total Charge           Charge          ....    0
 Multiplicity           Mult            ....    1
 Number of Electrons    NEL             ....   30
 Basis Dimension        Dim             ....   24

ORBITAL ENERGIES
----------------

  NO   OCC          E(Eh)            E(eV)
   0   2.0000     -20.402830      -555.1892
   1   2.0000     -11.324850      -308.1648
   2   2.0000     -11.183343      -304.3142
   3   2.0000     -11.176563      -304.1298
   4   2.0000      -1.474882       -40.1336
   5   2.0000      -1.068399       -29.0726
   6   2.0000      -0.872121       -23.7316
   7   2.0000      -0.764423       -20.8010
   8   2.0000      -0.691191       -18.8083
   9   2.0000      -0.638996       -17.3880
  10   2.0000      -0.618800       -16.8384
  11   2.0000      -0.548323       -14.9206
  12   2.0000      -0.517478       -14.0813
  13   2.0000      -0.406259       -11.0549
  14   2.0000      -0.395976       -10.7750
  15   0.0000       0.202356         5.5064
  16   0.0000       0.231605         6.3023
  17   0.0000       0.525624        14.3030
  18   0.0000       0.577568        15.7164
  19   0.0000       0.634273        17.2594

MULLIKEN ATOMIC CHARGES
-----------------------
   0 C :    0.195492
   1 O :   -0.355574
   2 C :   -0.172154
   3 C :   -0.225871
   4 H :    0.130655
   5 H :    0.154231
   6 H :    0.132491
   7 H :    0.140729
Sum of atomic charges:    0.0000000

LOEWDIN ATOMIC CHARGES
----------------------
   0 C :    0.153984
   1 O :   -0.229849
   2 C :   -0.136247
   3 C :   -0.142652
   4 H :    0.065319
   5 H :    0.107302
   6 H :    0.083829
   7 H :    0.098314

  Mayer bond orders larger than 0.100000
B(  0-C ,  1-O ) :   1.9540 B(  0-C ,  2-C ) :   0.9757 B(  0-C ,  4-H ) :   0.9059
B(  2-C ,  3-C ) :   2.0006 B(  2-C ,  5-H ) :   0.9437 B(  3-C ,  6-H ) :   0.9658
B(  3-C ,  7-H ) :   0.9603

-----------------------------------------------------------------------------
         ABSORPTION SPECTRUM VIA TRANSITION ELECTRIC DIPOLE MOMENTS
-----------------------------------------------------------------------------
State   Energy    Wavelength  fosc         T2        TX        TY        TZ
        (cm-1)      (nm)                 (au**2)    (au)      (au)      (au)
-----------------------------------------------------------------------------
   1   39353.3    254.1   0.000013703   0.00011   0.00739   0.00005   0.00775

Dispersion correction           -0.024856717
FINAL SINGLE POINT ENERGY      -189.280717086585

DIPOLE MOMENT
-------------
                                X             Y             Z
Electronic contribution:     -2.87066      -0.89236       1.34345
Nuclear contribution   :      3.43781       1.35960      -1.98768
                        -----------------------------------------
Total Dipole Moment    :      0.56715       0.46724      -0.64424
                        -----------------------------------------
Magnitude (a.u.)       :      0.97725
Magnitude (Debye)      :      2.48397

Rotational constants in cm-1:     1.064768     0.166687     0.160166
Rotational constants in MHz : 31920.926952  4997.144615  4801.642868

                             ****ORCA TERMINATED NORMALLY****
TOTAL RUN TIME: 0 days 0 hours 0 minutes 12 seconds 967 msec
