                         Program Version 5.0.3 -  RELEASE  -
|  1> ! B3LYP cc-pVDZ
|  2> !TightSCF
|  3> %scf
|  4>  ConvForced true
|  5>  convergence tight
|  6>  MaxIter 500
|  7> end
|  8>
|  9> %tddft
| 10>  nroots 1
| 11> end
| 12>
| 13> # 	14730
| 14> * xyz 0 1
| 15> 		C   -1.221871  -0.305076   0.062622
| 16> 		O   -1.725416  -0.918204   0.936005
| 17> 		C    0.031856   0.474411   0.195210
| 18> 		C    1.213500  -0.011294  -0.143167
| 19> 		H   -1.665534  -0.429196  -0.882364
| 20> 		H   -0.181000   1.452282   0.689277
| 21> 		H    1.308167  -0.937751  -0.737914
| 22> 		H    2.194113   0.651491  -0.095559
| 23> *
| 24>
| 25>                          ****END OF INPUT****

CARTESIAN COORDINATES (ANGSTROEM)
---------------------------------
  C     -1.221871   -0.305076    0.062622
  O     -1.725416   -0.918204    0.936005
  C      0.031856    0.474411    0.195210
  C      1.213500   -0.011294   -0.143167
  H     -1.665534   -0.429196   -0.882364
  H     -0.181000    1.452282    0.689277
  H      1.308167   -0.937751   -0.737914
  H      2.194113    0.651491   -0.095559

 Total Charge           Charge          ....    0
 Multiplicity           Mult            ....    1
 Number of Electrons    NEL             ....   30
 Basis Dimension        Dim             ....   76

ORBITAL ENERGIES
----------------

  NO   OCC          E(Eh)            E(eV)
   0   2.0000     -19.139749      -520.8191
   1   2.0000     -10.270040      -279.4620
   2   2.0000     -10.214153      -277.9412
   3   2.0000     -10.207385      -277.7571
   4   2.0000      -1.067351       -29.0441
   5   2.0000      -0.795522       -21.6472
   6   2.0000      -0.646497       -17.5921
   7   2.0000      -0.566088       -15.4040
   8   2.0000      -0.489803       -13.3282
   9   2.0000      -0.463241       -12.6054
  10   2.0000      -0.444357       -12.0916
  11   2.0000      -0.388591       -10.5741
  12   2.0000      -0.374974       -10.2036
  13   2.0000      -0.289814        -7.8862
  14   2.0000      -0.251463        -6.8426
  15   0.0000      -0.033377        -0.9082
  16   0.0000      -0.000829        -0.0226
  17   0.0000       0.074381         2.0240
  18   0.0000       0.086875         2.3640
  19   0.0000       0.112131         3.0512

MULLIKEN ATOMIC CHARGES
-----------------------
   0 C :    0.174376
   1 O :   -0.161674
   2 C :   -0.077592
   3 C :   -0.009549
   4 H :   -0.034329
   5 H :    0.027657
   6 H :    0.030062
   7 H :    0.051048
Sum of atomic charges:    0.0000000

LOEWDIN ATOMIC CHARGES
----------------------
   0 C :   -0.037170
   1 O :    0.037785
   2 C :   -0.063048
   3 C :   -0.042629
   4 H :   -0.017578
   5 H :    0.043108
   6 H :    0.030817
   7 H :    0.048717

  Mayer bond orders larger than 0.100000
B(  0-C ,  1-O ) :   2.2580 B(  0-C ,  2-C ) :   0.9811 B(  0-C ,  4-H ) :   0.9316
B(  2-C ,  3-C ) :   2.0337 B(  2-C ,  5-H ) :   0.9323 B(  3-C ,  6-H ) :   0.9403
B(  3-C ,  7-H ) :   0.9408

-----------------------------------------------------------------------------
         ABSORPTION SPECTRUM VIA TRANSITION ELECTRIC DIPOLE MOMENTS
-----------------------------------------------------------------------------
State   Energy    Wavelength  fosc         T2        TX        TY        TZ
        (cm-1)      (nm)                 (au**2)    (au)      (au)      (au)
-----------------------------------------------------------------------------
   1   33415.4    299.3   0.000191156   0.00188  -0.01938   0.01272   0.03669

FINAL SINGLE POINT ENERGY      -191.631581121042

DIPOLE MOMENT
-------------
                                X             Y             Z
Electronic contribution:     -2.77078      -0.99030       1.37018
Nuclear contribution   :      3.25180       1.48741      -1.97859
                        -----------------------------------------
Total Dipole Moment    :      0.48102       0.49711      -0.60841
                        -----------------------------------------
Magnitude (a.u.)       :      0.92123
Magnitude (Debye)      :      2.34159

Rotational constants in cm-1:     1.070929     0.165131     0.159734
Rotational constants in MHz : 32105.630088  4950.498792  4788.704217

                             ****ORCA TERMINATED NORMALLY****
TOTAL RUN TIME: 0 days 0 hours 3 minutes 27 seconds 959 msec
