                         Program Version 5.0.3 -  RELEASE  -
|  1> ! HF-3c
|  2> !TightSCF
|  3> %scf
|  4>  ConvForced true
|  5>  convergence tight
|  6>  MaxIter 500
|  7> end
|  8>
|  9> %tddft
| 10>  nroots 1
| 11> end
| 12>
| 13> # 	21924
| 14> * xyz 0 1
| 15> 		C   -0.543961  -0.407549   0.035674
| 16> 		O   -0.585124  -1.670132  -0.022505
| 17> 		C    0.616686   0.419614   0.001976
| 18> 		C    1.854740  -0.102014  -0.012260
| 19> 		H   -1.442984   0.220241  -0.008451
| 20> 		H    0.396364   1.430967  -0.122822
| 21> 		H    1.533485  -1.282680   0.208493
| 22> 		H    2.773982   0.427672  -0.032938
| 23> *
| 24>
| 25>                          ****END OF INPUT****

CARTESIAN COORDINATES (ANGSTROEM)
---------------------------------
  C     -0.543961   -0.407549    0.035674
  O     -0.585124   -1.670132   -0.022505
  C      0.616686    0.419614    0.001976
  C      1.854740   -0.102014   -0.012260
  H     -1.442984    0.220241   -0.008451
  H      0.396364    1.430967   -0.122822
  H      1.533485   -1.282680    0.208493
  H      2.773982    0.427672   -0.032938

 Total Charge           Charge          ....    0
 Multiplicity           Mult            ....    1
 Number of Electrons    NEL             ....   30
 Basis Dimension        Dim             ....   24

ORBITAL ENERGIES
----------------

  NO   OCC          E(Eh)            E(eV)
   0   2.0000     -20.344322      -553.5972
   1   2.0000     -11.282770      -307.0198
   2   2.0000     -11.192382      -304.5602
   3   2.0000     -11.179929      -304.2213
   4   2.0000      -1.362741       -37.0821
   5   2.0000      -1.088682       -29.6245
   6   2.0000      -0.904892       -24.6234
   7   2.0000      -0.732214       -19.9246
   8   2.0000      -0.713377       -19.4120
   9   2.0000      -0.608027       -16.5453
  10   2.0000      -0.583309       -15.8727
  11   2.0000      -0.527665       -14.3585
  12   2.0000      -0.496290       -13.5047
  13   2.0000      -0.418604       -11.3908
  14   2.0000      -0.383501       -10.4356
  15   0.0000       0.114308         3.1105
  16   0.0000       0.309878         8.4322
  17   0.0000       0.475968        12.9517
  18   0.0000       0.601604        16.3705
  19   0.0000       0.672428        18.2977

MULLIKEN ATOMIC CHARGES
-----------------------
   0 C :    0.146958
   1 O :   -0.360843
   2 C :   -0.203681
   3 C :   -0.200477
   4 H :    0.135908
   5 H :    0.133018
   6 H :    0.192496
   7 H :    0.156621
Sum of atomic charges:   -0.0000000

LOEWDIN ATOMIC CHARGES
----------------------
   0 C :    0.145984
   1 O :   -0.283997
   2 C :   -0.158518
   3 C :   -0.104933
   4 H :    0.073508
   5 H :    0.078472
   6 H :    0.147575
   7 H :    0.101909

  Mayer bond orders larger than 0.100000
B(  0-C ,  1-O ) :   1.8675 B(  0-C ,  2-C ) :   1.0708 B(  0-C ,  4-H ) :   0.9306
B(  2-C ,  3-C ) :   1.9019 B(  2-C ,  5-H ) :   0.9593 B(  3-C ,  6-H ) :   0.9315
B(  3-C ,  7-H ) :   0.9635

-----------------------------------------------------------------------------
         ABSORPTION SPECTRUM VIA TRANSITION ELECTRIC DIPOLE MOMENTS
-----------------------------------------------------------------------------
State   Energy    Wavelength  fosc         T2        TX        TY        TZ
        (cm-1)      (nm)                 (au**2)    (au)      (au)      (au)
-----------------------------------------------------------------------------
   1   30654.9    326.2   0.000081192   0.00087   0.01240   0.00418  -0.02647

Dispersion correction           -0.026748146
FINAL SINGLE POINT ENERGY      -189.310707614634

DIPOLE MOMENT
-------------
                                X             Y             Z
Electronic contribution:     -1.48866      -1.64758       0.00908
Nuclear contribution   :      1.90307       2.53656       0.04191
                        -----------------------------------------
Total Dipole Moment    :      0.41441       0.88897       0.05099
                        -----------------------------------------
Magnitude (a.u.)       :      0.98215
Magnitude (Debye)      :      2.49642

Rotational constants in cm-1:     0.766239     0.210492     0.165406
Rotational constants in MHz : 22971.274402  6310.380203  4958.740160

                             ****ORCA TERMINATED NORMALLY****
TOTAL RUN TIME: 0 days 0 hours 0 minutes 16 seconds 16 msec
