                         Program Version 5.0.3 -  RELEASE  -
|  1> ! HF-3c
|  2> !TightSCF
|  3> %scf
|  4>  ConvForced true
|  5>  convergence tight
|  6>  MaxIter 500
|  7> end
|  8>
|  9> %tddft
| 10>  nroots 1
| 11> end
| 12>
| 13> # 	29260
| 14> * xyz 0 1
| 15> 		C   -0.598717  -0.396090   0.045196
| 16> 		O   -0.580040  -1.663749  -0.019720
| 17> 		C    0.645510   0.411379  -0.057058
| 18> 		C    1.842779  -0.108841   0.007108
| 19> 		H   -1.581316   0.109645   0.138183
| 20> 		H    0.513262   1.427916  -0.008054
| 21> 		H    2.084805  -1.294472   0.067889
| 22> 		H    2.652338   0.548679   0.177258
| 23> *
| 24>
| 25>                          ****END OF INPUT****

CARTESIAN COORDINATES (ANGSTROEM)
---------------------------------
  C     -0.598717   -0.396090    0.045196
  O     -0.580040   -1.663749   -0.019720
  C      0.645510    0.411379   -0.057058
  C      1.842779   -0.108841    0.007108
  H     -1.581316    0.109645    0.138183
  H      0.513262    1.427916   -0.008054
  H      2.084805   -1.294472    0.067889
  H      2.652338    0.548679    0.177258

 Total Charge           Charge          ....    0
 Multiplicity           Mult            ....    1
 Number of Electrons    NEL             ....   30
 Basis Dimension        Dim             ....   24

ORBITAL ENERGIES
----------------

  NO   OCC          E(Eh)            E(eV)
   0   2.0000     -20.343016      -553.5616
   1   2.0000     -11.279653      -306.9350
   2   2.0000     -11.194950      -304.6301
   3   2.0000     -11.191207      -304.5282
   4   2.0000      -1.355603       -36.8878
   5   2.0000      -1.086004       -29.5517
   6   2.0000      -0.889472       -24.2038
   7   2.0000      -0.745726       -20.2922
   8   2.0000      -0.701206       -19.0808
   9   2.0000      -0.610457       -16.6114
  10   2.0000      -0.578122       -15.7315
  11   2.0000      -0.520139       -14.1537
  12   2.0000      -0.516275       -14.0486
  13   2.0000      -0.414917       -11.2905
  14   2.0000      -0.392498       -10.6804
  15   0.0000       0.127516         3.4699
  16   0.0000       0.302901         8.2424
  17   0.0000       0.502205        13.6657
  18   0.0000       0.595115        16.1939
  19   0.0000       0.663473        18.0540

MULLIKEN ATOMIC CHARGES
-----------------------
   0 C :    0.149134
   1 O :   -0.346618
   2 C :   -0.197997
   3 C :   -0.200810
   4 H :    0.142198
   5 H :    0.142280
   6 H :    0.169141
   7 H :    0.142672
Sum of atomic charges:   -0.0000000

LOEWDIN ATOMIC CHARGES
----------------------
   0 C :    0.143983
   1 O :   -0.269790
   2 C :   -0.145785
   3 C :   -0.107866
   4 H :    0.080742
   5 H :    0.085816
   6 H :    0.123012
   7 H :    0.089889

  Mayer bond orders larger than 0.100000
B(  0-C ,  1-O ) :   1.8984 B(  0-C ,  2-C ) :   1.0332 B(  0-C ,  4-H ) :   0.9338
B(  2-C ,  3-C ) :   1.9448 B(  2-C ,  5-H ) :   0.9589 B(  3-C ,  6-H ) :   0.9520
B(  3-C ,  7-H ) :   0.9641

-----------------------------------------------------------------------------
         ABSORPTION SPECTRUM VIA TRANSITION ELECTRIC DIPOLE MOMENTS
-----------------------------------------------------------------------------
State   Energy    Wavelength  fosc         T2        TX        TY        TZ
        (cm-1)      (nm)                 (au**2)    (au)      (au)      (au)
-----------------------------------------------------------------------------
   1   29551.8    338.4   0.000036419   0.00041  -0.01841   0.00081  -0.00812

Dispersion correction           -0.025524120
FINAL SINGLE POINT ENERGY      -189.340707712575

DIPOLE MOMENT
-------------
                                X             Y             Z
Electronic contribution:     -1.93885      -1.64161      -0.22419
Nuclear contribution   :      2.28361       2.52884       0.35140
                        -----------------------------------------
Total Dipole Moment    :      0.34476       0.88723       0.12721
                        -----------------------------------------
Magnitude (a.u.)       :      0.96032
Magnitude (Debye)      :      2.44095

Rotational constants in cm-1:     0.742464     0.206796     0.162138
Rotational constants in MHz : 22258.497757  6199.591160  4860.762650

                             ****ORCA TERMINATED NORMALLY****
TOTAL RUN TIME: 0 days 0 hours 0 minutes 9 seconds 996 msec
