                         Program Version 5.0.3 -  RELEASE  -
|  1> ! HF-3c
|  2> !TightSCF
|  3> %scf
|  4>  ConvForced true
|  5>  convergence tight
|  6>  MaxIter 500
|  7> end
|  8>
|  9> %tddft
| 10>  nroots 1
| 11> end
| 12>
| 13> # 	21550
| 14> * xyz 0 1
| 15> 		C   -0.567546  -0.473348  -0.013794
| 16> 		O   -0.627647  -1.638912   0.013416
| 17> 		C    0.662566   0.381611   0.000539
| 18> 		C    1.865002  -0.062040  -0.022360
| 19> 		H   -1.593164   0.201608  -0.101199
| 20> 		H    0.418995   1.527499   0.210824
| 21> 		H    2.018082  -1.105831   0.083582
| 22> 		H    2.722864   0.482005   0.029381
| 23> *
| 24>
| 25>                          ****END OF INPUT****

CARTESIAN COORDINATES (ANGSTROEM)
---------------------------------
  C     -0.567546   -0.473348   -0.013794
  O     -0.627647   -1.638912    0.013416
  C      0.662566    0.381611    0.000539
  C      1.865002   -0.062040   -0.022360
  H     -1.593164    0.201608   -0.101199
  H      0.418995    1.527499    0.210824
  H      2.018082   -1.105831    0.083582
  H      2.722864    0.482005    0.029381

 Total Charge           Charge          ....    0
 Multiplicity           Mult            ....    1
 Number of Electrons    NEL             ....   30
 Basis Dimension        Dim             ....   24

ORBITAL ENERGIES
----------------

  NO   OCC          E(Eh)            E(eV)
   0   2.0000     -20.384924      -554.7020
   1   2.0000     -11.307012      -307.6794
   2   2.0000     -11.194414      -304.6155
   3   2.0000     -11.192997      -304.5769
   4   2.0000      -1.436618       -39.0924
   5   2.0000      -1.092861       -29.7383
   6   2.0000      -0.887643       -24.1540
   7   2.0000      -0.736821       -20.0499
   8   2.0000      -0.699939       -19.0463
   9   2.0000      -0.632884       -17.2217
  10   2.0000      -0.612070       -16.6553
  11   2.0000      -0.563418       -15.3314
  12   2.0000      -0.516901       -14.0656
  13   2.0000      -0.414564       -11.2809
  14   2.0000      -0.399917       -10.8823
  15   0.0000       0.144075         3.9205
  16   0.0000       0.321487         8.7481
  17   0.0000       0.481699        13.1077
  18   0.0000       0.568247        15.4628
  19   0.0000       0.615991        16.7620

MULLIKEN ATOMIC CHARGES
-----------------------
   0 C :    0.200103
   1 O :   -0.362071
   2 C :   -0.155042
   3 C :   -0.255226
   4 H :    0.122457
   5 H :    0.143630
   6 H :    0.157998
   7 H :    0.148151
Sum of atomic charges:    0.0000000

LOEWDIN ATOMIC CHARGES
----------------------
   0 C :    0.155184
   1 O :   -0.249281
   2 C :   -0.119467
   3 C :   -0.147635
   4 H :    0.068417
   5 H :    0.098932
   6 H :    0.102215
   7 H :    0.091634

  Mayer bond orders larger than 0.100000
B(  0-C ,  1-O ) :   1.9326 B(  0-C ,  2-C ) :   0.9940 B(  0-C ,  4-H ) :   0.9034
B(  2-C ,  3-C ) :   1.9749 B(  2-C ,  5-H ) :   0.9524 B(  3-C ,  6-H ) :   0.9551
B(  3-C ,  7-H ) :   0.9627

-----------------------------------------------------------------------------
         ABSORPTION SPECTRUM VIA TRANSITION ELECTRIC DIPOLE MOMENTS
-----------------------------------------------------------------------------
State   Energy    Wavelength  fosc         T2        TX        TY        TZ
        (cm-1)      (nm)                 (au**2)    (au)      (au)      (au)
-----------------------------------------------------------------------------
   1   35017.3    285.6   0.000025892   0.00024  -0.01278  -0.00354  -0.00822

Dispersion correction           -0.025501395
FINAL SINGLE POINT ENERGY      -189.306002952456

DIPOLE MOMENT
-------------
                                X             Y             Z
Electronic contribution:     -1.94995      -1.87296      -0.15294
Nuclear contribution   :      2.18817       2.82401       0.20827
                        -----------------------------------------
Total Dipole Moment    :      0.23823       0.95105       0.05533
                        -----------------------------------------
Magnitude (a.u.)       :      0.98199
Magnitude (Debye)      :      2.49602

Rotational constants in cm-1:     0.831590     0.199355     0.161034
Rotational constants in MHz : 24930.445051  5976.525762  4827.668919

                             ****ORCA TERMINATED NORMALLY****
TOTAL RUN TIME: 0 days 0 hours 0 minutes 13 seconds 25 msec
