                         Program Version 5.0.3 -  RELEASE  -
|  1> ! B3LYP cc-pVDZ
|  2> !TightSCF
|  3> %scf
|  4>  ConvForced true
|  5>  convergence tight
|  6>  MaxIter 500
|  7> end
|  8>
|  9> %tddft
| 10>  nroots 1
| 11> end
| 12>
| 13> # 	26241
| 14> * xyz 0 1
| 15> 		C   -0.572011  -0.422592   0.034870
| 16> 		O   -0.580782  -1.650503  -0.026998
| 17> 		C    0.586437   0.435548  -0.012984
| 18> 		C    1.846491  -0.139882   0.019374
| 19> 		H   -1.472548   0.036967   0.012326
| 20> 		H    0.624200   1.633145  -0.034159
| 21> 		H    2.081188  -1.186206   0.229195
| 22> 		H    2.807170   0.484302  -0.291676
| 23> *
| 24>
| 25>                          ****END OF INPUT****

CARTESIAN COORDINATES (ANGSTROEM)
---------------------------------
  C     -0.572011   -0.422592    0.034870
  O     -0.580782   -1.650503   -0.026998
  C      0.586437    0.435548   -0.012984
  C      1.846491   -0.139882    0.019374
  H     -1.472548    0.036967    0.012326
  H      0.624200    1.633145   -0.034159
  H      2.081188   -1.186206    0.229195
  H      2.807170    0.484302   -0.291676

 Total Charge           Charge          ....    0
 Multiplicity           Mult            ....    1
 Number of Electrons    NEL             ....   30
 Basis Dimension        Dim             ....   76

ORBITAL ENERGIES
----------------

  NO   OCC          E(Eh)            E(eV)
   0   2.0000     -19.131260      -520.5880
   1   2.0000     -10.263783      -279.2917
   2   2.0000     -10.231117      -278.4029
   3   2.0000     -10.219732      -278.0930
   4   2.0000      -1.031817       -28.0772
   5   2.0000      -0.787625       -21.4324
   6   2.0000      -0.662804       -18.0358
   7   2.0000      -0.549741       -14.9592
   8   2.0000      -0.503945       -13.7130
   9   2.0000      -0.440686       -11.9917
  10   2.0000      -0.408871       -11.1259
  11   2.0000      -0.393193       -10.6993
  12   2.0000      -0.375727       -10.2240
  13   2.0000      -0.278680        -7.5833
  14   2.0000      -0.253378        -6.8948
  15   0.0000      -0.080130        -2.1804
  16   0.0000       0.047992         1.3059
  17   0.0000       0.057884         1.5751
  18   0.0000       0.087093         2.3699
  19   0.0000       0.122384         3.3303

MULLIKEN ATOMIC CHARGES
-----------------------
   0 C :    0.263719
   1 O :   -0.217311
   2 C :   -0.156627
   3 C :    0.017358
   4 H :   -0.046530
   5 H :    0.035969
   6 H :    0.050243
   7 H :    0.053178
Sum of atomic charges:    0.0000000

LOEWDIN ATOMIC CHARGES
----------------------
   0 C :   -0.029001
   1 O :   -0.024436
   2 C :   -0.095487
   3 C :    0.036486
   4 H :   -0.019597
   5 H :    0.055648
   6 H :    0.029977
   7 H :    0.046410

  Mayer bond orders larger than 0.100000
B(  0-C ,  1-O ) :   2.1585 B(  0-C ,  2-C ) :   1.0721 B(  0-C ,  4-H ) :   0.9422
B(  1-O ,  3-C ) :   0.1126 B(  2-C ,  3-C ) :   1.9028 B(  2-C ,  5-H ) :   0.9352
B(  3-C ,  6-H ) :   0.9497 B(  3-C ,  7-H ) :   0.9487

-----------------------------------------------------------------------------
         ABSORPTION SPECTRUM VIA TRANSITION ELECTRIC DIPOLE MOMENTS
-----------------------------------------------------------------------------
State   Energy    Wavelength  fosc         T2        TX        TY        TZ
        (cm-1)      (nm)                 (au**2)    (au)      (au)      (au)
-----------------------------------------------------------------------------
   1   25409.9    393.5   0.000030229   0.00039  -0.00088  -0.00978  -0.01718

FINAL SINGLE POINT ENERGY      -191.664783433828

DIPOLE MOMENT
-------------
                                X             Y             Z
Electronic contribution:     -2.14816      -1.75805       0.10711
Nuclear contribution   :      2.63039       2.69531      -0.07807
                        -----------------------------------------
Total Dipole Moment    :      0.48224       0.93726       0.02904
                        -----------------------------------------
Magnitude (a.u.)       :      1.05445
Magnitude (Debye)      :      2.68019

Rotational constants in cm-1:     0.732267     0.208084     0.162579
Rotational constants in MHz : 21952.819304  6238.215238  4873.988602

                             ****ORCA TERMINATED NORMALLY****
TOTAL RUN TIME: 0 days 0 hours 3 minutes 19 seconds 703 msec
