                         Program Version 5.0.3 -  RELEASE  -
|  1> ! HF-3c
|  2> !TightSCF
|  3> %scf
|  4>  ConvForced true
|  5>  convergence tight
|  6>  MaxIter 500
|  7> end
|  8>
|  9> %tddft
| 10>  nroots 1
| 11> end
| 12>
| 13> # 	5250
| 14> * xyz 0 1
| 15> 		C   -1.210660  -0.343022   0.002820
| 16> 		O   -1.559303  -1.220467  -0.776438
| 17> 		C    0.010079   0.472411  -0.169727
| 18> 		C    1.183446   0.007327   0.193936
| 19> 		H   -1.790212  -0.048871   0.936877
| 20> 		H   -0.036120   1.362489  -0.633092
| 21> 		H    1.383230  -0.896535   0.537886
| 22> 		H    2.032500   0.629383   0.002460
| 23> *
| 24>
| 25>                          ****END OF INPUT****

CARTESIAN COORDINATES (ANGSTROEM)
---------------------------------
  C     -1.210660   -0.343022    0.002820
  O     -1.559303   -1.220467   -0.776438
  C      0.010079    0.472411   -0.169727
  C      1.183446    0.007327    0.193936
  H     -1.790212   -0.048871    0.936877
  H     -0.036120    1.362489   -0.633092
  H      1.383230   -0.896535    0.537886
  H      2.032500    0.629383    0.002460

 Total Charge           Charge          ....    0
 Multiplicity           Mult            ....    1
 Number of Electrons    NEL             ....   30
 Basis Dimension        Dim             ....   24

ORBITAL ENERGIES
----------------

  NO   OCC          E(Eh)            E(eV)
   0   2.0000     -20.379268      -554.5481
   1   2.0000     -11.302122      -307.5464
   2   2.0000     -11.200969      -304.7939
   3   2.0000     -11.189260      -304.4752
   4   2.0000      -1.399842       -38.0916
   5   2.0000      -1.100978       -29.9591
   6   2.0000      -0.899893       -24.4873
   7   2.0000      -0.784155       -21.3379
   8   2.0000      -0.699572       -19.0363
   9   2.0000      -0.644034       -17.5250
  10   2.0000      -0.617614       -16.8061
  11   2.0000      -0.567787       -15.4503
  12   2.0000      -0.502898       -13.6846
  13   2.0000      -0.418938       -11.3999
  14   2.0000      -0.414511       -11.2794
  15   0.0000       0.181811         4.9473
  16   0.0000       0.210280         5.7220
  17   0.0000       0.568336        15.4652
  18   0.0000       0.648702        17.6521
  19   0.0000       0.705930        19.2093

MULLIKEN ATOMIC CHARGES
-----------------------
   0 C :    0.177490
   1 O :   -0.336375
   2 C :   -0.175824
   3 C :   -0.252788
   4 H :    0.141811
   5 H :    0.155852
   6 H :    0.143758
   7 H :    0.146077
Sum of atomic charges:    0.0000000

LOEWDIN ATOMIC CHARGES
----------------------
   0 C :    0.159610
   1 O :   -0.244774
   2 C :   -0.119058
   3 C :   -0.151346
   4 H :    0.080548
   5 H :    0.095524
   6 H :    0.085275
   7 H :    0.094220

  Mayer bond orders larger than 0.100000
B(  0-C ,  1-O ) :   1.9543 B(  0-C ,  2-C ) :   0.9898 B(  0-C ,  4-H ) :   0.9144
B(  2-C ,  3-C ) :   1.9947 B(  2-C ,  5-H ) :   0.9521 B(  3-C ,  6-H ) :   0.9687
B(  3-C ,  7-H ) :   0.9632

-----------------------------------------------------------------------------
         ABSORPTION SPECTRUM VIA TRANSITION ELECTRIC DIPOLE MOMENTS
-----------------------------------------------------------------------------
State   Energy    Wavelength  fosc         T2        TX        TY        TZ
        (cm-1)      (nm)                 (au**2)    (au)      (au)      (au)
-----------------------------------------------------------------------------
   1   34041.8    293.8   0.000011915   0.00012   0.00985  -0.00340  -0.00259

Dispersion correction           -0.025617772
FINAL SINGLE POINT ENERGY      -189.314949733995

DIPOLE MOMENT
-------------
                                X             Y             Z
Electronic contribution:     -2.65541      -1.39203      -0.96124
Nuclear contribution   :      3.05070       2.09465       1.53624
                        -----------------------------------------
Total Dipole Moment    :      0.39529       0.70262       0.57500
                        -----------------------------------------
Magnitude (a.u.)       :      0.99023
Magnitude (Debye)      :      2.51697

Rotational constants in cm-1:     0.949097     0.175968     0.163024
Rotational constants in MHz : 28453.222746  5275.388195  4887.340894

                             ****ORCA TERMINATED NORMALLY****
TOTAL RUN TIME: 0 days 0 hours 0 minutes 12 seconds 480 msec
