                         Program Version 5.0.3 -  RELEASE  -
|  1> ! B3LYP cc-pVDZ
|  2> !TightSCF
|  3> %scf
|  4>  ConvForced true
|  5>  convergence tight
|  6>  MaxIter 500
|  7> end
|  8>
|  9> %tddft
| 10>  nroots 1
| 11> end
| 12>
| 13> # 	9878
| 14> * xyz 0 1
| 15> 		C   -1.182981  -0.327984  -0.069749
| 16> 		O   -2.161413  -0.262406  -0.739003
| 17> 		C    0.016052   0.407938  -0.274626
| 18> 		C    1.163985   0.056028   0.327958
| 19> 		H   -1.038012  -0.949791   0.770040
| 20> 		H    0.001440   1.123593  -1.103849
| 21> 		H    1.195358  -0.648164   1.040908
| 22> 		H    1.991871   0.629517   0.078860
| 23> *
| 24>
| 25>                          ****END OF INPUT****

CARTESIAN COORDINATES (ANGSTROEM)
---------------------------------
  C     -1.182981   -0.327984   -0.069749
  O     -2.161413   -0.262406   -0.739003
  C      0.016052    0.407938   -0.274626
  C      1.163985    0.056028    0.327958
  H     -1.038012   -0.949791    0.770040
  H      0.001440    1.123593   -1.103849
  H      1.195358   -0.648164    1.040908
  H      1.991871    0.629517    0.078860

 Total Charge           Charge          ....    0
 Multiplicity           Mult            ....    1
 Number of Electrons    NEL             ....   30
 Basis Dimension        Dim             ....   76

ORBITAL ENERGIES
----------------

  NO   OCC          E(Eh)            E(eV)
   0   2.0000     -19.134950      -520.6885
   1   2.0000     -10.260926      -279.2140
   2   2.0000     -10.208282      -277.7815
   3   2.0000     -10.200272      -277.5635
   4   2.0000      -1.056537       -28.7498
   5   2.0000      -0.814593       -22.1662
   6   2.0000      -0.665745       -18.1158
   7   2.0000      -0.581120       -15.8131
   8   2.0000      -0.489486       -13.3196
   9   2.0000      -0.474599       -12.9145
  10   2.0000      -0.422665       -11.5013
  11   2.0000      -0.406246       -11.0545
  12   2.0000      -0.398862       -10.8536
  13   2.0000      -0.294441        -8.0122
  14   2.0000      -0.253703        -6.9036
  15   0.0000      -0.066511        -1.8098
  16   0.0000       0.060022         1.6333
  17   0.0000       0.080775         2.1980
  18   0.0000       0.085009         2.3132
  19   0.0000       0.138778         3.7763

MULLIKEN ATOMIC CHARGES
-----------------------
   0 C :    0.213116
   1 O :   -0.181277
   2 C :   -0.120072
   3 C :    0.147618
   4 H :   -0.062440
   5 H :   -0.006488
   6 H :   -0.008527
   7 H :    0.018071
Sum of atomic charges:    0.0000000

LOEWDIN ATOMIC CHARGES
----------------------
   0 C :   -0.067004
   1 O :    0.025101
   2 C :   -0.045257
   3 C :    0.042116
   4 H :   -0.018173
   5 H :    0.031260
   6 H :    0.005815
   7 H :    0.026142

  Mayer bond orders larger than 0.100000
B(  0-C ,  1-O ) :   2.1934 B(  0-C ,  2-C ) :   1.1183 B(  0-C ,  4-H ) :   0.9189
B(  1-O ,  3-C ) :   0.1024 B(  2-C ,  3-C ) :   1.9359 B(  2-C ,  5-H ) :   0.9417
B(  3-C ,  6-H ) :   0.9398 B(  3-C ,  7-H ) :   0.9362

-----------------------------------------------------------------------------
         ABSORPTION SPECTRUM VIA TRANSITION ELECTRIC DIPOLE MOMENTS
-----------------------------------------------------------------------------
State   Energy    Wavelength  fosc         T2        TX        TY        TZ
        (cm-1)      (nm)                 (au**2)    (au)      (au)      (au)
-----------------------------------------------------------------------------
   1   28564.8    350.1   0.000289176   0.00333   0.05719  -0.00139  -0.00775

FINAL SINGLE POINT ENERGY      -191.663540836640

DIPOLE MOMENT
-------------
                                X             Y             Z
Electronic contribution:     -3.09980      -0.23805      -1.01888
Nuclear contribution   :      4.16623       0.30354       1.48098
                        -----------------------------------------
Total Dipole Moment    :      1.06643       0.06549       0.46209
                        -----------------------------------------
Magnitude (a.u.)       :      1.16408
Magnitude (Debye)      :      2.95886

Rotational constants in cm-1:     1.681784     0.160760     0.147534
Rotational constants in MHz : 50418.614223  4819.471012  4422.946338

                             ****ORCA TERMINATED NORMALLY****
TOTAL RUN TIME: 0 days 0 hours 3 minutes 22 seconds 673 msec
