                         Program Version 5.0.3 -  RELEASE  -
|  1> ! B3LYP cc-pVDZ
|  2> !TightSCF
|  3> %scf
|  4>  ConvForced true
|  5>  convergence tight
|  6>  MaxIter 500
|  7> end
|  8>
|  9> %tddft
| 10>  nroots 1
| 11> end
| 12>
| 13> # 	21792
| 14> * xyz 0 1
| 15> 		C   -0.593818  -0.472414   0.000979
| 16> 		O   -0.596047  -1.635551  -0.005916
| 17> 		C    0.651532   0.435614   0.003247
| 18> 		C    1.844104  -0.119452  -0.009282
| 19> 		H   -1.450820   0.149045   0.055898
| 20> 		H    0.677752   1.499100  -0.023115
| 21> 		H    1.994376  -1.075086   0.132385
| 22> 		H    2.566641   0.493237  -0.015663
| 23> *
| 24>
| 25>                          ****END OF INPUT****

CARTESIAN COORDINATES (ANGSTROEM)
---------------------------------
  C     -0.593818   -0.472414    0.000979
  O     -0.596047   -1.635551   -0.005916
  C      0.651532    0.435614    0.003247
  C      1.844104   -0.119452   -0.009282
  H     -1.450820    0.149045    0.055898
  H      0.677752    1.499100   -0.023115
  H      1.994376   -1.075086    0.132385
  H      2.566641    0.493237   -0.015663

 Total Charge           Charge          ....    0
 Multiplicity           Mult            ....    1
 Number of Electrons    NEL             ....   30
 Basis Dimension        Dim             ....   76

ORBITAL ENERGIES
----------------

  NO   OCC          E(Eh)            E(eV)
   0   2.0000     -19.144381      -520.9451
   1   2.0000     -10.272732      -279.5353
   2   2.0000     -10.191456      -277.3236
   3   2.0000     -10.176399      -276.9139
   4   2.0000      -1.076487       -29.2927
   5   2.0000      -0.801188       -21.8014
   6   2.0000      -0.659316       -17.9409
   7   2.0000      -0.559189       -15.2163
   8   2.0000      -0.523674       -14.2499
   9   2.0000      -0.457372       -12.4457
  10   2.0000      -0.423656       -11.5283
  11   2.0000      -0.413074       -11.2403
  12   2.0000      -0.400092       -10.8871
  13   2.0000      -0.288943        -7.8625
  14   2.0000      -0.256350        -6.9756
  15   0.0000      -0.057206        -1.5566
  16   0.0000       0.064841         1.7644
  17   0.0000       0.080675         2.1953
  18   0.0000       0.105914         2.8821
  19   0.0000       0.135015         3.6739

MULLIKEN ATOMIC CHARGES
-----------------------
   0 C :    0.222795
   1 O :   -0.147215
   2 C :   -0.189129
   3 C :    0.250396
   4 H :   -0.037462
   5 H :   -0.028377
   6 H :   -0.029108
   7 H :   -0.041900
Sum of atomic charges:    0.0000000

LOEWDIN ATOMIC CHARGES
----------------------
   0 C :   -0.044576
   1 O :    0.050334
   2 C :   -0.064281
   3 C :    0.062565
   4 H :   -0.020798
   5 H :    0.022793
   6 H :    0.000681
   7 H :   -0.006718

  Mayer bond orders larger than 0.100000
B(  0-C ,  1-O ) :   2.2657 B(  0-C ,  2-C ) :   0.9936 B(  0-C ,  4-H ) :   0.9196
B(  2-C ,  3-C ) :   2.0167 B(  2-C ,  5-H ) :   0.9405 B(  3-C ,  6-H ) :   0.9432
B(  3-C ,  7-H ) :   0.9274

-----------------------------------------------------------------------------
         ABSORPTION SPECTRUM VIA TRANSITION ELECTRIC DIPOLE MOMENTS
-----------------------------------------------------------------------------
State   Energy    Wavelength  fosc         T2        TX        TY        TZ
        (cm-1)      (nm)                 (au**2)    (au)      (au)      (au)
-----------------------------------------------------------------------------
   1   30837.9    324.3   0.000034903   0.00037   0.01639  -0.00092  -0.01016

FINAL SINGLE POINT ENERGY      -191.624403105884

DIPOLE MOMENT
-------------
                                X             Y             Z
Electronic contribution:     -2.06616      -1.96288      -0.10914
Nuclear contribution   :      2.39416       2.78851       0.14049
                        -----------------------------------------
Total Dipole Moment    :      0.32800       0.82563       0.03135
                        -----------------------------------------
Magnitude (a.u.)       :      0.88895
Magnitude (Debye)      :      2.25952

Rotational constants in cm-1:     0.815221     0.205859     0.164431
Rotational constants in MHz : 24439.705335  6171.500388  4929.512099

                             ****ORCA TERMINATED NORMALLY****
TOTAL RUN TIME: 0 days 0 hours 3 minutes 23 seconds 262 msec
