                         Program Version 5.0.3 -  RELEASE  -
|  1> ! HF-3c
|  2> !TightSCF
|  3> %scf
|  4>  ConvForced true
|  5>  convergence tight
|  6>  MaxIter 500
|  7> end
|  8>
|  9> %tddft
| 10>  nroots 1
| 11> end
| 12>
| 13> # 	28164
| 14> * xyz 0 1
| 15> 		C   -0.530086  -0.415376   0.053797
| 16> 		O   -0.609407  -1.641922  -0.036393
| 17> 		C    0.602716   0.377053  -0.021102
| 18> 		C    1.841331  -0.105262   0.018613
| 19> 		H   -1.468132   0.270089   0.134452
| 20> 		H    0.458353   1.373300  -0.259197
| 21> 		H    2.057150  -1.279915   0.119389
| 22> 		H    2.790628   0.683650  -0.046464
| 23> *
| 24>
| 25>                          ****END OF INPUT****

CARTESIAN COORDINATES (ANGSTROEM)
---------------------------------
  C     -0.530086   -0.415376    0.053797
  O     -0.609407   -1.641922   -0.036393
  C      0.602716    0.377053   -0.021102
  C      1.841331   -0.105262    0.018613
  H     -1.468132    0.270089    0.134452
  H      0.458353    1.373300   -0.259197
  H      2.057150   -1.279915    0.119389
  H      2.790628    0.683650   -0.046464

 Total Charge           Charge          ....    0
 Multiplicity           Mult            ....    1
 Number of Electrons    NEL             ....   30
 Basis Dimension        Dim             ....   24

ORBITAL ENERGIES
----------------

  NO   OCC          E(Eh)            E(eV)
   0   2.0000     -20.343445      -553.5733
   1   2.0000     -11.283625      -307.0430
   2   2.0000     -11.198911      -304.7379
   3   2.0000     -11.181795      -304.2721
   4   2.0000      -1.374993       -37.4155
   5   2.0000      -1.090284       -29.6681
   6   2.0000      -0.893484       -24.3129
   7   2.0000      -0.724347       -19.7105
   8   2.0000      -0.694503       -18.8984
   9   2.0000      -0.603823       -16.4309
  10   2.0000      -0.568339       -15.4653
  11   2.0000      -0.534931       -14.5562
  12   2.0000      -0.511538       -13.9196
  13   2.0000      -0.403220       -10.9722
  14   2.0000      -0.385069       -10.4783
  15   0.0000       0.124824         3.3966
  16   0.0000       0.326469         8.8837
  17   0.0000       0.487101        13.2547
  18   0.0000       0.531417        14.4606
  19   0.0000       0.618191        16.8218

MULLIKEN ATOMIC CHARGES
-----------------------
   0 C :    0.163533
   1 O :   -0.361437
   2 C :   -0.229496
   3 C :   -0.155113
   4 H :    0.126415
   5 H :    0.143435
   6 H :    0.163951
   7 H :    0.148713
Sum of atomic charges:    0.0000000

LOEWDIN ATOMIC CHARGES
----------------------
   0 C :    0.148105
   1 O :   -0.276474
   2 C :   -0.182345
   3 C :   -0.071821
   4 H :    0.069493
   5 H :    0.088031
   6 H :    0.117075
   7 H :    0.107935

  Mayer bond orders larger than 0.100000
B(  0-C ,  1-O ) :   1.8731 B(  0-C ,  2-C ) :   1.0790 B(  0-C ,  4-H ) :   0.9183
B(  2-C ,  3-C ) :   1.8953 B(  2-C ,  5-H ) :   0.9562 B(  3-C ,  6-H ) :   0.9530
B(  3-C ,  7-H ) :   0.9581

-----------------------------------------------------------------------------
         ABSORPTION SPECTRUM VIA TRANSITION ELECTRIC DIPOLE MOMENTS
-----------------------------------------------------------------------------
State   Energy    Wavelength  fosc         T2        TX        TY        TZ
        (cm-1)      (nm)                 (au**2)    (au)      (au)      (au)
-----------------------------------------------------------------------------
   1   31116.1    321.4   0.000020235   0.00021  -0.00176   0.00533  -0.01351

Dispersion correction           -0.025817330
FINAL SINGLE POINT ENERGY      -189.311489889059

DIPOLE MOMENT
-------------
                                X             Y             Z
Electronic contribution:     -1.81682      -1.81397       0.07728
Nuclear contribution   :      2.44209       2.76835      -0.04793
                        -----------------------------------------
Total Dipole Moment    :      0.62527       0.95438       0.02935
                        -----------------------------------------
Magnitude (a.u.)       :      1.14135
Magnitude (Debye)      :      2.90107

Rotational constants in cm-1:     0.785801     0.208727     0.165463
Rotational constants in MHz : 23557.722754  6257.463619  4960.468095

                             ****ORCA TERMINATED NORMALLY****
TOTAL RUN TIME: 0 days 0 hours 0 minutes 11 seconds 504 msec
