                         Program Version 5.0.3 -  RELEASE  -
|  1> ! B3LYP cc-pVDZ
|  2> !TightSCF
|  3> %scf
|  4>  ConvForced true
|  5>  convergence tight
|  6>  MaxIter 500
|  7> end
|  8>
|  9> %tddft
| 10>  nroots 1
| 11> end
| 12>
| 13> # 	30314
| 14> * xyz 0 1
| 15> 		C   -0.489542  -0.412375  -0.036535
| 16> 		O   -0.618192  -1.657785   0.010213
| 17> 		C    0.620487   0.413667   0.003549
| 18> 		C    1.814938  -0.144102  -0.014565
| 19> 		H   -1.433536   0.248588   0.151635
| 20> 		H    0.443133   1.520207   0.103132
| 21> 		H    2.041216  -1.123020   0.135830
| 22> 		H    2.573890   0.650379   0.015277
| 23> *
| 24>
| 25>                          ****END OF INPUT****

CARTESIAN COORDINATES (ANGSTROEM)
---------------------------------
  C     -0.489542   -0.412375   -0.036535
  O     -0.618192   -1.657785    0.010213
  C      0.620487    0.413667    0.003549
  C      1.814938   -0.144102   -0.014565
  H     -1.433536    0.248588    0.151635
  H      0.443133    1.520207    0.103132
  H      2.041216   -1.123020    0.135830
  H      2.573890    0.650379    0.015277

 Total Charge           Charge          ....    0
 Multiplicity           Mult            ....    1
 Number of Electrons    NEL             ....   30
 Basis Dimension        Dim             ....   76

ORBITAL ENERGIES
----------------

  NO   OCC          E(Eh)            E(eV)
   0   2.0000     -19.135719      -520.7094
   1   2.0000     -10.269102      -279.4365
   2   2.0000     -10.215353      -277.9739
   3   2.0000     -10.206745      -277.7396
   4   2.0000      -1.019559       -27.7436
   5   2.0000      -0.821848       -22.3636
   6   2.0000      -0.678001       -18.4493
   7   2.0000      -0.545038       -14.8312
   8   2.0000      -0.508729       -13.8432
   9   2.0000      -0.457224       -12.4417
  10   2.0000      -0.401286       -10.9196
  11   2.0000      -0.397066       -10.8047
  12   2.0000      -0.388168       -10.5626
  13   2.0000      -0.293527        -7.9873
  14   2.0000      -0.249177        -6.7805
  15   0.0000      -0.083806        -2.2805
  16   0.0000       0.049990         1.3603
  17   0.0000       0.067152         1.8273
  18   0.0000       0.092648         2.5211
  19   0.0000       0.127664         3.4739

MULLIKEN ATOMIC CHARGES
-----------------------
   0 C :    0.174029
   1 O :   -0.225679
   2 C :   -0.124061
   3 C :    0.156259
   4 H :   -0.036684
   5 H :    0.015028
   6 H :    0.013540
   7 H :    0.027567
Sum of atomic charges:   -0.0000000

LOEWDIN ATOMIC CHARGES
----------------------
   0 C :   -0.035679
   1 O :   -0.046709
   2 C :   -0.088256
   3 C :    0.072142
   4 H :   -0.007628
   5 H :    0.048200
   6 H :    0.016842
   7 H :    0.041087

  Mayer bond orders larger than 0.100000
B(  0-C ,  1-O ) :   2.1433 B(  0-C ,  2-C ) :   1.1427 B(  0-C ,  4-H ) :   0.9049
B(  1-O ,  3-C ) :   0.1177 B(  2-C ,  3-C ) :   1.9118 B(  2-C ,  5-H ) :   0.9413
B(  3-C ,  6-H ) :   0.9450 B(  3-C ,  7-H ) :   0.9355

-----------------------------------------------------------------------------
         ABSORPTION SPECTRUM VIA TRANSITION ELECTRIC DIPOLE MOMENTS
-----------------------------------------------------------------------------
State   Energy    Wavelength  fosc         T2        TX        TY        TZ
        (cm-1)      (nm)                 (au**2)    (au)      (au)      (au)
-----------------------------------------------------------------------------
   1   23733.1    421.4   0.000195336   0.00271   0.00473   0.02185   0.04701

FINAL SINGLE POINT ENERGY      -191.672425794313

DIPOLE MOMENT
-------------
                                X             Y             Z
Electronic contribution:     -1.55301      -2.02245      -0.33587
Nuclear contribution   :      2.23998       3.00131       0.38084
                        -----------------------------------------
Total Dipole Moment    :      0.68697       0.97886       0.04497
                        -----------------------------------------
Magnitude (a.u.)       :      1.19671
Magnitude (Debye)      :      3.04180

Rotational constants in cm-1:     0.782035     0.212983     0.167638
Rotational constants in MHz : 23444.810107  6385.084552  5025.654241

                             ****ORCA TERMINATED NORMALLY****
TOTAL RUN TIME: 0 days 0 hours 2 minutes 56 seconds 401 msec
