                         Program Version 5.0.3 -  RELEASE  -
|  1> ! B3LYP cc-pVDZ
|  2> !TightSCF
|  3> %scf
|  4>  ConvForced true
|  5>  convergence tight
|  6>  MaxIter 500
|  7> end
|  8>
|  9> %tddft
| 10>  nroots 1
| 11> end
| 12>
| 13> # 	10685
| 14> * xyz 0 1
| 15> 		C   -1.174662  -0.398364   0.050053
| 16> 		O   -1.491797  -1.451563   0.568827
| 17> 		C    0.062364   0.364545   0.316479
| 18> 		C    1.251459   0.080144  -0.137131
| 19> 		H   -1.934340   0.287283  -0.875538
| 20> 		H   -0.223871   1.375211   0.675412
| 21> 		H    1.380488  -0.897073  -0.668860
| 22> 		H    2.083456   0.658419   0.086148
| 23> *
| 24>
| 25>                          ****END OF INPUT****

CARTESIAN COORDINATES (ANGSTROEM)
---------------------------------
  C     -1.174662   -0.398364    0.050053
  O     -1.491797   -1.451563    0.568827
  C      0.062364    0.364545    0.316479
  C      1.251459    0.080144   -0.137131
  H     -1.934340    0.287283   -0.875538
  H     -0.223871    1.375211    0.675412
  H      1.380488   -0.897073   -0.668860
  H      2.083456    0.658419    0.086148

 Total Charge           Charge          ....    0
 Multiplicity           Mult            ....    1
 Number of Electrons    NEL             ....   30
 Basis Dimension        Dim             ....   76

ORBITAL ENERGIES
----------------

  NO   OCC          E(Eh)            E(eV)
   0   2.0000     -19.159566      -521.3583
   1   2.0000     -10.302939      -280.3572
   2   2.0000     -10.212133      -277.8863
   3   2.0000     -10.206686      -277.7380
   4   2.0000      -1.057008       -28.7627
   5   2.0000      -0.808346       -21.9962
   6   2.0000      -0.658311       -17.9136
   7   2.0000      -0.532114       -14.4796
   8   2.0000      -0.495953       -13.4956
   9   2.0000      -0.456391       -12.4190
  10   2.0000      -0.447417       -12.1748
  11   2.0000      -0.397070       -10.8048
  12   2.0000      -0.377066       -10.2605
  13   2.0000      -0.296361        -8.0644
  14   2.0000      -0.259612        -7.0644
  15   0.0000      -0.045004        -1.2246
  16   0.0000      -0.002861        -0.0779
  17   0.0000       0.048368         1.3162
  18   0.0000       0.082425         2.2429
  19   0.0000       0.093198         2.5361

MULLIKEN ATOMIC CHARGES
-----------------------
   0 C :    0.100923
   1 O :   -0.164522
   2 C :   -0.062986
   3 C :    0.073722
   4 H :   -0.018821
   5 H :    0.020265
   6 H :    0.033717
   7 H :    0.017702
Sum of atomic charges:   -0.0000000

LOEWDIN ATOMIC CHARGES
----------------------
   0 C :   -0.028000
   1 O :    0.012640
   2 C :   -0.068787
   3 C :   -0.011255
   4 H :   -0.010984
   5 H :    0.044294
   6 H :    0.041039
   7 H :    0.021053

  Mayer bond orders larger than 0.100000
B(  0-C ,  1-O ) :   2.2202 B(  0-C ,  2-C ) :   0.9997 B(  0-C ,  4-H ) :   0.8345
B(  2-C ,  3-C ) :   2.0356 B(  2-C ,  5-H ) :   0.9209 B(  3-C ,  6-H ) :   0.9373
B(  3-C ,  7-H ) :   0.9374

-----------------------------------------------------------------------------
         ABSORPTION SPECTRUM VIA TRANSITION ELECTRIC DIPOLE MOMENTS
-----------------------------------------------------------------------------
State   Energy    Wavelength  fosc         T2        TX        TY        TZ
        (cm-1)      (nm)                 (au**2)    (au)      (au)      (au)
-----------------------------------------------------------------------------
   1   33250.7    300.7   0.002377879   0.02354  -0.15106  -0.00094   0.02691

FINAL SINGLE POINT ENERGY      -191.620527724858

DIPOLE MOMENT
-------------
                                X             Y             Z
Electronic contribution:     -2.01630      -1.99606       1.22499
Nuclear contribution   :      2.60605       2.74113      -1.46972
                        -----------------------------------------
Total Dipole Moment    :      0.58975       0.74507      -0.24474
                        -----------------------------------------
Magnitude (a.u.)       :      0.98124
Magnitude (Debye)      :      2.49411

Rotational constants in cm-1:     0.924300     0.172076     0.156364
Rotational constants in MHz : 27709.821187  5158.703090  4687.678242

                             ****ORCA TERMINATED NORMALLY****
TOTAL RUN TIME: 0 days 0 hours 3 minutes 20 seconds 224 msec
