                         Program Version 5.0.3 -  RELEASE  -
|  1> ! B3LYP cc-pVDZ
|  2> !TightSCF
|  3> %scf
|  4>  ConvForced true
|  5>  convergence tight
|  6>  MaxIter 500
|  7> end
|  8>
|  9> %tddft
| 10>  nroots 1
| 11> end
| 12>
| 13> # 	26466
| 14> * xyz 0 1
| 15> 		C   -0.641205  -0.430295   0.000113
| 16> 		O   -0.543152  -1.638235  -0.002411
| 17> 		C    0.608835   0.462015   0.012064
| 18> 		C    1.877247  -0.144193  -0.017026
| 19> 		H   -1.585170   0.006795  -0.027451
| 20> 		H    0.324966   1.487253   0.008681
| 21> 		H    1.837741  -1.142565   0.136940
| 22> 		H    2.953486   0.228131  -0.024650
| 23> *
| 24>
| 25>                          ****END OF INPUT****

CARTESIAN COORDINATES (ANGSTROEM)
---------------------------------
  C     -0.641205   -0.430295    0.000113
  O     -0.543152   -1.638235   -0.002411
  C      0.608835    0.462015    0.012064
  C      1.877247   -0.144193   -0.017026
  H     -1.585170    0.006795   -0.027451
  H      0.324966    1.487253    0.008681
  H      1.837741   -1.142565    0.136940
  H      2.953486    0.228131   -0.024650

 Total Charge           Charge          ....    0
 Multiplicity           Mult            ....    1
 Number of Electrons    NEL             ....   30
 Basis Dimension        Dim             ....   76

ORBITAL ENERGIES
----------------

  NO   OCC          E(Eh)            E(eV)
   0   2.0000     -19.135417      -520.7012
   1   2.0000     -10.271283      -279.4958
   2   2.0000     -10.217359      -278.0285
   3   2.0000     -10.213912      -277.9347
   4   2.0000      -1.044279       -28.4163
   5   2.0000      -0.775478       -21.1018
   6   2.0000      -0.659699       -17.9513
   7   2.0000      -0.561226       -15.2717
   8   2.0000      -0.495898       -13.4941
   9   2.0000      -0.446010       -12.1366
  10   2.0000      -0.429800       -11.6955
  11   2.0000      -0.394747       -10.7416
  12   2.0000      -0.379855       -10.3364
  13   2.0000      -0.275353        -7.4927
  14   2.0000      -0.254740        -6.9318
  15   0.0000      -0.073119        -1.9897
  16   0.0000       0.046111         1.2547
  17   0.0000       0.075164         2.0453
  18   0.0000       0.093458         2.5431
  19   0.0000       0.124940         3.3998

MULLIKEN ATOMIC CHARGES
-----------------------
   0 C :    0.210303
   1 O :   -0.197106
   2 C :   -0.121434
   3 C :    0.088677
   4 H :   -0.026397
   5 H :   -0.021439
   6 H :    0.013896
   7 H :    0.053500
Sum of atomic charges:   -0.0000000

LOEWDIN ATOMIC CHARGES
----------------------
   0 C :   -0.016664
   1 O :   -0.006500
   2 C :   -0.061109
   3 C :    0.034769
   4 H :   -0.012400
   5 H :    0.012575
   6 H :    0.006173
   7 H :    0.043156

  Mayer bond orders larger than 0.100000
B(  0-C ,  1-O ) :   2.1709 B(  0-C ,  2-C ) :   1.0420 B(  0-C ,  4-H ) :   0.9330
B(  2-C ,  3-C ) :   1.9241 B(  2-C ,  5-H ) :   0.9601 B(  3-C ,  6-H ) :   0.9272
B(  3-C ,  7-H ) :   0.9635

-----------------------------------------------------------------------------
         ABSORPTION SPECTRUM VIA TRANSITION ELECTRIC DIPOLE MOMENTS
-----------------------------------------------------------------------------
State   Energy    Wavelength  fosc         T2        TX        TY        TZ
        (cm-1)      (nm)                 (au**2)    (au)      (au)      (au)
-----------------------------------------------------------------------------
   1   27135.3    368.5   0.000014134   0.00017   0.01136  -0.00151  -0.00634

FINAL SINGLE POINT ENERGY      -191.660977572769

DIPOLE MOMENT
-------------
                                X             Y             Z
Electronic contribution:     -1.90978      -1.49398      -0.06224
Nuclear contribution   :      2.16040       2.33239       0.08787
                        -----------------------------------------
Total Dipole Moment    :      0.25062       0.83840       0.02563
                        -----------------------------------------
Magnitude (a.u.)       :      0.87544
Magnitude (Debye)      :      2.22518

Rotational constants in cm-1:     0.704801     0.208561     0.161016
Rotational constants in MHz : 21129.391941  6252.487302  4827.130519

                             ****ORCA TERMINATED NORMALLY****
TOTAL RUN TIME: 0 days 0 hours 3 minutes 19 seconds 983 msec
