                         Program Version 5.0.3 -  RELEASE  -
|  1> ! HF-3c
|  2> !TightSCF
|  3> %scf
|  4>  ConvForced true
|  5>  convergence tight
|  6>  MaxIter 500
|  7> end
|  8>
|  9> %tddft
| 10>  nroots 1
| 11> end
| 12>
| 13> # 	9534
| 14> * xyz 0 1
| 15> 		C   -1.173944  -0.346677  -0.071775
| 16> 		O   -1.949101  -0.619803  -0.951605
| 17> 		C    0.091871   0.468440  -0.294520
| 18> 		C    1.211069   0.085586   0.260553
| 19> 		H   -1.321162  -0.774025   0.997460
| 20> 		H   -0.039663   1.054169  -0.972447
| 21> 		H    1.197965  -0.570263   1.036700
| 22> 		H    1.996441   0.689689   0.041445
| 23> *
| 24>
| 25>                          ****END OF INPUT****

CARTESIAN COORDINATES (ANGSTROEM)
---------------------------------
  C     -1.173944   -0.346677   -0.071775
  O     -1.949101   -0.619803   -0.951605
  C      0.091871    0.468440   -0.294520
  C      1.211069    0.085586    0.260553
  H     -1.321162   -0.774025    0.997460
  H     -0.039663    1.054169   -0.972447
  H      1.197965   -0.570263    1.036700
  H      1.996441    0.689689    0.041445

 Total Charge           Charge          ....    0
 Multiplicity           Mult            ....    1
 Number of Electrons    NEL             ....   30
 Basis Dimension        Dim             ....   24

ORBITAL ENERGIES
----------------

  NO   OCC          E(Eh)            E(eV)
   0   2.0000     -20.375971      -554.4584
   1   2.0000     -11.299511      -307.4753
   2   2.0000     -11.209878      -305.0363
   3   2.0000     -11.207279      -304.9656
   4   2.0000      -1.411354       -38.4049
   5   2.0000      -1.116098       -30.3706
   6   2.0000      -0.896724       -24.4011
   7   2.0000      -0.807289       -21.9675
   8   2.0000      -0.689254       -18.7556
   9   2.0000      -0.664761       -18.0891
  10   2.0000      -0.612486       -16.6666
  11   2.0000      -0.578117       -15.7314
  12   2.0000      -0.536125       -14.5887
  13   2.0000      -0.422550       -11.4982
  14   2.0000      -0.409410       -11.1406
  15   0.0000       0.142210         3.8697
  16   0.0000       0.268763         7.3134
  17   0.0000       0.532377        14.4867
  18   0.0000       0.634108        17.2550
  19   0.0000       0.723871        19.6975

MULLIKEN ATOMIC CHARGES
-----------------------
   0 C :    0.191035
   1 O :   -0.352307
   2 C :   -0.180366
   3 C :   -0.253969
   4 H :    0.133246
   5 H :    0.152625
   6 H :    0.152334
   7 H :    0.157401
Sum of atomic charges:   -0.0000000

LOEWDIN ATOMIC CHARGES
----------------------
   0 C :    0.160623
   1 O :   -0.253317
   2 C :   -0.115955
   3 C :   -0.142442
   4 H :    0.074226
   5 H :    0.082580
   6 H :    0.095296
   7 H :    0.098989

  Mayer bond orders larger than 0.100000
B(  0-C ,  1-O ) :   1.9377 B(  0-C ,  2-C ) :   0.9874 B(  0-C ,  4-H ) :   0.9169
B(  2-C ,  3-C ) :   1.9744 B(  2-C ,  5-H ) :   0.9623 B(  3-C ,  6-H ) :   0.9639
B(  3-C ,  7-H ) :   0.9614

-----------------------------------------------------------------------------
         ABSORPTION SPECTRUM VIA TRANSITION ELECTRIC DIPOLE MOMENTS
-----------------------------------------------------------------------------
State   Energy    Wavelength  fosc         T2        TX        TY        TZ
        (cm-1)      (nm)                 (au**2)    (au)      (au)      (au)
-----------------------------------------------------------------------------
   1   34279.6    291.7   0.000088287   0.00085   0.01814  -0.01332   0.01847

Dispersion correction           -0.026061423
FINAL SINGLE POINT ENERGY      -189.284186261684

DIPOLE MOMENT
-------------
                                X             Y             Z
Electronic contribution:     -2.80630      -0.63260      -1.31823
Nuclear contribution   :      3.55862       0.83765       2.05461
                        -----------------------------------------
Total Dipole Moment    :      0.75231       0.20504       0.73638
                        -----------------------------------------
Magnitude (a.u.)       :      1.07251
Magnitude (Debye)      :      2.72610

Rotational constants in cm-1:     1.388650     0.158903     0.148962
Rotational constants in MHz : 41630.688040  4763.781979  4465.777612

                             ****ORCA TERMINATED NORMALLY****
TOTAL RUN TIME: 0 days 0 hours 0 minutes 14 seconds 748 msec
