                         Program Version 5.0.3 -  RELEASE  -
|  1> ! HF-3c
|  2> !TightSCF
|  3> %scf
|  4>  ConvForced true
|  5>  convergence tight
|  6>  MaxIter 500
|  7> end
|  8>
|  9> %tddft
| 10>  nroots 1
| 11> end
| 12>
| 13> # 	31810
| 14> * xyz 0 1
| 15> 		C   -0.558047  -0.407313   0.067405
| 16> 		O   -0.595318  -1.676509  -0.027593
| 17> 		C    0.628940   0.422180  -0.070879
| 18> 		C    1.829394  -0.102809   0.035889
| 19> 		H   -1.518138   0.137119   0.157831
| 20> 		H    0.495578   1.381818  -0.168350
| 21> 		H    1.798828  -1.141120  -0.161388
| 22> 		H    2.983673   0.509382   0.227893
| 23> *
| 24>
| 25>                          ****END OF INPUT****

CARTESIAN COORDINATES (ANGSTROEM)
---------------------------------
  C     -0.558047   -0.407313    0.067405
  O     -0.595318   -1.676509   -0.027593
  C      0.628940    0.422180   -0.070879
  C      1.829394   -0.102809    0.035889
  H     -1.518138    0.137119    0.157831
  H      0.495578    1.381818   -0.168350
  H      1.798828   -1.141120   -0.161388
  H      2.983673    0.509382    0.227893

 Total Charge           Charge          ....    0
 Multiplicity           Mult            ....    1
 Number of Electrons    NEL             ....   30
 Basis Dimension        Dim             ....   24

ORBITAL ENERGIES
----------------

  NO   OCC          E(Eh)            E(eV)
   0   2.0000     -20.338814      -553.4473
   1   2.0000     -11.280238      -306.9509
   2   2.0000     -11.197287      -304.6937
   3   2.0000     -11.187620      -304.4306
   4   2.0000      -1.352007       -36.7900
   5   2.0000      -1.094460       -29.7818
   6   2.0000      -0.890455       -24.2305
   7   2.0000      -0.757102       -20.6018
   8   2.0000      -0.692191       -18.8355
   9   2.0000      -0.605448       -16.4751
  10   2.0000      -0.565457       -15.3869
  11   2.0000      -0.534229       -14.5371
  12   2.0000      -0.507310       -13.8046
  13   2.0000      -0.414754       -11.2860
  14   2.0000      -0.382858       -10.4181
  15   0.0000       0.122671         3.3380
  16   0.0000       0.296162         8.0590
  17   0.0000       0.420359        11.4385
  18   0.0000       0.611324        16.6350
  19   0.0000       0.679520        18.4907

MULLIKEN ATOMIC CHARGES
-----------------------
   0 C :    0.151156
   1 O :   -0.351911
   2 C :   -0.224396
   3 C :   -0.180569
   4 H :    0.140082
   5 H :    0.140867
   6 H :    0.158551
   7 H :    0.166219
Sum of atomic charges:   -0.0000000

LOEWDIN ATOMIC CHARGES
----------------------
   0 C :    0.148402
   1 O :   -0.277909
   2 C :   -0.169275
   3 C :   -0.090881
   4 H :    0.078429
   5 H :    0.080669
   6 H :    0.100952
   7 H :    0.129614

  Mayer bond orders larger than 0.100000
B(  0-C ,  1-O ) :   1.8856 B(  0-C ,  2-C ) :   1.0503 B(  0-C ,  4-H ) :   0.9324
B(  2-C ,  3-C ) :   1.9200 B(  2-C ,  5-H ) :   0.9615 B(  3-C ,  6-H ) :   0.9563
B(  3-C ,  7-H ) :   0.9520

-----------------------------------------------------------------------------
         ABSORPTION SPECTRUM VIA TRANSITION ELECTRIC DIPOLE MOMENTS
-----------------------------------------------------------------------------
State   Energy    Wavelength  fosc         T2        TX        TY        TZ
        (cm-1)      (nm)                 (au**2)    (au)      (au)      (au)
-----------------------------------------------------------------------------
   1   29860.1    334.9   0.000067198   0.00074  -0.02375   0.00515  -0.01225

Dispersion correction           -0.026043873
FINAL SINGLE POINT ENERGY      -189.296768775593

DIPOLE MOMENT
-------------
                                X             Y             Z
Electronic contribution:     -1.82514      -1.64845       0.02416
Nuclear contribution   :      2.37025       2.62091       0.05183
                        -----------------------------------------
Total Dipole Moment    :      0.54511       0.97246       0.07599
                        -----------------------------------------
Magnitude (a.u.)       :      1.11740
Magnitude (Debye)      :      2.84021

Rotational constants in cm-1:     0.772744     0.204465     0.162540
Rotational constants in MHz : 23166.270479  6129.716127  4872.830918

                             ****ORCA TERMINATED NORMALLY****
TOTAL RUN TIME: 0 days 0 hours 0 minutes 11 seconds 55 msec
