                         Program Version 5.0.3 -  RELEASE  -
|  1> ! HF-3c
|  2> !TightSCF
|  3> %scf
|  4>  ConvForced true
|  5>  convergence tight
|  6>  MaxIter 500
|  7> end
|  8>
|  9> %tddft
| 10>  nroots 1
| 11> end
| 12>
| 13> # 	23371
| 14> * xyz 0 1
| 15> 		C   -0.579696  -0.420621   0.042006
| 16> 		O   -0.542153  -1.634136  -0.011045
| 17> 		C    0.647863   0.453130  -0.056530
| 18> 		C    1.797511  -0.166881   0.000383
| 19> 		H   -1.527600   0.190487   0.016166
| 20> 		H    0.316905   1.493380   0.118609
| 21> 		H    1.717336  -1.308584   0.052944
| 22> 		H    2.811119   0.420014   0.168830
| 23> *
| 24>
| 25>                          ****END OF INPUT****

CARTESIAN COORDINATES (ANGSTROEM)
---------------------------------
  C     -0.579696   -0.420621    0.042006
  O     -0.542153   -1.634136   -0.011045
  C      0.647863    0.453130   -0.056530
  C      1.797511   -0.166881    0.000383
  H     -1.527600    0.190487    0.016166
  H      0.316905    1.493380    0.118609
  H      1.717336   -1.308584    0.052944
  H      2.811119    0.420014    0.168830

 Total Charge           Charge          ....    0
 Multiplicity           Mult            ....    1
 Number of Electrons    NEL             ....   30
 Basis Dimension        Dim             ....   24

ORBITAL ENERGIES
----------------

  NO   OCC          E(Eh)            E(eV)
   0   2.0000     -20.356919      -553.9399
   1   2.0000     -11.284841      -307.0761
   2   2.0000     -11.186217      -304.3924
   3   2.0000     -11.175940      -304.1128
   4   2.0000      -1.394229       -37.9389
   5   2.0000      -1.075657       -29.2701
   6   2.0000      -0.876924       -23.8623
   7   2.0000      -0.721625       -19.6364
   8   2.0000      -0.689815       -18.7708
   9   2.0000      -0.608463       -16.5571
  10   2.0000      -0.580625       -15.7996
  11   2.0000      -0.536238       -14.5918
  12   2.0000      -0.511397       -13.9158
  13   2.0000      -0.403019       -10.9667
  14   2.0000      -0.394006       -10.7214
  15   0.0000       0.142943         3.8897
  16   0.0000       0.308371         8.3912
  17   0.0000       0.503595        13.7035
  18   0.0000       0.557191        15.1620
  19   0.0000       0.644875        17.5479

MULLIKEN ATOMIC CHARGES
-----------------------
   0 C :    0.174280
   1 O :   -0.366819
   2 C :   -0.190789
   3 C :   -0.208520
   4 H :    0.130435
   5 H :    0.140548
   6 H :    0.170849
   7 H :    0.150016
Sum of atomic charges:   -0.0000000

LOEWDIN ATOMIC CHARGES
----------------------
   0 C :    0.153388
   1 O :   -0.272692
   2 C :   -0.149288
   3 C :   -0.117933
   4 H :    0.070094
   5 H :    0.091000
   6 H :    0.119380
   7 H :    0.106051

  Mayer bond orders larger than 0.100000
B(  0-C ,  1-O ) :   1.9121 B(  0-C ,  2-C ) :   1.0033 B(  0-C ,  4-H ) :   0.9233
B(  2-C ,  3-C ) :   1.9578 B(  2-C ,  5-H ) :   0.9588 B(  3-C ,  6-H ) :   0.9437
B(  3-C ,  7-H ) :   0.9577

-----------------------------------------------------------------------------
         ABSORPTION SPECTRUM VIA TRANSITION ELECTRIC DIPOLE MOMENTS
-----------------------------------------------------------------------------
State   Energy    Wavelength  fosc         T2        TX        TY        TZ
        (cm-1)      (nm)                 (au**2)    (au)      (au)      (au)
-----------------------------------------------------------------------------
   1   33382.8    299.6   0.000256435   0.00253  -0.04824  -0.00122  -0.01415

Dispersion correction           -0.026217915
FINAL SINGLE POINT ENERGY      -189.323842825316

DIPOLE MOMENT
-------------
                                X             Y             Z
Electronic contribution:     -1.67063      -1.61836      -0.20249
Nuclear contribution   :      1.95692       2.53346       0.33348
                        -----------------------------------------
Total Dipole Moment    :      0.28629       0.91510       0.13099
                        -----------------------------------------
Magnitude (a.u.)       :      0.96775
Magnitude (Debye)      :      2.45981

Rotational constants in cm-1:     0.725421     0.219986     0.169162
Rotational constants in MHz : 21747.576374  6595.028208  5071.348713

                             ****ORCA TERMINATED NORMALLY****
TOTAL RUN TIME: 0 days 0 hours 0 minutes 11 seconds 704 msec
