                         Program Version 5.0.3 -  RELEASE  -
|  1> ! HF-3c
|  2> !TightSCF
|  3> %scf
|  4>  ConvForced true
|  5>  convergence tight
|  6>  MaxIter 500
|  7> end
|  8>
|  9> %tddft
| 10>  nroots 1
| 11> end
| 12>
| 13> # 	18670
| 14> * xyz 0 1
| 15> 		C   -1.260579  -0.356158  -0.054160
| 16> 		O   -1.598385  -1.171788  -0.828637
| 17> 		C    0.030248   0.457685  -0.229657
| 18> 		C    1.216275   0.021315   0.193824
| 19> 		H   -1.617022  -0.088642   1.034262
| 20> 		H    0.020635   1.453755  -0.816535
| 21> 		H    1.289720  -0.928587   0.649295
| 22> 		H    1.992898   0.611177   0.024633
| 23> *
| 24>
| 25>                          ****END OF INPUT****

CARTESIAN COORDINATES (ANGSTROEM)
---------------------------------
  C     -1.260579   -0.356158   -0.054160
  O     -1.598385   -1.171788   -0.828637
  C      0.030248    0.457685   -0.229657
  C      1.216275    0.021315    0.193824
  H     -1.617022   -0.088642    1.034262
  H      0.020635    1.453755   -0.816535
  H      1.289720   -0.928587    0.649295
  H      1.992898    0.611177    0.024633

 Total Charge           Charge          ....    0
 Multiplicity           Mult            ....    1
 Number of Electrons    NEL             ....   30
 Basis Dimension        Dim             ....   24

ORBITAL ENERGIES
----------------

  NO   OCC          E(Eh)            E(eV)
   0   2.0000     -20.402646      -555.1842
   1   2.0000     -11.317240      -307.9578
   2   2.0000     -11.181830      -304.2731
   3   2.0000     -11.170399      -303.9620
   4   2.0000      -1.441896       -39.2360
   5   2.0000      -1.074595       -29.2412
   6   2.0000      -0.882515       -24.0145
   7   2.0000      -0.751857       -20.4591
   8   2.0000      -0.685191       -18.6450
   9   2.0000      -0.648685       -17.6516
  10   2.0000      -0.614003       -16.7079
  11   2.0000      -0.564848       -15.3703
  12   2.0000      -0.519781       -14.1440
  13   2.0000      -0.406114       -11.0509
  14   2.0000      -0.397245       -10.8096
  15   0.0000       0.193666         5.2699
  16   0.0000       0.220394         5.9972
  17   0.0000       0.522784        14.2257
  18   0.0000       0.588743        16.0205
  19   0.0000       0.605402        16.4738

MULLIKEN ATOMIC CHARGES
-----------------------
   0 C :    0.197826
   1 O :   -0.346057
   2 C :   -0.139053
   3 C :   -0.287780
   4 H :    0.145147
   5 H :    0.148335
   6 H :    0.141166
   7 H :    0.140415
Sum of atomic charges:   -0.0000000

LOEWDIN ATOMIC CHARGES
----------------------
   0 C :    0.162667
   1 O :   -0.234595
   2 C :   -0.101032
   3 C :   -0.188796
   4 H :    0.084985
   5 H :    0.101882
   6 H :    0.090313
   7 H :    0.084577

  Mayer bond orders larger than 0.100000
B(  0-C ,  1-O ) :   1.9710 B(  0-C ,  2-C ) :   0.9614 B(  0-C ,  4-H ) :   0.9008
B(  2-C ,  3-C ) :   2.0029 B(  2-C ,  5-H ) :   0.9499 B(  3-C ,  6-H ) :   0.9664
B(  3-C ,  7-H ) :   0.9671

-----------------------------------------------------------------------------
         ABSORPTION SPECTRUM VIA TRANSITION ELECTRIC DIPOLE MOMENTS
-----------------------------------------------------------------------------
State   Energy    Wavelength  fosc         T2        TX        TY        TZ
        (cm-1)      (nm)                 (au**2)    (au)      (au)      (au)
-----------------------------------------------------------------------------
   1   36691.4    272.5   0.000112659   0.00101  -0.02262   0.01292   0.01823

Dispersion correction           -0.025166754
FINAL SINGLE POINT ENERGY      -189.295136276345

DIPOLE MOMENT
-------------
                                X             Y             Z
Electronic contribution:     -2.91952      -1.38242      -1.13293
Nuclear contribution   :      3.17394       2.05531       1.72741
                        -----------------------------------------
Total Dipole Moment    :      0.25442       0.67289       0.59447
                        -----------------------------------------
Magnitude (a.u.)       :      0.93323
Magnitude (Debye)      :      2.37207

Rotational constants in cm-1:     0.953829     0.168693     0.159907
Rotational constants in MHz : 28595.076046  5057.274841  4793.899071

                             ****ORCA TERMINATED NORMALLY****
TOTAL RUN TIME: 0 days 0 hours 0 minutes 11 seconds 522 msec
