                         Program Version 5.0.3 -  RELEASE  -
|  1> ! B3LYP cc-pVDZ
|  2> !TightSCF
|  3> %scf
|  4>  ConvForced true
|  5>  convergence tight
|  6>  MaxIter 500
|  7> end
|  8>
|  9> %tddft
| 10>  nroots 1
| 11> end
| 12>
| 13> # 	561
| 14> * xyz 0 1
| 15> 		C   -1.268274  -0.336498  -0.003243
| 16> 		O   -1.303494  -1.491887  -0.193689
| 17> 		C    0.045274   0.521560  -0.153867
| 18> 		C    1.236043   0.036814  -0.025040
| 19> 		H   -2.208527   0.124174   0.524380
| 20> 		H   -0.151660   1.473089  -0.457307
| 21> 		H    1.349093  -0.966448   0.214054
| 22> 		H    2.295727   0.618005   0.110318
| 23> *
| 24>
| 25>                          ****END OF INPUT****

CARTESIAN COORDINATES (ANGSTROEM)
---------------------------------
  C     -1.268274   -0.336498   -0.003243
  O     -1.303494   -1.491887   -0.193689
  C      0.045274    0.521560   -0.153867
  C      1.236043    0.036814   -0.025040
  H     -2.208527    0.124174    0.524380
  H     -0.151660    1.473089   -0.457307
  H      1.349093   -0.966448    0.214054
  H      2.295727    0.618005    0.110318

 Total Charge           Charge          ....    0
 Multiplicity           Mult            ....    1
 Number of Electrons    NEL             ....   30
 Basis Dimension        Dim             ....   76

ORBITAL ENERGIES
----------------

  NO   OCC          E(Eh)            E(eV)
   0   2.0000     -19.144461      -520.9473
   1   2.0000     -10.284547      -279.8568
   2   2.0000     -10.207584      -277.7625
   3   2.0000     -10.198279      -277.5093
   4   2.0000      -1.073571       -29.2133
   5   2.0000      -0.794711       -21.6252
   6   2.0000      -0.637094       -17.3362
   7   2.0000      -0.550552       -14.9813
   8   2.0000      -0.497979       -13.5507
   9   2.0000      -0.455862       -12.4046
  10   2.0000      -0.441485       -12.0134
  11   2.0000      -0.403025       -10.9669
  12   2.0000      -0.373720       -10.1694
  13   2.0000      -0.295121        -8.0307
  14   2.0000      -0.252420        -6.8687
  15   0.0000      -0.049559        -1.3486
  16   0.0000       0.029438         0.8010
  17   0.0000       0.072114         1.9623
  18   0.0000       0.090510         2.4629
  19   0.0000       0.116723         3.1762

MULLIKEN ATOMIC CHARGES
-----------------------
   0 C :    0.126128
   1 O :   -0.143248
   2 C :   -0.056426
   3 C :    0.042870
   4 H :   -0.005203
   5 H :   -0.030188
   6 H :    0.010615
   7 H :    0.055453
Sum of atomic charges:    0.0000000

LOEWDIN ATOMIC CHARGES
----------------------
   0 C :   -0.042933
   1 O :    0.037809
   2 C :   -0.066100
   3 C :   -0.005479
   4 H :   -0.001288
   5 H :    0.007132
   6 H :    0.015305
   7 H :    0.055554

  Mayer bond orders larger than 0.100000
B(  0-C ,  1-O ) :   2.2546 B(  0-C ,  2-C ) :   0.9543 B(  0-C ,  4-H ) :   0.8977
B(  2-C ,  3-C ) :   2.0120 B(  2-C ,  5-H ) :   0.9504 B(  3-C ,  6-H ) :   0.9268
B(  3-C ,  7-H ) :   0.9465

-----------------------------------------------------------------------------
         ABSORPTION SPECTRUM VIA TRANSITION ELECTRIC DIPOLE MOMENTS
-----------------------------------------------------------------------------
State   Energy    Wavelength  fosc         T2        TX        TY        TZ
        (cm-1)      (nm)                 (au**2)    (au)      (au)      (au)
-----------------------------------------------------------------------------
   1   31368.3    318.8   0.000739562   0.00776   0.08030   0.00425  -0.03599

FINAL SINGLE POINT ENERGY      -191.632748827483

DIPOLE MOMENT
-------------
                                X             Y             Z
Electronic contribution:     -2.19362      -1.74255      -0.53688
Nuclear contribution   :      2.48982       2.48985       0.69313
                        -----------------------------------------
Total Dipole Moment    :      0.29619       0.74729       0.15624
                        -----------------------------------------
Magnitude (a.u.)       :      0.81890
Magnitude (Debye)      :      2.08147

Rotational constants in cm-1:     0.832054     0.190141     0.157578
Rotational constants in MHz : 24944.340435  5700.278863  4724.074991

                             ****ORCA TERMINATED NORMALLY****
TOTAL RUN TIME: 0 days 0 hours 3 minutes 28 seconds 58 msec
