                         Program Version 5.0.3 -  RELEASE  -
|  1> ! HF-3c
|  2> !TightSCF
|  3> %scf
|  4>  ConvForced true
|  5>  convergence tight
|  6>  MaxIter 500
|  7> end
|  8>
|  9> %tddft
| 10>  nroots 1
| 11> end
| 12>
| 13> # 	2034
| 14> * xyz 0 1
| 15> 		C   -1.222157  -0.285577   0.054049
| 16> 		O   -2.075825  -0.422878   0.852702
| 17> 		C    0.094147   0.512892   0.384637
| 18> 		C    1.195468   0.137260  -0.244080
| 19> 		H   -1.253756  -0.993962  -0.867433
| 20> 		H    0.001063   1.161870   1.098994
| 21> 		H    1.049314  -0.696409  -1.154635
| 22> 		H    2.178868   0.596863  -0.101371
| 23> *
| 24>
| 25>                          ****END OF INPUT****

CARTESIAN COORDINATES (ANGSTROEM)
---------------------------------
  C     -1.222157   -0.285577    0.054049
  O     -2.075825   -0.422878    0.852702
  C      0.094147    0.512892    0.384637
  C      1.195468    0.137260   -0.244080
  H     -1.253756   -0.993962   -0.867433
  H      0.001063    1.161870    1.098994
  H      1.049314   -0.696409   -1.154635
  H      2.178868    0.596863   -0.101371

 Total Charge           Charge          ....    0
 Multiplicity           Mult            ....    1
 Number of Electrons    NEL             ....   30
 Basis Dimension        Dim             ....   24

ORBITAL ENERGIES
----------------

  NO   OCC          E(Eh)            E(eV)
   0   2.0000     -20.374767      -554.4256
   1   2.0000     -11.299886      -307.4855
   2   2.0000     -11.191144      -304.5265
   3   2.0000     -11.189752      -304.4886
   4   2.0000      -1.426968       -38.8298
   5   2.0000      -1.075896       -29.2766
   6   2.0000      -0.846427       -23.0324
   7   2.0000      -0.784360       -21.3435
   8   2.0000      -0.664607       -18.0849
   9   2.0000      -0.649132       -17.6638
  10   2.0000      -0.584628       -15.9085
  11   2.0000      -0.547470       -14.8974
  12   2.0000      -0.528841       -14.3905
  13   2.0000      -0.404946       -11.0191
  14   2.0000      -0.398826       -10.8526
  15   0.0000       0.157859         4.2956
  16   0.0000       0.285405         7.7663
  17   0.0000       0.458498        12.4764
  18   0.0000       0.533442        14.5157
  19   0.0000       0.615326        16.7439

MULLIKEN ATOMIC CHARGES
-----------------------
   0 C :    0.191710
   1 O :   -0.362036
   2 C :   -0.191396
   3 C :   -0.209033
   4 H :    0.131512
   5 H :    0.150155
   6 H :    0.142759
   7 H :    0.146330
Sum of atomic charges:    0.0000000

LOEWDIN ATOMIC CHARGES
----------------------
   0 C :    0.153561
   1 O :   -0.252917
   2 C :   -0.137087
   3 C :   -0.123642
   4 H :    0.073333
   5 H :    0.086758
   6 H :    0.104379
   7 H :    0.095616

  Mayer bond orders larger than 0.100000
B(  0-C ,  1-O ) :   1.9370 B(  0-C ,  2-C ) :   0.9704 B(  0-C ,  4-H ) :   0.9143
B(  2-C ,  3-C ) :   1.9795 B(  2-C ,  5-H ) :   0.9612 B(  3-C ,  6-H ) :   0.9551
B(  3-C ,  7-H ) :   0.9616

-----------------------------------------------------------------------------
         ABSORPTION SPECTRUM VIA TRANSITION ELECTRIC DIPOLE MOMENTS
-----------------------------------------------------------------------------
State   Energy    Wavelength  fosc         T2        TX        TY        TZ
        (cm-1)      (nm)                 (au**2)    (au)      (au)      (au)
-----------------------------------------------------------------------------
   1   35646.6    280.5   0.000348350   0.00322   0.02983   0.03724   0.03067

Dispersion correction           -0.025280733
FINAL SINGLE POINT ENERGY      -189.294546028927

DIPOLE MOMENT
-------------
                                X             Y             Z
Electronic contribution:     -2.96389      -0.20201       1.23835
Nuclear contribution   :      3.86618       0.21364      -1.95295
                        -----------------------------------------
Total Dipole Moment    :      0.90229       0.01163      -0.71460
                        -----------------------------------------
Magnitude (a.u.)       :      1.15105
Magnitude (Debye)      :      2.92574

Rotational constants in cm-1:     1.336637     0.156772     0.143084
Rotational constants in MHz : 40071.359928  4699.898272  4289.561688

                             ****ORCA TERMINATED NORMALLY****
TOTAL RUN TIME: 0 days 0 hours 0 minutes 10 seconds 186 msec
