                         Program Version 5.0.3 -  RELEASE  -
|  1> ! HF-3c
|  2> !TightSCF
|  3> %scf
|  4>  ConvForced true
|  5>  convergence tight
|  6>  MaxIter 500
|  7> end
|  8>
|  9> %tddft
| 10>  nroots 1
| 11> end
| 12>
| 13> # 	22750
| 14> * xyz 0 1
| 15> 		C   -0.539858  -0.438425  -0.017410
| 16> 		O   -0.570903  -1.620638   0.015027
| 17> 		C    0.643958   0.435843   0.023874
| 18> 		C    1.808865  -0.159272  -0.020461
| 19> 		H   -1.650541  -0.002697  -0.156805
| 20> 		H    0.674871   1.704973   0.096043
| 21> 		H    1.846405  -1.370682  -0.014310
| 22> 		H    2.438796   0.557204   0.010881
| 23> *
| 24>
| 25>                          ****END OF INPUT****

CARTESIAN COORDINATES (ANGSTROEM)
---------------------------------
  C     -0.539858   -0.438425   -0.017410
  O     -0.570903   -1.620638    0.015027
  C      0.643958    0.435843    0.023874
  C      1.808865   -0.159272   -0.020461
  H     -1.650541   -0.002697   -0.156805
  H      0.674871    1.704973    0.096043
  H      1.846405   -1.370682   -0.014310
  H      2.438796    0.557204    0.010881

 Total Charge           Charge          ....    0
 Multiplicity           Mult            ....    1
 Number of Electrons    NEL             ....   30
 Basis Dimension        Dim             ....   24

ORBITAL ENERGIES
----------------

  NO   OCC          E(Eh)            E(eV)
   0   2.0000     -20.359556      -554.0117
   1   2.0000     -11.292876      -307.2948
   2   2.0000     -11.183704      -304.3241
   3   2.0000     -11.181620      -304.2674
   4   2.0000      -1.417672       -38.5768
   5   2.0000      -1.094463       -29.7819
   6   2.0000      -0.875820       -23.8323
   7   2.0000      -0.725325       -19.7371
   8   2.0000      -0.686100       -18.6697
   9   2.0000      -0.598391       -16.2830
  10   2.0000      -0.590081       -16.0569
  11   2.0000      -0.550014       -14.9666
  12   2.0000      -0.507209       -13.8018
  13   2.0000      -0.400820       -10.9069
  14   2.0000      -0.394591       -10.7374
  15   0.0000       0.146921         3.9979
  16   0.0000       0.326761         8.8916
  17   0.0000       0.445982        12.1358
  18   0.0000       0.504484        13.7277
  19   0.0000       0.558066        15.1858

MULLIKEN ATOMIC CHARGES
-----------------------
   0 C :    0.177692
   1 O :   -0.372616
   2 C :   -0.158314
   3 C :   -0.255925
   4 H :    0.124029
   5 H :    0.151717
   6 H :    0.186168
   7 H :    0.147250
Sum of atomic charges:   -0.0000000

LOEWDIN ATOMIC CHARGES
----------------------
   0 C :    0.145353
   1 O :   -0.270217
   2 C :   -0.128883
   3 C :   -0.153135
   4 H :    0.068106
   5 H :    0.112427
   6 H :    0.139081
   7 H :    0.087269

  Mayer bond orders larger than 0.100000
B(  0-C ,  1-O ) :   1.9068 B(  0-C ,  2-C ) :   1.0175 B(  0-C ,  4-H ) :   0.9174
B(  2-C ,  3-C ) :   1.9506 B(  2-C ,  5-H ) :   0.9507 B(  3-C ,  6-H ) :   0.9443
B(  3-C ,  7-H ) :   0.9669

-----------------------------------------------------------------------------
         ABSORPTION SPECTRUM VIA TRANSITION ELECTRIC DIPOLE MOMENTS
-----------------------------------------------------------------------------
State   Energy    Wavelength  fosc         T2        TX        TY        TZ
        (cm-1)      (nm)                 (au**2)    (au)      (au)      (au)
-----------------------------------------------------------------------------
   1   33770.6    296.1   0.000138575   0.00135  -0.00728   0.00188   0.03598

Dispersion correction           -0.025997405
FINAL SINGLE POINT ENERGY      -189.257054152881

DIPOLE MOMENT
-------------
                                X             Y             Z
Electronic contribution:     -1.64156      -1.69216       0.04733
Nuclear contribution   :      1.94207       2.62271      -0.06051
                        -----------------------------------------
Total Dipole Moment    :      0.30051       0.93056      -0.01318
                        -----------------------------------------
Magnitude (a.u.)       :      0.97796
Magnitude (Debye)      :      2.48579

Rotational constants in cm-1:     0.771230     0.216986     0.169524
Rotational constants in MHz : 23120.899489  6505.075101  5082.190232

                             ****ORCA TERMINATED NORMALLY****
TOTAL RUN TIME: 0 days 0 hours 0 minutes 10 seconds 640 msec
