                         Program Version 5.0.3 -  RELEASE  -
|  1> ! HF-3c
|  2> !TightSCF
|  3> %scf
|  4>  ConvForced true
|  5>  convergence tight
|  6>  MaxIter 500
|  7> end
|  8>
|  9> %tddft
| 10>  nroots 1
| 11> end
| 12>
| 13> # 	22051
| 14> * xyz 0 1
| 15> 		C   -0.544371  -0.427374   0.008202
| 16> 		O   -0.604793  -1.664904  -0.010380
| 17> 		C    0.599396   0.424663  -0.007436
| 18> 		C    1.846335  -0.109145   0.028400
| 19> 		H   -1.394275   0.142894   0.036167
| 20> 		H    0.571570   1.551339  -0.032346
| 21> 		H    1.957482  -1.240965   0.007041
| 22> 		H    2.805456   0.553297  -0.206987
| 23> *
| 24>
| 25>                          ****END OF INPUT****

CARTESIAN COORDINATES (ANGSTROEM)
---------------------------------
  C     -0.544371   -0.427374    0.008202
  O     -0.604793   -1.664904   -0.010380
  C      0.599396    0.424663   -0.007436
  C      1.846335   -0.109145    0.028400
  H     -1.394275    0.142894    0.036167
  H      0.571570    1.551339   -0.032346
  H      1.957482   -1.240965    0.007041
  H      2.805456    0.553297   -0.206987

 Total Charge           Charge          ....    0
 Multiplicity           Mult            ....    1
 Number of Electrons    NEL             ....   30
 Basis Dimension        Dim             ....   24

ORBITAL ENERGIES
----------------

  NO   OCC          E(Eh)            E(eV)
   0   2.0000     -20.352844      -553.8290
   1   2.0000     -11.290591      -307.2326
   2   2.0000     -11.191385      -304.5331
   3   2.0000     -11.180694      -304.2421
   4   2.0000      -1.377098       -37.4727
   5   2.0000      -1.076776       -29.3006
   6   2.0000      -0.901977       -24.5441
   7   2.0000      -0.737595       -20.0710
   8   2.0000      -0.700314       -19.0565
   9   2.0000      -0.603762       -16.4292
  10   2.0000      -0.570715       -15.5299
  11   2.0000      -0.532994       -14.5035
  12   2.0000      -0.517504       -14.0820
  13   2.0000      -0.417240       -11.3537
  14   2.0000      -0.379913       -10.3380
  15   0.0000       0.117232         3.1900
  16   0.0000       0.312724         8.5097
  17   0.0000       0.526922        14.3383
  18   0.0000       0.585570        15.9342
  19   0.0000       0.599017        16.3001

MULLIKEN ATOMIC CHARGES
-----------------------
   0 C :    0.139039
   1 O :   -0.349862
   2 C :   -0.195355
   3 C :   -0.178394
   4 H :    0.133706
   5 H :    0.147474
   6 H :    0.156837
   7 H :    0.146555
Sum of atomic charges:   -0.0000000

LOEWDIN ATOMIC CHARGES
----------------------
   0 C :    0.140024
   1 O :   -0.267086
   2 C :   -0.157920
   3 C :   -0.087206
   4 H :    0.064421
   5 H :    0.098597
   6 H :    0.106099
   7 H :    0.103071

  Mayer bond orders larger than 0.100000
B(  0-C ,  1-O ) :   1.8768 B(  0-C ,  2-C ) :   1.0681 B(  0-C ,  4-H ) :   0.9344
B(  2-C ,  3-C ) :   1.9010 B(  2-C ,  5-H ) :   0.9573 B(  3-C ,  6-H ) :   0.9573
B(  3-C ,  7-H ) :   0.9621

-----------------------------------------------------------------------------
         ABSORPTION SPECTRUM VIA TRANSITION ELECTRIC DIPOLE MOMENTS
-----------------------------------------------------------------------------
State   Energy    Wavelength  fosc         T2        TX        TY        TZ
        (cm-1)      (nm)                 (au**2)    (au)      (au)      (au)
-----------------------------------------------------------------------------
   1   30758.6    325.1   0.000017603   0.00019  -0.00809  -0.00135  -0.01101

Dispersion correction           -0.025719551
FINAL SINGLE POINT ENERGY      -189.326647578997

DIPOLE MOMENT
-------------
                                X             Y             Z
Electronic contribution:     -1.96938      -1.74727       0.14360
Nuclear contribution   :      2.53636       2.73180      -0.18325
                        -----------------------------------------
Total Dipole Moment    :      0.56698       0.98454      -0.03965
                        -----------------------------------------
Magnitude (a.u.)       :      1.13682
Magnitude (Debye)      :      2.88956

Rotational constants in cm-1:     0.767752     0.205911     0.162548
Rotational constants in MHz : 23016.636246  6173.063229  4873.068183

                             ****ORCA TERMINATED NORMALLY****
TOTAL RUN TIME: 0 days 0 hours 0 minutes 10 seconds 488 msec
