                         Program Version 5.0.3 -  RELEASE  -
|  1> ! HF-3c
|  2> !TightSCF
|  3> %scf
|  4>  ConvForced true
|  5>  convergence tight
|  6>  MaxIter 500
|  7> end
|  8>
|  9> %tddft
| 10>  nroots 1
| 11> end
| 12>
| 13> # 	29181
| 14> * xyz 0 1
| 15> 		C   -0.596492  -0.474263  -0.031601
| 16> 		O   -0.575513  -1.621825   0.039916
| 17> 		C    0.627300   0.460079   0.036491
| 18> 		C    1.859124  -0.142282  -0.053102
| 19> 		H   -1.520589   0.038986  -0.336304
| 20> 		H    0.503138   1.553794   0.194265
| 21> 		H    1.855464  -1.180962  -0.194335
| 22> 		H    2.737430   0.422921   0.310831
| 23> *
| 24>
| 25>                          ****END OF INPUT****

CARTESIAN COORDINATES (ANGSTROEM)
---------------------------------
  C     -0.596492   -0.474263   -0.031601
  O     -0.575513   -1.621825    0.039916
  C      0.627300    0.460079    0.036491
  C      1.859124   -0.142282   -0.053102
  H     -1.520589    0.038986   -0.336304
  H      0.503138    1.553794    0.194265
  H      1.855464   -1.180962   -0.194335
  H      2.737430    0.422921    0.310831

 Total Charge           Charge          ....    0
 Multiplicity           Mult            ....    1
 Number of Electrons    NEL             ....   30
 Basis Dimension        Dim             ....   24

ORBITAL ENERGIES
----------------

  NO   OCC          E(Eh)            E(eV)
   0   2.0000     -20.390617      -554.8569
   1   2.0000     -11.312580      -307.8309
   2   2.0000     -11.180279      -304.2309
   3   2.0000     -11.176965      -304.1407
   4   2.0000      -1.453501       -39.5518
   5   2.0000      -1.058871       -28.8133
   6   2.0000      -0.875523       -23.8242
   7   2.0000      -0.749814       -20.4035
   8   2.0000      -0.707534       -19.2530
   9   2.0000      -0.624298       -16.9880
  10   2.0000      -0.595002       -16.1908
  11   2.0000      -0.560279       -15.2460
  12   2.0000      -0.545698       -14.8492
  13   2.0000      -0.407841       -11.0979
  14   2.0000      -0.382466       -10.4074
  15   0.0000       0.140123         3.8129
  16   0.0000       0.296671         8.0728
  17   0.0000       0.545995        14.8573
  18   0.0000       0.596230        16.2242
  19   0.0000       0.660076        17.9616

MULLIKEN ATOMIC CHARGES
-----------------------
   0 C :    0.189014
   1 O :   -0.364683
   2 C :   -0.162585
   3 C :   -0.234483
   4 H :    0.128432
   5 H :    0.141237
   6 H :    0.154839
   7 H :    0.148227
Sum of atomic charges:    0.0000000

LOEWDIN ATOMIC CHARGES
----------------------
   0 C :    0.153044
   1 O :   -0.246246
   2 C :   -0.126508
   3 C :   -0.133332
   4 H :    0.062621
   5 H :    0.092177
   6 H :    0.098565
   7 H :    0.099679

  Mayer bond orders larger than 0.100000
B(  0-C ,  1-O ) :   1.9320 B(  0-C ,  2-C ) :   0.9841 B(  0-C ,  4-H ) :   0.9171
B(  2-C ,  3-C ) :   1.9590 B(  2-C ,  5-H ) :   0.9626 B(  3-C ,  6-H ) :   0.9612
B(  3-C ,  7-H ) :   0.9647

-----------------------------------------------------------------------------
         ABSORPTION SPECTRUM VIA TRANSITION ELECTRIC DIPOLE MOMENTS
-----------------------------------------------------------------------------
State   Energy    Wavelength  fosc         T2        TX        TY        TZ
        (cm-1)      (nm)                 (au**2)    (au)      (au)      (au)
-----------------------------------------------------------------------------
   1   36095.8    277.0   0.000088601   0.00081  -0.01876  -0.01388  -0.01623

Dispersion correction           -0.025631358
FINAL SINGLE POINT ENERGY      -189.312159428248

DIPOLE MOMENT
-------------
                                X             Y             Z
Electronic contribution:     -1.95356      -1.67985       0.01872
Nuclear contribution   :      2.19701       2.57257      -0.02564
                        -----------------------------------------
Total Dipole Moment    :      0.24345       0.89272      -0.00693
                        -----------------------------------------
Magnitude (a.u.)       :      0.92534
Magnitude (Debye)      :      2.35203

Rotational constants in cm-1:     0.755375     0.207495     0.163967
Rotational constants in MHz : 22645.560586  6220.548509  4915.594173

                             ****ORCA TERMINATED NORMALLY****
TOTAL RUN TIME: 0 days 0 hours 0 minutes 15 seconds 334 msec
