                         Program Version 5.0.3 -  RELEASE  -
|  1> ! HF-3c
|  2> !TightSCF
|  3> %scf
|  4>  ConvForced true
|  5>  convergence tight
|  6>  MaxIter 500
|  7> end
|  8>
|  9> %tddft
| 10>  nroots 1
| 11> end
| 12>
| 13> # 	23435
| 14> * xyz 0 1
| 15> 		C   -0.575111  -0.483055   0.018679
| 16> 		O   -0.613469  -1.664213  -0.013592
| 17> 		C    0.659438   0.498528   0.033172
| 18> 		C    1.862575  -0.132292  -0.020429
| 19> 		H   -1.455192   0.145090  -0.121639
| 20> 		H    0.316980   1.504804  -0.121352
| 21> 		H    1.968532  -1.161854   0.184936
| 22> 		H    2.680598   0.569370  -0.113025
| 23> *
| 24>
| 25>                          ****END OF INPUT****

CARTESIAN COORDINATES (ANGSTROEM)
---------------------------------
  C     -0.575111   -0.483055    0.018679
  O     -0.613469   -1.664213   -0.013592
  C      0.659438    0.498528    0.033172
  C      1.862575   -0.132292   -0.020429
  H     -1.455192    0.145090   -0.121639
  H      0.316980    1.504804   -0.121352
  H      1.968532   -1.161854    0.184936
  H      2.680598    0.569370   -0.113025

 Total Charge           Charge          ....    0
 Multiplicity           Mult            ....    1
 Number of Electrons    NEL             ....   30
 Basis Dimension        Dim             ....   24

ORBITAL ENERGIES
----------------

  NO   OCC          E(Eh)            E(eV)
   0   2.0000     -20.377898      -554.5108
   1   2.0000     -11.295343      -307.3619
   2   2.0000     -11.190091      -304.4979
   3   2.0000     -11.182822      -304.3001
   4   2.0000      -1.420777       -38.6613
   5   2.0000      -1.066938       -29.0328
   6   2.0000      -0.885034       -24.0830
   7   2.0000      -0.748967       -20.3804
   8   2.0000      -0.697610       -18.9829
   9   2.0000      -0.624490       -16.9932
  10   2.0000      -0.592052       -16.1105
  11   2.0000      -0.555749       -15.1227
  12   2.0000      -0.546635       -14.8747
  13   2.0000      -0.394324       -10.7301
  14   2.0000      -0.393052       -10.6955
  15   0.0000       0.141899         3.8613
  16   0.0000       0.288265         7.8441
  17   0.0000       0.517444        14.0804
  18   0.0000       0.604046        16.4369
  19   0.0000       0.651312        17.7231

MULLIKEN ATOMIC CHARGES
-----------------------
   0 C :    0.184520
   1 O :   -0.364572
   2 C :   -0.161655
   3 C :   -0.233999
   4 H :    0.120494
   5 H :    0.144435
   6 H :    0.164735
   7 H :    0.146041
Sum of atomic charges:    0.0000000

LOEWDIN ATOMIC CHARGES
----------------------
   0 C :    0.155555
   1 O :   -0.256607
   2 C :   -0.120416
   3 C :   -0.129521
   4 H :    0.056619
   5 H :    0.091687
   6 H :    0.107247
   7 H :    0.095435

  Mayer bond orders larger than 0.100000
B(  0-C ,  1-O ) :   1.9358 B(  0-C ,  2-C ) :   0.9751 B(  0-C ,  4-H ) :   0.9222
B(  2-C ,  3-C ) :   1.9635 B(  2-C ,  5-H ) :   0.9640 B(  3-C ,  6-H ) :   0.9590
B(  3-C ,  7-H ) :   0.9646

-----------------------------------------------------------------------------
         ABSORPTION SPECTRUM VIA TRANSITION ELECTRIC DIPOLE MOMENTS
-----------------------------------------------------------------------------
State   Energy    Wavelength  fosc         T2        TX        TY        TZ
        (cm-1)      (nm)                 (au**2)    (au)      (au)      (au)
-----------------------------------------------------------------------------
   1   34398.1    290.7   0.000003301   0.00003   0.00316  -0.00463   0.00039

Dispersion correction           -0.025536637
FINAL SINGLE POINT ENERGY      -189.320169153132

DIPOLE MOMENT
-------------
                                X             Y             Z
Electronic contribution:     -1.83434      -1.81865       0.14142
Nuclear contribution   :      2.13511       2.77933      -0.15986
                        -----------------------------------------
Total Dipole Moment    :      0.30077       0.96069      -0.01844
                        -----------------------------------------
Magnitude (a.u.)       :      1.00684
Magnitude (Debye)      :      2.55918

Rotational constants in cm-1:     0.748310     0.200544     0.158463
Rotational constants in MHz : 22433.781374  6012.152606  4750.596732

                             ****ORCA TERMINATED NORMALLY****
TOTAL RUN TIME: 0 days 0 hours 0 minutes 12 seconds 488 msec
