                         Program Version 5.0.3 -  RELEASE  -
|  1> ! HF-3c
|  2> !TightSCF
|  3> %scf
|  4>  ConvForced true
|  5>  convergence tight
|  6>  MaxIter 500
|  7> end
|  8>
|  9> %tddft
| 10>  nroots 1
| 11> end
| 12>
| 13> # 	29046
| 14> * xyz 0 1
| 15> 		C   -0.544949  -0.455856   0.050244
| 16> 		O   -0.575129  -1.605065  -0.014291
| 17> 		C    0.595199   0.450865   0.003911
| 18> 		C    1.819395  -0.192781  -0.014396
| 19> 		H   -1.380923   0.119659  -0.231553
| 20> 		H    0.602807   1.490733  -0.086950
| 21> 		H    1.924711  -1.085599   0.018295
| 22> 		H    2.681383   0.552673   0.055237
| 23> *
| 24>
| 25>                          ****END OF INPUT****

CARTESIAN COORDINATES (ANGSTROEM)
---------------------------------
  C     -0.544949   -0.455856    0.050244
  O     -0.575129   -1.605065   -0.014291
  C      0.595199    0.450865    0.003911
  C      1.819395   -0.192781   -0.014396
  H     -1.380923    0.119659   -0.231553
  H      0.602807    1.490733   -0.086950
  H      1.924711   -1.085599    0.018295
  H      2.681383    0.552673    0.055237

 Total Charge           Charge          ....    0
 Multiplicity           Mult            ....    1
 Number of Electrons    NEL             ....   30
 Basis Dimension        Dim             ....   24

ORBITAL ENERGIES
----------------

  NO   OCC          E(Eh)            E(eV)
   0   2.0000     -20.388764      -554.8065
   1   2.0000     -11.314464      -307.8822
   2   2.0000     -11.198274      -304.7205
   3   2.0000     -11.188294      -304.4489
   4   2.0000      -1.451953       -39.5096
   5   2.0000      -1.089096       -29.6358
   6   2.0000      -0.913786       -24.8654
   7   2.0000      -0.780307       -21.2332
   8   2.0000      -0.730093       -19.8668
   9   2.0000      -0.641081       -17.4447
  10   2.0000      -0.588744       -16.0205
  11   2.0000      -0.575165       -15.6510
  12   2.0000      -0.567408       -15.4400
  13   2.0000      -0.411584       -11.1998
  14   2.0000      -0.389160       -10.5896
  15   0.0000       0.121091         3.2951
  16   0.0000       0.301821         8.2130
  17   0.0000       0.580755        15.8031
  18   0.0000       0.609074        16.5738
  19   0.0000       0.740690        20.1552

MULLIKEN ATOMIC CHARGES
-----------------------
   0 C :    0.178175
   1 O :   -0.358551
   2 C :   -0.171624
   3 C :   -0.224414
   4 H :    0.125216
   5 H :    0.150208
   6 H :    0.147456
   7 H :    0.153532
Sum of atomic charges:    0.0000000

LOEWDIN ATOMIC CHARGES
----------------------
   0 C :    0.149817
   1 O :   -0.244085
   2 C :   -0.129585
   3 C :   -0.111779
   4 H :    0.055436
   5 H :    0.093892
   6 H :    0.079588
   7 H :    0.106715

  Mayer bond orders larger than 0.100000
B(  0-C ,  1-O ) :   1.9083 B(  0-C ,  2-C ) :   1.0245 B(  0-C ,  4-H ) :   0.9203
B(  2-C ,  3-C ) :   1.9269 B(  2-C ,  5-H ) :   0.9650 B(  3-C ,  6-H ) :   0.9712
B(  3-C ,  7-H ) :   0.9661

-----------------------------------------------------------------------------
         ABSORPTION SPECTRUM VIA TRANSITION ELECTRIC DIPOLE MOMENTS
-----------------------------------------------------------------------------
State   Energy    Wavelength  fosc         T2        TX        TY        TZ
        (cm-1)      (nm)                 (au**2)    (au)      (au)      (au)
-----------------------------------------------------------------------------
   1   33614.3    297.5   0.000026548   0.00026  -0.00194   0.00825   0.01372

Dispersion correction           -0.026586046
FINAL SINGLE POINT ENERGY      -189.264157912723

DIPOLE MOMENT
-------------
                                X             Y             Z
Electronic contribution:     -2.02897      -1.80968       0.22931
Nuclear contribution   :      2.43279       2.79942      -0.23017
                        -----------------------------------------
Total Dipole Moment    :      0.40383       0.98974      -0.00086
                        -----------------------------------------
Magnitude (a.u.)       :      1.06895
Magnitude (Debye)      :      2.71705

Rotational constants in cm-1:     0.783812     0.218951     0.171496
Rotational constants in MHz : 23498.106907  6563.984663  5141.331666

                             ****ORCA TERMINATED NORMALLY****
TOTAL RUN TIME: 0 days 0 hours 0 minutes 11 seconds 289 msec
