                         Program Version 5.0.3 -  RELEASE  -
|  1> ! B3LYP cc-pVDZ
|  2> !TightSCF
|  3> %scf
|  4>  ConvForced true
|  5>  convergence tight
|  6>  MaxIter 500
|  7> end
|  8>
|  9> %tddft
| 10>  nroots 1
| 11> end
| 12>
| 13> # 	16394
| 14> * xyz 0 1
| 15> 		C   -1.163314  -0.363186  -0.105430
| 16> 		O   -1.971655  -0.723033  -0.947822
| 17> 		C   -0.003203   0.409115  -0.284292
| 18> 		C    1.239913   0.087603   0.195450
| 19> 		H   -1.315443  -0.684317   1.097181
| 20> 		H   -0.004824   1.242838  -1.008232
| 21> 		H    1.195937  -0.717267   0.950808
| 22> 		H    1.999335   0.650356   0.107506
| 23> *
| 24>
| 25>                          ****END OF INPUT****

CARTESIAN COORDINATES (ANGSTROEM)
---------------------------------
  C     -1.163314   -0.363186   -0.105430
  O     -1.971655   -0.723033   -0.947822
  C     -0.003203    0.409115   -0.284292
  C      1.239913    0.087603    0.195450
  H     -1.315443   -0.684317    1.097181
  H     -0.004824    1.242838   -1.008232
  H      1.195937   -0.717267    0.950808
  H      1.999335    0.650356    0.107506

 Total Charge           Charge          ....    0
 Multiplicity           Mult            ....    1
 Number of Electrons    NEL             ....   30
 Basis Dimension        Dim             ....   76

ORBITAL ENERGIES
----------------

  NO   OCC          E(Eh)            E(eV)
   0   2.0000     -19.147936      -521.0418
   1   2.0000     -10.288316      -279.9593
   2   2.0000     -10.214444      -277.9491
   3   2.0000     -10.212495      -277.8961
   4   2.0000      -1.046632       -28.4803
   5   2.0000      -0.811735       -22.0884
   6   2.0000      -0.673822       -18.3356
   7   2.0000      -0.555231       -15.1086
   8   2.0000      -0.496515       -13.5109
   9   2.0000      -0.467193       -12.7130
  10   2.0000      -0.437403       -11.9023
  11   2.0000      -0.406286       -11.0556
  12   2.0000      -0.370694       -10.0871
  13   2.0000      -0.291302        -7.9267
  14   2.0000      -0.259295        -7.0558
  15   0.0000      -0.074038        -2.0147
  16   0.0000       0.019722         0.5367
  17   0.0000       0.072771         1.9802
  18   0.0000       0.090688         2.4677
  19   0.0000       0.112540         3.0624

MULLIKEN ATOMIC CHARGES
-----------------------
   0 C :    0.140852
   1 O :   -0.183764
   2 C :   -0.089148
   3 C :    0.133731
   4 H :   -0.020276
   5 H :    0.016248
   6 H :    0.023902
   7 H :   -0.021545
Sum of atomic charges:   -0.0000000

LOEWDIN ATOMIC CHARGES
----------------------
   0 C :   -0.046996
   1 O :    0.001104
   2 C :   -0.052365
   3 C :    0.042166
   4 H :   -0.005003
   5 H :    0.039868
   6 H :    0.035758
   7 H :   -0.014532

  Mayer bond orders larger than 0.100000
B(  0-C ,  1-O ) :   2.1794 B(  0-C ,  2-C ) :   1.0654 B(  0-C ,  4-H ) :   0.8787
B(  2-C ,  3-C ) :   1.9677 B(  2-C ,  5-H ) :   0.9374 B(  3-C ,  6-H ) :   0.9471
B(  3-C ,  7-H ) :   0.9391

-----------------------------------------------------------------------------
         ABSORPTION SPECTRUM VIA TRANSITION ELECTRIC DIPOLE MOMENTS
-----------------------------------------------------------------------------
State   Energy    Wavelength  fosc         T2        TX        TY        TZ
        (cm-1)      (nm)                 (au**2)    (au)      (au)      (au)
-----------------------------------------------------------------------------
   1   28227.8    354.3   0.000230702   0.00269  -0.04035   0.01590  -0.02846

FINAL SINGLE POINT ENERGY      -191.642142862792

DIPOLE MOMENT
-------------
                                X             Y             Z
Electronic contribution:     -2.73752      -0.63734      -1.67047
Nuclear contribution   :      3.66346       1.08680       2.16044
                        -----------------------------------------
Total Dipole Moment    :      0.92594       0.44946       0.48997
                        -----------------------------------------
Magnitude (a.u.)       :      1.13994
Magnitude (Debye)      :      2.89749

Rotational constants in cm-1:     1.363921     0.156008     0.148094
Rotational constants in MHz : 40889.314674  4677.013554  4439.744546

                             ****ORCA TERMINATED NORMALLY****
TOTAL RUN TIME: 0 days 0 hours 3 minutes 27 seconds 988 msec
