                         Program Version 5.0.3 -  RELEASE  -
|  1> ! B3LYP cc-pVDZ
|  2> !TightSCF
|  3> %scf
|  4>  ConvForced true
|  5>  convergence tight
|  6>  MaxIter 500
|  7> end
|  8>
|  9> %tddft
| 10>  nroots 1
| 11> end
| 12>
| 13> # 	299
| 14> * xyz 0 1
| 15> 		C   -1.257047  -0.410630  -0.012344
| 16> 		O   -2.295501  -0.300519   0.616729
| 17> 		C    0.017293   0.368122   0.328199
| 18> 		C    1.132584   0.177321  -0.356133
| 19> 		H   -1.081127  -1.162997  -0.684547
| 20> 		H   -0.005494   1.356831   1.221534
| 21> 		H    1.429974  -0.613226  -1.011455
| 22> 		H    2.024640   0.609587  -0.114540
| 23> *
| 24>
| 25>                          ****END OF INPUT****

CARTESIAN COORDINATES (ANGSTROEM)
---------------------------------
  C     -1.257047   -0.410630   -0.012344
  O     -2.295501   -0.300519    0.616729
  C      0.017293    0.368122    0.328199
  C      1.132584    0.177321   -0.356133
  H     -1.081127   -1.162997   -0.684547
  H     -0.005494    1.356831    1.221534
  H      1.429974   -0.613226   -1.011455
  H      2.024640    0.609587   -0.114540

 Total Charge           Charge          ....    0
 Multiplicity           Mult            ....    1
 Number of Electrons    NEL             ....   30
 Basis Dimension        Dim             ....   76

ORBITAL ENERGIES
----------------

  NO   OCC          E(Eh)            E(eV)
   0   2.0000     -19.142047      -520.8816
   1   2.0000     -10.276810      -279.6462
   2   2.0000     -10.228092      -278.3205
   3   2.0000     -10.206037      -277.7204
   4   2.0000      -1.042967       -28.3806
   5   2.0000      -0.798897       -21.7391
   6   2.0000      -0.657198       -17.8833
   7   2.0000      -0.572199       -15.5703
   8   2.0000      -0.485581       -13.2133
   9   2.0000      -0.461751       -12.5649
  10   2.0000      -0.420825       -11.4512
  11   2.0000      -0.395939       -10.7740
  12   2.0000      -0.363730        -9.8976
  13   2.0000      -0.296039        -8.0556
  14   2.0000      -0.257909        -7.0181
  15   0.0000      -0.065705        -1.7879
  16   0.0000       0.039303         1.0695
  17   0.0000       0.041945         1.1414
  18   0.0000       0.081020         2.2047
  19   0.0000       0.122024         3.3205

MULLIKEN ATOMIC CHARGES
-----------------------
   0 C :    0.248305
   1 O :   -0.199909
   2 C :   -0.189661
   3 C :    0.098154
   4 H :   -0.033903
   5 H :    0.052893
   6 H :    0.016763
   7 H :    0.007357
Sum of atomic charges:   -0.0000000

LOEWDIN ATOMIC CHARGES
----------------------
   0 C :   -0.014710
   1 O :   -0.001120
   2 C :   -0.065601
   3 C :   -0.009845
   4 H :   -0.015550
   5 H :    0.062783
   6 H :    0.026961
   7 H :    0.017082

  Mayer bond orders larger than 0.100000
B(  0-C ,  1-O ) :   2.1658 B(  0-C ,  2-C ) :   1.0407 B(  0-C ,  4-H ) :   0.9307
B(  2-C ,  3-C ) :   1.9334 B(  2-C ,  5-H ) :   0.9194 B(  3-C ,  6-H ) :   0.9520
B(  3-C ,  7-H ) :   0.9401

-----------------------------------------------------------------------------
         ABSORPTION SPECTRUM VIA TRANSITION ELECTRIC DIPOLE MOMENTS
-----------------------------------------------------------------------------
State   Energy    Wavelength  fosc         T2        TX        TY        TZ
        (cm-1)      (nm)                 (au**2)    (au)      (au)      (au)
-----------------------------------------------------------------------------
   1   28908.7    345.9   0.000126287   0.00144  -0.02591  -0.02691  -0.00654

FINAL SINGLE POINT ENERGY      -191.634911060023

DIPOLE MOMENT
-------------
                                X             Y             Z
Electronic contribution:     -3.50249      -0.42960       0.68184
Nuclear contribution   :      4.58171       0.37539      -1.13413
                        -----------------------------------------
Total Dipole Moment    :      1.07922      -0.05421      -0.45229
                        -----------------------------------------
Magnitude (a.u.)       :      1.17142
Magnitude (Debye)      :      2.97751

Rotational constants in cm-1:     1.501417     0.150365     0.136849
Rotational constants in MHz : 45011.360542  4507.819855  4102.635755

                             ****ORCA TERMINATED NORMALLY****
TOTAL RUN TIME: 0 days 0 hours 3 minutes 3 seconds 288 msec
