                         Program Version 5.0.3 -  RELEASE  -
|  1> ! HF-3c
|  2> !TightSCF
|  3> %scf
|  4>  ConvForced true
|  5>  convergence tight
|  6>  MaxIter 500
|  7> end
|  8>
|  9> %tddft
| 10>  nroots 1
| 11> end
| 12>
| 13> # 	6403
| 14> * xyz 0 1
| 15> 		C   -1.219858  -0.321406  -0.058353
| 16> 		O   -1.432798  -1.382544   0.512867
| 17> 		C    0.024438   0.458481   0.183826
| 18> 		C    1.209986   0.051831  -0.150404
| 19> 		H   -2.070824  -0.007185  -0.647494
| 20> 		H    0.057903   1.391634   0.564330
| 21> 		H    1.252962  -0.971484  -0.403101
| 22> 		H    2.158749   0.736330  -0.007096
| 23> *
| 24>
| 25>                          ****END OF INPUT****

CARTESIAN COORDINATES (ANGSTROEM)
---------------------------------
  C     -1.219858   -0.321406   -0.058353
  O     -1.432798   -1.382544    0.512867
  C      0.024438    0.458481    0.183826
  C      1.209986    0.051831   -0.150404
  H     -2.070824   -0.007185   -0.647494
  H      0.057903    1.391634    0.564330
  H      1.252962   -0.971484   -0.403101
  H      2.158749    0.736330   -0.007096

 Total Charge           Charge          ....    0
 Multiplicity           Mult            ....    1
 Number of Electrons    NEL             ....   30
 Basis Dimension        Dim             ....   24

ORBITAL ENERGIES
----------------

  NO   OCC          E(Eh)            E(eV)
   0   2.0000     -20.366814      -554.2092
   1   2.0000     -11.297517      -307.4211
   2   2.0000     -11.192254      -304.5567
   3   2.0000     -11.185575      -304.3750
   4   2.0000      -1.398928       -38.0668
   5   2.0000      -1.096805       -29.8456
   6   2.0000      -0.879830       -23.9414
   7   2.0000      -0.769764       -20.9463
   8   2.0000      -0.719294       -19.5730
   9   2.0000      -0.613281       -16.6882
  10   2.0000      -0.600567       -16.3422
  11   2.0000      -0.545360       -14.8400
  12   2.0000      -0.503913       -13.7122
  13   2.0000      -0.424205       -11.5432
  14   2.0000      -0.408423       -11.1138
  15   0.0000       0.165750         4.5103
  16   0.0000       0.245163         6.6712
  17   0.0000       0.521889        14.2013
  18   0.0000       0.593403        16.1473
  19   0.0000       0.730862        19.8878

MULLIKEN ATOMIC CHARGES
-----------------------
   0 C :    0.151294
   1 O :   -0.337096
   2 C :   -0.193609
   3 C :   -0.222108
   4 H :    0.151077
   5 H :    0.151352
   6 H :    0.145639
   7 H :    0.153451
Sum of atomic charges:   -0.0000000

LOEWDIN ATOMIC CHARGES
----------------------
   0 C :    0.140966
   1 O :   -0.247057
   2 C :   -0.138617
   3 C :   -0.132465
   4 H :    0.084422
   5 H :    0.092437
   6 H :    0.091579
   7 H :    0.108735

  Mayer bond orders larger than 0.100000
B(  0-C ,  1-O ) :   1.9323 B(  0-C ,  2-C ) :   1.0009 B(  0-C ,  4-H ) :   0.9296
B(  2-C ,  3-C ) :   1.9846 B(  2-C ,  5-H ) :   0.9531 B(  3-C ,  6-H ) :   0.9635
B(  3-C ,  7-H ) :   0.9590

-----------------------------------------------------------------------------
         ABSORPTION SPECTRUM VIA TRANSITION ELECTRIC DIPOLE MOMENTS
-----------------------------------------------------------------------------
State   Energy    Wavelength  fosc         T2        TX        TY        TZ
        (cm-1)      (nm)                 (au**2)    (au)      (au)      (au)
-----------------------------------------------------------------------------
   1   32579.4    306.9   0.000020417   0.00021   0.01299  -0.00249   0.00560

Dispersion correction           -0.025582306
FINAL SINGLE POINT ENERGY      -189.313448451750

DIPOLE MOMENT
-------------
                                X             Y             Z
Electronic contribution:     -2.32722      -1.50648       0.54810
Nuclear contribution   :      2.72506       2.31389      -0.95313
                        -----------------------------------------
Total Dipole Moment    :      0.39784       0.80740      -0.40504
                        -----------------------------------------
Magnitude (a.u.)       :      0.98703
Magnitude (Debye)      :      2.50884

Rotational constants in cm-1:     0.929092     0.182646     0.162013
Rotational constants in MHz : 27853.476359  5475.589499  4857.036917

                             ****ORCA TERMINATED NORMALLY****
TOTAL RUN TIME: 0 days 0 hours 0 minutes 16 seconds 118 msec
