                         Program Version 5.0.3 -  RELEASE  -
|  1> ! HF-3c
|  2> !TightSCF
|  3> %scf
|  4>  ConvForced true
|  5>  convergence tight
|  6>  MaxIter 500
|  7> end
|  8>
|  9> %tddft
| 10>  nroots 1
| 11> end
| 12>
| 13> # 	23585
| 14> * xyz 0 1
| 15> 		C   -0.557623  -0.457213   0.050383
| 16> 		O   -0.612886  -1.646015  -0.038222
| 17> 		C    0.669007   0.439860  -0.024814
| 18> 		C    1.848211  -0.090726   0.020729
| 19> 		H   -1.488224   0.077304   0.161007
| 20> 		H    0.416599   1.338349  -0.203151
| 21> 		H    1.756523  -1.273114   0.207782
| 22> 		H    2.651021   0.480648  -0.132642
| 23> *
| 24>
| 25>                          ****END OF INPUT****

CARTESIAN COORDINATES (ANGSTROEM)
---------------------------------
  C     -0.557623   -0.457213    0.050383
  O     -0.612886   -1.646015   -0.038222
  C      0.669007    0.439860   -0.024814
  C      1.848211   -0.090726    0.020729
  H     -1.488224    0.077304    0.161007
  H      0.416599    1.338349   -0.203151
  H      1.756523   -1.273114    0.207782
  H      2.651021    0.480648   -0.132642

 Total Charge           Charge          ....    0
 Multiplicity           Mult            ....    1
 Number of Electrons    NEL             ....   30
 Basis Dimension        Dim             ....   24

ORBITAL ENERGIES
----------------

  NO   OCC          E(Eh)            E(eV)
   0   2.0000     -20.374683      -554.4233
   1   2.0000     -11.298828      -307.4567
   2   2.0000     -11.199076      -304.7424
   3   2.0000     -11.192938      -304.5753
   4   2.0000      -1.418310       -38.5942
   5   2.0000      -1.102549       -30.0019
   6   2.0000      -0.899342       -24.4723
   7   2.0000      -0.762936       -20.7606
   8   2.0000      -0.731388       -19.9021
   9   2.0000      -0.626789       -17.0558
  10   2.0000      -0.609537       -16.5864
  11   2.0000      -0.549004       -14.9391
  12   2.0000      -0.538958       -14.6658
  13   2.0000      -0.416066       -11.3217
  14   2.0000      -0.412968       -11.2374
  15   0.0000       0.142358         3.8737
  16   0.0000       0.304067         8.2741
  17   0.0000       0.495408        13.4808
  18   0.0000       0.601155        16.3583
  19   0.0000       0.712977        19.4011

MULLIKEN ATOMIC CHARGES
-----------------------
   0 C :    0.179381
   1 O :   -0.360262
   2 C :   -0.198048
   3 C :   -0.224438
   4 H :    0.131187
   5 H :    0.139890
   6 H :    0.181640
   7 H :    0.150651
Sum of atomic charges:    0.0000000

LOEWDIN ATOMIC CHARGES
----------------------
   0 C :    0.156114
   1 O :   -0.258354
   2 C :   -0.143377
   3 C :   -0.122540
   4 H :    0.065083
   5 H :    0.077459
   6 H :    0.133976
   7 H :    0.091640

  Mayer bond orders larger than 0.100000
B(  0-C ,  1-O ) :   1.9246 B(  0-C ,  2-C ) :   0.9922 B(  0-C ,  4-H ) :   0.9284
B(  2-C ,  3-C ) :   1.9669 B(  2-C ,  5-H ) :   0.9630 B(  3-C ,  6-H ) :   0.9430
B(  3-C ,  7-H ) :   0.9646

-----------------------------------------------------------------------------
         ABSORPTION SPECTRUM VIA TRANSITION ELECTRIC DIPOLE MOMENTS
-----------------------------------------------------------------------------
State   Energy    Wavelength  fosc         T2        TX        TY        TZ
        (cm-1)      (nm)                 (au**2)    (au)      (au)      (au)
-----------------------------------------------------------------------------
   1   34461.6    290.2   0.000015405   0.00015  -0.00260   0.00409  -0.01112

Dispersion correction           -0.026478650
FINAL SINGLE POINT ENERGY      -189.296195731137

DIPOLE MOMENT
-------------
                                X             Y             Z
Electronic contribution:     -1.67286      -1.60108       0.01932
Nuclear contribution   :      1.97192       2.37502       0.03188
                        -----------------------------------------
Total Dipole Moment    :      0.29906       0.77394       0.05120
                        -----------------------------------------
Magnitude (a.u.)       :      0.83129
Magnitude (Debye)      :      2.11297

Rotational constants in cm-1:     0.823783     0.204541     0.164481
Rotational constants in MHz : 24696.387481  6131.998650  4931.026196

                             ****ORCA TERMINATED NORMALLY****
TOTAL RUN TIME: 0 days 0 hours 0 minutes 16 seconds 96 msec
