                         Program Version 5.0.3 -  RELEASE  -
|  1> ! B3LYP cc-pVDZ
|  2> !TightSCF
|  3> %scf
|  4>  ConvForced true
|  5>  convergence tight
|  6>  MaxIter 500
|  7> end
|  8>
|  9> %tddft
| 10>  nroots 1
| 11> end
| 12>
| 13> # 	22206
| 14> * xyz 0 1
| 15> 		C   -0.575625  -0.441046   0.022778
| 16> 		O   -0.604651  -1.659309  -0.010076
| 17> 		C    0.649989   0.424957  -0.003779
| 18> 		C    1.835696  -0.107095  -0.009418
| 19> 		H   -1.404728   0.047770   0.033581
| 20> 		H    0.589710   1.635695  -0.144342
| 21> 		H    1.985024  -1.129934  -0.005485
| 22> 		H    2.673446   0.496141   0.163975
| 23> *
| 24>
| 25>                          ****END OF INPUT****

CARTESIAN COORDINATES (ANGSTROEM)
---------------------------------
  C     -0.575625   -0.441046    0.022778
  O     -0.604651   -1.659309   -0.010076
  C      0.649989    0.424957   -0.003779
  C      1.835696   -0.107095   -0.009418
  H     -1.404728    0.047770    0.033581
  H      0.589710    1.635695   -0.144342
  H      1.985024   -1.129934   -0.005485
  H      2.673446    0.496141    0.163975

 Total Charge           Charge          ....    0
 Multiplicity           Mult            ....    1
 Number of Electrons    NEL             ....   30
 Basis Dimension        Dim             ....   76

ORBITAL ENERGIES
----------------

  NO   OCC          E(Eh)            E(eV)
   0   2.0000     -19.138032      -520.7723
   1   2.0000     -10.264387      -279.3082
   2   2.0000     -10.209237      -277.8075
   3   2.0000     -10.195918      -277.4450
   4   2.0000      -1.041198       -28.3324
   5   2.0000      -0.800736       -21.7891
   6   2.0000      -0.669859       -18.2278
   7   2.0000      -0.558008       -15.1842
   8   2.0000      -0.510240       -13.8843
   9   2.0000      -0.445076       -12.1111
  10   2.0000      -0.427753       -11.6398
  11   2.0000      -0.396904       -10.8003
  12   2.0000      -0.375846       -10.2273
  13   2.0000      -0.291331        -7.9275
  14   2.0000      -0.256439        -6.9781
  15   0.0000      -0.067289        -1.8310
  16   0.0000       0.050280         1.3682
  17   0.0000       0.068113         1.8535
  18   0.0000       0.104858         2.8533
  19   0.0000       0.127054         3.4573

MULLIKEN ATOMIC CHARGES
-----------------------
   0 C :    0.292335
   1 O :   -0.205547
   2 C :   -0.227950
   3 C :    0.159301
   4 H :   -0.062497
   5 H :    0.023188
   6 H :    0.008713
   7 H :    0.012458
Sum of atomic charges:   -0.0000000

LOEWDIN ATOMIC CHARGES
----------------------
   0 C :   -0.001783
   1 O :   -0.006463
   2 C :   -0.085326
   3 C :    0.034577
   4 H :   -0.034109
   5 H :    0.049851
   6 H :    0.018339
   7 H :    0.024913

  Mayer bond orders larger than 0.100000
B(  0-C ,  1-O ) :   2.1881 B(  0-C ,  2-C ) :   1.0392 B(  0-C ,  4-H ) :   0.9385
B(  2-C ,  3-C ) :   1.9936 B(  2-C ,  5-H ) :   0.9273 B(  3-C ,  6-H ) :   0.9367
B(  3-C ,  7-H ) :   0.9360

-----------------------------------------------------------------------------
         ABSORPTION SPECTRUM VIA TRANSITION ELECTRIC DIPOLE MOMENTS
-----------------------------------------------------------------------------
State   Energy    Wavelength  fosc         T2        TX        TY        TZ
        (cm-1)      (nm)                 (au**2)    (au)      (au)      (au)
-----------------------------------------------------------------------------
   1   28224.8    354.3   0.000129261   0.00151  -0.03401  -0.00779   0.01704

FINAL SINGLE POINT ENERGY      -191.644918772786

DIPOLE MOMENT
-------------
                                X             Y             Z
Electronic contribution:     -2.07571      -1.86400      -0.02093
Nuclear contribution   :      2.44495       2.77254       0.04450
                        -----------------------------------------
Total Dipole Moment    :      0.36923       0.90853       0.02356
                        -----------------------------------------
Magnitude (a.u.)       :      0.98098
Magnitude (Debye)      :      2.49345

Rotational constants in cm-1:     0.795319     0.204266     0.162707
Rotational constants in MHz : 23843.064050  6123.744200  4877.840774

                             ****ORCA TERMINATED NORMALLY****
TOTAL RUN TIME: 0 days 0 hours 2 minutes 52 seconds 68 msec
