                         Program Version 5.0.3 -  RELEASE  -
|  1> ! B3LYP cc-pVDZ
|  2> !TightSCF
|  3> %scf
|  4>  ConvForced true
|  5>  convergence tight
|  6>  MaxIter 500
|  7> end
|  8>
|  9> %tddft
| 10>  nroots 1
| 11> end
| 12>
| 13> # 	19706
| 14> * xyz 0 1
| 15> 		C   -1.217483  -0.356255  -0.001556
| 16> 		O   -1.541624  -1.270387   0.655177
| 17> 		C   -0.031298   0.514910   0.202003
| 18> 		C    1.228728   0.048698  -0.039232
| 19> 		H   -1.806077  -0.015866  -0.897454
| 20> 		H   -0.042651   1.518220   0.702652
| 21> 		H    1.292020  -1.050392  -0.674618
| 22> 		H    2.064617   0.629311   0.010590
| 23> *
| 24>
| 25>                          ****END OF INPUT****

CARTESIAN COORDINATES (ANGSTROEM)
---------------------------------
  C     -1.217483   -0.356255   -0.001556
  O     -1.541624   -1.270387    0.655177
  C     -0.031298    0.514910    0.202003
  C      1.228728    0.048698   -0.039232
  H     -1.806077   -0.015866   -0.897454
  H     -0.042651    1.518220    0.702652
  H      1.292020   -1.050392   -0.674618
  H      2.064617    0.629311    0.010590

 Total Charge           Charge          ....    0
 Multiplicity           Mult            ....    1
 Number of Electrons    NEL             ....   30
 Basis Dimension        Dim             ....   76

ORBITAL ENERGIES
----------------

  NO   OCC          E(Eh)            E(eV)
   0   2.0000     -19.149937      -521.0963
   1   2.0000     -10.283621      -279.8315
   2   2.0000     -10.215326      -277.9731
   3   2.0000     -10.210582      -277.8441
   4   2.0000      -1.077381       -29.3170
   5   2.0000      -0.788703       -21.4617
   6   2.0000      -0.650815       -17.7096
   7   2.0000      -0.547720       -14.9042
   8   2.0000      -0.497815       -13.5462
   9   2.0000      -0.461207       -12.5501
  10   2.0000      -0.448195       -12.1960
  11   2.0000      -0.395350       -10.7580
  12   2.0000      -0.365881        -9.9561
  13   2.0000      -0.282484        -7.6868
  14   2.0000      -0.259819        -7.0700
  15   0.0000      -0.033081        -0.9002
  16   0.0000      -0.012993        -0.3536
  17   0.0000       0.068523         1.8646
  18   0.0000       0.085932         2.3383
  19   0.0000       0.098166         2.6712

MULLIKEN ATOMIC CHARGES
-----------------------
   0 C :    0.182409
   1 O :   -0.138322
   2 C :   -0.113048
   3 C :    0.000439
   4 H :   -0.019412
   5 H :    0.030895
   6 H :    0.045554
   7 H :    0.011486
Sum of atomic charges:   -0.0000000

LOEWDIN ATOMIC CHARGES
----------------------
   0 C :   -0.050620
   1 O :    0.054901
   2 C :   -0.068777
   3 C :   -0.023853
   4 H :   -0.009910
   5 H :    0.044268
   6 H :    0.049195
   7 H :    0.004797

  Mayer bond orders larger than 0.100000
B(  0-C ,  1-O ) :   2.2899 B(  0-C ,  2-C ) :   0.9616 B(  0-C ,  4-H ) :   0.9027
B(  2-C ,  3-C ) :   2.0191 B(  2-C ,  5-H ) :   0.9345 B(  3-C ,  6-H ) :   0.9453
B(  3-C ,  7-H ) :   0.9451

-----------------------------------------------------------------------------
         ABSORPTION SPECTRUM VIA TRANSITION ELECTRIC DIPOLE MOMENTS
-----------------------------------------------------------------------------
State   Energy    Wavelength  fosc         T2        TX        TY        TZ
        (cm-1)      (nm)                 (au**2)    (au)      (au)      (au)
-----------------------------------------------------------------------------
   1   34987.9    285.8   0.000386315   0.00363   0.05818   0.00079   0.01580

FINAL SINGLE POINT ENERGY      -191.612921047084

DIPOLE MOMENT
-------------
                                X             Y             Z
Electronic contribution:     -2.55780      -1.38963       1.19099
Nuclear contribution   :      2.96338       2.12086      -1.57239
                        -----------------------------------------
Total Dipole Moment    :      0.40558       0.73123      -0.38140
                        -----------------------------------------
Magnitude (a.u.)       :      0.91906
Magnitude (Debye)      :      2.33606

Rotational constants in cm-1:     0.890127     0.176853     0.160506
Rotational constants in MHz : 26685.348040  5301.934007  4811.847924

                             ****ORCA TERMINATED NORMALLY****
TOTAL RUN TIME: 0 days 0 hours 3 minutes 8 seconds 697 msec
