                         Program Version 5.0.3 -  RELEASE  -
|  1> ! B3LYP cc-pVDZ
|  2> !TightSCF
|  3> %scf
|  4>  ConvForced true
|  5>  convergence tight
|  6>  MaxIter 500
|  7> end
|  8>
|  9> %tddft
| 10>  nroots 1
| 11> end
| 12>
| 13> # 	6337
| 14> * xyz 0 1
| 15> 		C   -1.205984  -0.347928   0.052498
| 16> 		O   -2.142294  -0.422929   0.779679
| 17> 		C    0.098871   0.427460   0.339877
| 18> 		C    1.184697   0.088105  -0.253411
| 19> 		H   -1.329979  -1.103404  -0.971798
| 20> 		H    0.117935   1.272176   1.167606
| 21> 		H    1.190310  -0.379657  -1.223552
| 22> 		H    2.151461   0.450731   0.104135
| 23> *
| 24>
| 25>                          ****END OF INPUT****

CARTESIAN COORDINATES (ANGSTROEM)
---------------------------------
  C     -1.205984   -0.347928    0.052498
  O     -2.142294   -0.422929    0.779679
  C      0.098871    0.427460    0.339877
  C      1.184697    0.088105   -0.253411
  H     -1.329979   -1.103404   -0.971798
  H      0.117935    1.272176    1.167606
  H      1.190310   -0.379657   -1.223552
  H      2.151461    0.450731    0.104135

 Total Charge           Charge          ....    0
 Multiplicity           Mult            ....    1
 Number of Electrons    NEL             ....   30
 Basis Dimension        Dim             ....   76

ORBITAL ENERGIES
----------------

  NO   OCC          E(Eh)            E(eV)
   0   2.0000     -19.143576      -520.9232
   1   2.0000     -10.291733      -280.0523
   2   2.0000     -10.218494      -278.0594
   3   2.0000     -10.208203      -277.7793
   4   2.0000      -1.062610       -28.9151
   5   2.0000      -0.808836       -22.0095
   6   2.0000      -0.628555       -17.1039
   7   2.0000      -0.548559       -14.9270
   8   2.0000      -0.476956       -12.9786
   9   2.0000      -0.472184       -12.8488
  10   2.0000      -0.421205       -11.4616
  11   2.0000      -0.408575       -11.1179
  12   2.0000      -0.385090       -10.4788
  13   2.0000      -0.297107        -8.0847
  14   2.0000      -0.251853        -6.8533
  15   0.0000      -0.052457        -1.4274
  16   0.0000       0.032848         0.8938
  17   0.0000       0.054492         1.4828
  18   0.0000       0.074655         2.0315
  19   0.0000       0.103179         2.8076

MULLIKEN ATOMIC CHARGES
-----------------------
   0 C :    0.120035
   1 O :   -0.160162
   2 C :   -0.122008
   3 C :    0.080749
   4 H :   -0.015320
   5 H :    0.037142
   6 H :    0.027400
   7 H :    0.032164
Sum of atomic charges:    0.0000000

LOEWDIN ATOMIC CHARGES
----------------------
   0 C :   -0.053008
   1 O :    0.019224
   2 C :   -0.072709
   3 C :   -0.008667
   4 H :   -0.004219
   5 H :    0.053606
   6 H :    0.029949
   7 H :    0.035824

  Mayer bond orders larger than 0.100000
B(  0-C ,  1-O ) :   2.2073 B(  0-C ,  2-C ) :   0.9808 B(  0-C ,  4-H ) :   0.8819
B(  2-C ,  3-C ) :   1.9764 B(  2-C ,  5-H ) :   0.9354 B(  3-C ,  6-H ) :   0.9397
B(  3-C ,  7-H ) :   0.9334

-----------------------------------------------------------------------------
         ABSORPTION SPECTRUM VIA TRANSITION ELECTRIC DIPOLE MOMENTS
-----------------------------------------------------------------------------
State   Energy    Wavelength  fosc         T2        TX        TY        TZ
        (cm-1)      (nm)                 (au**2)    (au)      (au)      (au)
-----------------------------------------------------------------------------
   1   31081.3    321.7   0.000146800   0.00155  -0.02665   0.02322  -0.01747

FINAL SINGLE POINT ENERGY      -191.638214502487

DIPOLE MOMENT
-------------
                                X             Y             Z
Electronic contribution:     -3.10015      -0.28014       1.33410
Nuclear contribution   :      4.06274       0.52191      -1.74283
                        -----------------------------------------
Total Dipole Moment    :      0.96259       0.24177      -0.40874
                        -----------------------------------------
Magnitude (a.u.)       :      1.07336
Magnitude (Debye)      :      2.72827

Rotational constants in cm-1:     1.393906     0.154309     0.140875
Rotational constants in MHz : 41788.238016  4626.063659  4223.325092

                             ****ORCA TERMINATED NORMALLY****
TOTAL RUN TIME: 0 days 0 hours 3 minutes 20 seconds 80 msec
