                         Program Version 5.0.3 -  RELEASE  -
|  1> ! HF-3c
|  2> !TightSCF
|  3> %scf
|  4>  ConvForced true
|  5>  convergence tight
|  6>  MaxIter 500
|  7> end
|  8>
|  9> %tddft
| 10>  nroots 1
| 11> end
| 12>
| 13> # 	8748
| 14> * xyz 0 1
| 15> 		C   -1.128826  -0.319173   0.006575
| 16> 		O   -1.521152  -1.215374   0.777156
| 17> 		C   -0.015495   0.542216   0.118638
| 18> 		C    1.181158   0.048882  -0.097193
| 19> 		H   -1.820613  -0.244202  -0.927273
| 20> 		H   -0.143632   1.506182   0.574123
| 21> 		H    1.273226  -1.025396  -0.499184
| 22> 		H    2.187076   0.642150   0.073423
| 23> *
| 24>
| 25>                          ****END OF INPUT****

CARTESIAN COORDINATES (ANGSTROEM)
---------------------------------
  C     -1.128826   -0.319173    0.006575
  O     -1.521152   -1.215374    0.777156
  C     -0.015495    0.542216    0.118638
  C      1.181158    0.048882   -0.097193
  H     -1.820613   -0.244202   -0.927273
  H     -0.143632    1.506182    0.574123
  H      1.273226   -1.025396   -0.499184
  H      2.187076    0.642150    0.073423

 Total Charge           Charge          ....    0
 Multiplicity           Mult            ....    1
 Number of Electrons    NEL             ....   30
 Basis Dimension        Dim             ....   24

ORBITAL ENERGIES
----------------

  NO   OCC          E(Eh)            E(eV)
   0   2.0000     -20.355840      -553.9106
   1   2.0000     -11.285929      -307.1057
   2   2.0000     -11.195210      -304.6371
   3   2.0000     -11.189176      -304.4730
   4   2.0000      -1.375762       -37.4364
   5   2.0000      -1.097606       -29.8674
   6   2.0000      -0.879570       -23.9343
   7   2.0000      -0.748290       -20.3620
   8   2.0000      -0.684957       -18.6386
   9   2.0000      -0.622365       -16.9354
  10   2.0000      -0.596577       -16.2337
  11   2.0000      -0.528324       -14.3764
  12   2.0000      -0.480463       -13.0741
  13   2.0000      -0.418364       -11.3843
  14   2.0000      -0.397119       -10.8062
  15   0.0000       0.179461         4.8834
  16   0.0000       0.216606         5.8941
  17   0.0000       0.543932        14.8012
  18   0.0000       0.573829        15.6147
  19   0.0000       0.612408        16.6645

MULLIKEN ATOMIC CHARGES
-----------------------
   0 C :    0.160829
   1 O :   -0.339326
   2 C :   -0.207722
   3 C :   -0.198257
   4 H :    0.134194
   5 H :    0.160328
   6 H :    0.142273
   7 H :    0.147680
Sum of atomic charges:   -0.0000000

LOEWDIN ATOMIC CHARGES
----------------------
   0 C :    0.148667
   1 O :   -0.257561
   2 C :   -0.155485
   3 C :   -0.116977
   4 H :    0.076335
   5 H :    0.105806
   6 H :    0.096178
   7 H :    0.103036

  Mayer bond orders larger than 0.100000
B(  0-C ,  1-O ) :   1.9307 B(  0-C ,  2-C ) :   1.0227 B(  0-C ,  4-H ) :   0.9171
B(  2-C ,  3-C ) :   1.9763 B(  2-C ,  5-H ) :   0.9417 B(  3-C ,  6-H ) :   0.9616
B(  3-C ,  7-H ) :   0.9589

-----------------------------------------------------------------------------
         ABSORPTION SPECTRUM VIA TRANSITION ELECTRIC DIPOLE MOMENTS
-----------------------------------------------------------------------------
State   Energy    Wavelength  fosc         T2        TX        TY        TZ
        (cm-1)      (nm)                 (au**2)    (au)      (au)      (au)
-----------------------------------------------------------------------------
   1   31824.8    314.2   0.000041894   0.00043   0.01861  -0.00924  -0.00133

Dispersion correction           -0.025414431
FINAL SINGLE POINT ENERGY      -189.314789855674

DIPOLE MOMENT
-------------
                                X             Y             Z
Electronic contribution:     -2.28716      -1.16284       0.96149
Nuclear contribution   :      2.88543       1.83412      -1.52466
                        -----------------------------------------
Total Dipole Moment    :      0.59827       0.67127      -0.56317
                        -----------------------------------------
Magnitude (a.u.)       :      1.06099
Magnitude (Debye)      :      2.69682

Rotational constants in cm-1:     0.907456     0.181239     0.165028
Rotational constants in MHz : 27204.851330  5433.416912  4947.424319

                             ****ORCA TERMINATED NORMALLY****
TOTAL RUN TIME: 0 days 0 hours 0 minutes 11 seconds 571 msec
