                         Program Version 5.0.3 -  RELEASE  -
|  1> ! HF-3c
|  2> !TightSCF
|  3> %scf
|  4>  ConvForced true
|  5>  convergence tight
|  6>  MaxIter 500
|  7> end
|  8>
|  9> %tddft
| 10>  nroots 1
| 11> end
| 12>
| 13> # 	1329
| 14> * xyz 0 1
| 15> 		C   -1.195645  -0.337947  -0.031179
| 16> 		O   -1.777215  -0.984066  -0.848581
| 17> 		C    0.018675   0.396267  -0.290366
| 18> 		C    1.171563   0.045470   0.220159
| 19> 		H   -1.499988  -0.420192   1.130624
| 20> 		H   -0.068307   1.374791  -0.977834
| 21> 		H    1.302976  -0.667836   0.775746
| 22> 		H    2.067328   0.621949   0.058633
| 23> *
| 24>
| 25>                          ****END OF INPUT****

CARTESIAN COORDINATES (ANGSTROEM)
---------------------------------
  C     -1.195645   -0.337947   -0.031179
  O     -1.777215   -0.984066   -0.848581
  C      0.018675    0.396267   -0.290366
  C      1.171563    0.045470    0.220159
  H     -1.499988   -0.420192    1.130624
  H     -0.068307    1.374791   -0.977834
  H      1.302976   -0.667836    0.775746
  H      2.067328    0.621949    0.058633

 Total Charge           Charge          ....    0
 Multiplicity           Mult            ....    1
 Number of Electrons    NEL             ....   30
 Basis Dimension        Dim             ....   24

ORBITAL ENERGIES
----------------

  NO   OCC          E(Eh)            E(eV)
   0   2.0000     -20.380855      -554.5913
   1   2.0000     -11.305873      -307.6485
   2   2.0000     -11.205078      -304.9057
   3   2.0000     -11.189470      -304.4809
   4   2.0000      -1.421383       -38.6778
   5   2.0000      -1.101442       -29.9718
   6   2.0000      -0.900908       -24.5150
   7   2.0000      -0.767042       -20.8723
   8   2.0000      -0.689016       -18.7491
   9   2.0000      -0.653261       -17.7761
  10   2.0000      -0.610335       -16.6080
  11   2.0000      -0.558714       -15.2034
  12   2.0000      -0.511816       -13.9272
  13   2.0000      -0.417089       -11.3496
  14   2.0000      -0.404767       -11.0143
  15   0.0000       0.164749         4.4830
  16   0.0000       0.243357         6.6221
  17   0.0000       0.523519        14.2457
  18   0.0000       0.562211        15.2985
  19   0.0000       0.662368        18.0239

MULLIKEN ATOMIC CHARGES
-----------------------
   0 C :    0.180233
   1 O :   -0.346394
   2 C :   -0.137421
   3 C :   -0.284744
   4 H :    0.137485
   5 H :    0.163564
   6 H :    0.136223
   7 H :    0.151054
Sum of atomic charges:   -0.0000000

LOEWDIN ATOMIC CHARGES
----------------------
   0 C :    0.148964
   1 O :   -0.245179
   2 C :   -0.095482
   3 C :   -0.180714
   4 H :    0.080862
   5 H :    0.117286
   6 H :    0.074740
   7 H :    0.099522

  Mayer bond orders larger than 0.100000
B(  0-C ,  1-O ) :   1.9391 B(  0-C ,  2-C ) :   1.0071 B(  0-C ,  4-H ) :   0.9034
B(  2-C ,  3-C ) :   1.9874 B(  2-C ,  5-H ) :   0.9394 B(  3-C ,  6-H ) :   0.9698
B(  3-C ,  7-H ) :   0.9609

-----------------------------------------------------------------------------
         ABSORPTION SPECTRUM VIA TRANSITION ELECTRIC DIPOLE MOMENTS
-----------------------------------------------------------------------------
State   Energy    Wavelength  fosc         T2        TX        TY        TZ
        (cm-1)      (nm)                 (au**2)    (au)      (au)      (au)
-----------------------------------------------------------------------------
   1   34809.7    287.3   0.000124079   0.00117   0.01622   0.00239  -0.03008

Dispersion correction           -0.025465344
FINAL SINGLE POINT ENERGY      -189.277815244687

DIPOLE MOMENT
-------------
                                X             Y             Z
Electronic contribution:     -2.92314      -1.11675      -1.26518
Nuclear contribution   :      3.45736       1.75065       1.84089
                        -----------------------------------------
Total Dipole Moment    :      0.53422       0.63391       0.57571
                        -----------------------------------------
Magnitude (a.u.)       :      1.00929
Magnitude (Debye)      :      2.56541

Rotational constants in cm-1:     1.157197     0.164933     0.160856
Rotational constants in MHz : 34691.904394  4944.559356  4822.340109

                             ****ORCA TERMINATED NORMALLY****
TOTAL RUN TIME: 0 days 0 hours 0 minutes 12 seconds 415 msec
