                         Program Version 5.0.3 -  RELEASE  -
|  1> ! HF-3c
|  2> !TightSCF
|  3> %scf
|  4>  ConvForced true
|  5>  convergence tight
|  6>  MaxIter 500
|  7> end
|  8>
|  9> %tddft
| 10>  nroots 1
| 11> end
| 12>
| 13> # 	20671
| 14> * xyz 0 1
| 15> 		C   -0.610916  -0.449281  -0.021935
| 16> 		O   -0.584017  -1.634710  -0.003933
| 17> 		C    0.619649   0.399896  -0.000564
| 18> 		C    1.867509  -0.078522   0.027637
| 19> 		H   -1.520595   0.024908   0.137940
| 20> 		H    0.689699   1.541568   0.045895
| 21> 		H    1.922969  -1.313448   0.108266
| 22> 		H    2.804890   0.441935  -0.309090
| 23> *
| 24>
| 25>                          ****END OF INPUT****

CARTESIAN COORDINATES (ANGSTROEM)
---------------------------------
  C     -0.610916   -0.449281   -0.021935
  O     -0.584017   -1.634710   -0.003933
  C      0.619649    0.399896   -0.000564
  C      1.867509   -0.078522    0.027637
  H     -1.520595    0.024908    0.137940
  H      0.689699    1.541568    0.045895
  H      1.922969   -1.313448    0.108266
  H      2.804890    0.441935   -0.309090

 Total Charge           Charge          ....    0
 Multiplicity           Mult            ....    1
 Number of Electrons    NEL             ....   30
 Basis Dimension        Dim             ....   24

ORBITAL ENERGIES
----------------

  NO   OCC          E(Eh)            E(eV)
   0   2.0000     -20.377033      -554.4873
   1   2.0000     -11.309890      -307.7578
   2   2.0000     -11.176694      -304.1333
   3   2.0000     -11.172305      -304.0139
   4   2.0000      -1.425996       -38.8033
   5   2.0000      -1.060264       -28.8512
   6   2.0000      -0.882719       -24.0200
   7   2.0000      -0.746287       -20.3075
   8   2.0000      -0.693646       -18.8751
   9   2.0000      -0.610010       -16.5992
  10   2.0000      -0.592425       -16.1207
  11   2.0000      -0.551819       -15.0157
  12   2.0000      -0.482149       -13.1199
  13   2.0000      -0.423221       -11.5164
  14   2.0000      -0.380644       -10.3578
  15   0.0000       0.134322         3.6551
  16   0.0000       0.309163         8.4127
  17   0.0000       0.514036        13.9876
  18   0.0000       0.556905        15.1542
  19   0.0000       0.573318        15.6008

MULLIKEN ATOMIC CHARGES
-----------------------
   0 C :    0.160975
   1 O :   -0.351660
   2 C :   -0.187741
   3 C :   -0.196927
   4 H :    0.141131
   5 H :    0.142035
   6 H :    0.146063
   7 H :    0.146123
Sum of atomic charges:    0.0000000

LOEWDIN ATOMIC CHARGES
----------------------
   0 C :    0.146145
   1 O :   -0.249089
   2 C :   -0.153733
   3 C :   -0.112522
   4 H :    0.070070
   5 H :    0.095994
   6 H :    0.104638
   7 H :    0.098499

  Mayer bond orders larger than 0.100000
B(  0-C ,  1-O ) :   1.9098 B(  0-C ,  2-C ) :   1.0159 B(  0-C ,  4-H ) :   0.9298
B(  2-C ,  3-C ) :   1.9464 B(  2-C ,  5-H ) :   0.9561 B(  3-C ,  6-H ) :   0.9532
B(  3-C ,  7-H ) :   0.9633

-----------------------------------------------------------------------------
         ABSORPTION SPECTRUM VIA TRANSITION ELECTRIC DIPOLE MOMENTS
-----------------------------------------------------------------------------
State   Energy    Wavelength  fosc         T2        TX        TY        TZ
        (cm-1)      (nm)                 (au**2)    (au)      (au)      (au)
-----------------------------------------------------------------------------
   1   33917.6    294.8   0.000032647   0.00032   0.00954   0.00349  -0.01462

Dispersion correction           -0.025407969
FINAL SINGLE POINT ENERGY      -189.299562854384

DIPOLE MOMENT
-------------
                                X             Y             Z
Electronic contribution:     -2.13680      -1.58474      -0.00547
Nuclear contribution   :      2.49694       2.44151      -0.01476
                        -----------------------------------------
Total Dipole Moment    :      0.36014       0.85677      -0.02024
                        -----------------------------------------
Magnitude (a.u.)       :      0.92961
Magnitude (Debye)      :      2.36288

Rotational constants in cm-1:     0.790276     0.202736     0.161793
Rotational constants in MHz : 23691.882845  6077.862700  4850.417555

                             ****ORCA TERMINATED NORMALLY****
TOTAL RUN TIME: 0 days 0 hours 0 minutes 15 seconds 785 msec
