                         Program Version 5.0.3 -  RELEASE  -
|  1> ! HF-3c
|  2> !TightSCF
|  3> %scf
|  4>  ConvForced true
|  5>  convergence tight
|  6>  MaxIter 500
|  7> end
|  8>
|  9> %tddft
| 10>  nroots 1
| 11> end
| 12>
| 13> # 	20158
| 14> * xyz 0 1
| 15> 		C   -0.557313  -0.442529  -0.040212
| 16> 		O   -0.574327  -1.667634   0.026840
| 17> 		C    0.598079   0.490640  -0.015013
| 18> 		C    1.848786  -0.128135   0.028892
| 19> 		H   -1.624267   0.039738   0.062790
| 20> 		H    0.504995   1.570190   0.113515
| 21> 		H    1.732970  -1.293453  -0.360760
| 22> 		H    2.952718   0.322059   0.086553
| 23> *
| 24>
| 25>                          ****END OF INPUT****

CARTESIAN COORDINATES (ANGSTROEM)
---------------------------------
  C     -0.557313   -0.442529   -0.040212
  O     -0.574327   -1.667634    0.026840
  C      0.598079    0.490640   -0.015013
  C      1.848786   -0.128135    0.028892
  H     -1.624267    0.039738    0.062790
  H      0.504995    1.570190    0.113515
  H      1.732970   -1.293453   -0.360760
  H      2.952718    0.322059    0.086553

 Total Charge           Charge          ....    0
 Multiplicity           Mult            ....    1
 Number of Electrons    NEL             ....   30
 Basis Dimension        Dim             ....   24

ORBITAL ENERGIES
----------------

  NO   OCC          E(Eh)            E(eV)
   0   2.0000     -20.341709      -553.5260
   1   2.0000     -11.282620      -307.0157
   2   2.0000     -11.186014      -304.3869
   3   2.0000     -11.176415      -304.1257
   4   2.0000      -1.378617       -37.5141
   5   2.0000      -1.051354       -28.6088
   6   2.0000      -0.855923       -23.2909
   7   2.0000      -0.719872       -19.5887
   8   2.0000      -0.684023       -18.6132
   9   2.0000      -0.586908       -15.9706
  10   2.0000      -0.565518       -15.3885
  11   2.0000      -0.526587       -14.3292
  12   2.0000      -0.496818       -13.5191
  13   2.0000      -0.397697       -10.8219
  14   2.0000      -0.369605       -10.0575
  15   0.0000       0.128533         3.4976
  16   0.0000       0.295763         8.0481
  17   0.0000       0.494633        13.4597
  18   0.0000       0.516544        14.0559
  19   0.0000       0.585351        15.9282

MULLIKEN ATOMIC CHARGES
-----------------------
   0 C :    0.165573
   1 O :   -0.372135
   2 C :   -0.202322
   3 C :   -0.172066
   4 H :    0.127183
   5 H :    0.143319
   6 H :    0.159818
   7 H :    0.150630
Sum of atomic charges:   -0.0000000

LOEWDIN ATOMIC CHARGES
----------------------
   0 C :    0.148082
   1 O :   -0.284823
   2 C :   -0.163500
   3 C :   -0.086819
   4 H :    0.070777
   5 H :    0.092386
   6 H :    0.116956
   7 H :    0.106940

  Mayer bond orders larger than 0.100000
B(  0-C ,  1-O ) :   1.8879 B(  0-C ,  2-C ) :   1.0401 B(  0-C ,  4-H ) :   0.9228
B(  2-C ,  3-C ) :   1.9061 B(  2-C ,  5-H ) :   0.9604 B(  3-C ,  6-H ) :   0.9500
B(  3-C ,  7-H ) :   0.9591

-----------------------------------------------------------------------------
         ABSORPTION SPECTRUM VIA TRANSITION ELECTRIC DIPOLE MOMENTS
-----------------------------------------------------------------------------
State   Energy    Wavelength  fosc         T2        TX        TY        TZ
        (cm-1)      (nm)                 (au**2)    (au)      (au)      (au)
-----------------------------------------------------------------------------
   1   32224.9    310.3   0.000074129   0.00076   0.01221   0.00043   0.02466

Dispersion correction           -0.025281781
FINAL SINGLE POINT ENERGY      -189.304258340040

DIPOLE MOMENT
-------------
                                X             Y             Z
Electronic contribution:     -1.65482      -1.48062       0.03553
Nuclear contribution   :      2.18820       2.38866      -0.09242
                        -----------------------------------------
Total Dipole Moment    :      0.53338       0.90803      -0.05689
                        -----------------------------------------
Magnitude (a.u.)       :      1.05464
Magnitude (Debye)      :      2.68068

Rotational constants in cm-1:     0.708385     0.206374     0.160420
Rotational constants in MHz : 21236.844228  6186.930511  4809.285273

                             ****ORCA TERMINATED NORMALLY****
TOTAL RUN TIME: 0 days 0 hours 0 minutes 11 seconds 886 msec
