                         Program Version 5.0.3 -  RELEASE  -
|  1> ! HF-3c
|  2> !TightSCF
|  3> %scf
|  4>  ConvForced true
|  5>  convergence tight
|  6>  MaxIter 500
|  7> end
|  8>
|  9> %tddft
| 10>  nroots 1
| 11> end
| 12>
| 13> # 	22343
| 14> * xyz 0 1
| 15> 		C   -0.555532  -0.417202  -0.008577
| 16> 		O   -0.598368  -1.608295  -0.004299
| 17> 		C    0.634540   0.373660  -0.012583
| 18> 		C    1.873160  -0.139859   0.041507
| 19> 		H   -1.581957   0.112197   0.156119
| 20> 		H    0.326388   1.328284  -0.074376
| 21> 		H    1.942832  -1.146311  -0.124383
| 22> 		H    2.483261   0.670686  -0.142996
| 23> *
| 24>
| 25>                          ****END OF INPUT****

CARTESIAN COORDINATES (ANGSTROEM)
---------------------------------
  C     -0.555532   -0.417202   -0.008577
  O     -0.598368   -1.608295   -0.004299
  C      0.634540    0.373660   -0.012583
  C      1.873160   -0.139859    0.041507
  H     -1.581957    0.112197    0.156119
  H      0.326388    1.328284   -0.074376
  H      1.942832   -1.146311   -0.124383
  H      2.483261    0.670686   -0.142996

 Total Charge           Charge          ....    0
 Multiplicity           Mult            ....    1
 Number of Electrons    NEL             ....   30
 Basis Dimension        Dim             ....   24

ORBITAL ENERGIES
----------------

  NO   OCC          E(Eh)            E(eV)
   0   2.0000     -20.361739      -554.0711
   1   2.0000     -11.290162      -307.2209
   2   2.0000     -11.201819      -304.8170
   3   2.0000     -11.195223      -304.6375
   4   2.0000      -1.412908       -38.4472
   5   2.0000      -1.104376       -30.0516
   6   2.0000      -0.918419       -24.9914
   7   2.0000      -0.745620       -20.2894
   8   2.0000      -0.725593       -19.7444
   9   2.0000      -0.632795       -17.2192
  10   2.0000      -0.599067       -16.3014
  11   2.0000      -0.559406       -15.2222
  12   2.0000      -0.545459       -14.8427
  13   2.0000      -0.407958       -11.1011
  14   2.0000      -0.398899       -10.8546
  15   0.0000       0.118119         3.2142
  16   0.0000       0.314820         8.5667
  17   0.0000       0.560725        15.2581
  18   0.0000       0.640414        17.4265
  19   0.0000       0.695360        18.9217

MULLIKEN ATOMIC CHARGES
-----------------------
   0 C :    0.167598
   1 O :   -0.358213
   2 C :   -0.174646
   3 C :   -0.246249
   4 H :    0.128924
   5 H :    0.142038
   6 H :    0.175169
   7 H :    0.165379
Sum of atomic charges:    0.0000000

LOEWDIN ATOMIC CHARGES
----------------------
   0 C :    0.136694
   1 O :   -0.257870
   2 C :   -0.121599
   3 C :   -0.132311
   4 H :    0.070650
   5 H :    0.083141
   6 H :    0.113007
   7 H :    0.108287

  Mayer bond orders larger than 0.100000
B(  0-C ,  1-O ) :   1.8917 B(  0-C ,  2-C ) :   1.0434 B(  0-C ,  4-H ) :   0.9213
B(  2-C ,  3-C ) :   1.9296 B(  2-C ,  5-H ) :   0.9634 B(  3-C ,  6-H ) :   0.9567
B(  3-C ,  7-H ) :   0.9603

-----------------------------------------------------------------------------
         ABSORPTION SPECTRUM VIA TRANSITION ELECTRIC DIPOLE MOMENTS
-----------------------------------------------------------------------------
State   Energy    Wavelength  fosc         T2        TX        TY        TZ
        (cm-1)      (nm)                 (au**2)    (au)      (au)      (au)
-----------------------------------------------------------------------------
   1   31215.8    320.4   0.000052893   0.00056   0.00303  -0.00016   0.02342

Dispersion correction           -0.026547377
FINAL SINGLE POINT ENERGY      -189.306631586686

DIPOLE MOMENT
-------------
                                X             Y             Z
Electronic contribution:     -1.55164      -1.75305       0.10134
Nuclear contribution   :      1.81855       2.69322      -0.17345
                        -----------------------------------------
Total Dipole Moment    :      0.26692       0.94017      -0.07211
                        -----------------------------------------
Magnitude (a.u.)       :      0.97998
Magnitude (Debye)      :      2.49092

Rotational constants in cm-1:     0.814029     0.212505     0.168818
Rotational constants in MHz : 24403.982008  6370.745602  5061.029253

                             ****ORCA TERMINATED NORMALLY****
TOTAL RUN TIME: 0 days 0 hours 0 minutes 11 seconds 703 msec
