                         Program Version 5.0.3 -  RELEASE  -
|  1> ! B3LYP cc-pVDZ
|  2> !TightSCF
|  3> %scf
|  4>  ConvForced true
|  5>  convergence tight
|  6>  MaxIter 500
|  7> end
|  8>
|  9> %tddft
| 10>  nroots 1
| 11> end
| 12>
| 13> # 	14340
| 14> * xyz 0 1
| 15> 		C   -1.235524  -0.278539  -0.056793
| 16> 		O   -1.190845  -1.520270   0.054048
| 17> 		C    0.014116   0.507980   0.039391
| 18> 		C    1.275200   0.000019   0.005450
| 19> 		H   -2.233442   0.256416   0.086751
| 20> 		H   -0.256814   1.564853  -0.080584
| 21> 		H    1.500241  -1.037826  -0.124894
| 22> 		H    2.123592   0.486283   0.064991
| 23> *
| 24>
| 25>                          ****END OF INPUT****

CARTESIAN COORDINATES (ANGSTROEM)
---------------------------------
  C     -1.235524   -0.278539   -0.056793
  O     -1.190845   -1.520270    0.054048
  C      0.014116    0.507980    0.039391
  C      1.275200    0.000019    0.005450
  H     -2.233442    0.256416    0.086751
  H     -0.256814    1.564853   -0.080584
  H      1.500241   -1.037826   -0.124894
  H      2.123592    0.486283    0.064991

 Total Charge           Charge          ....    0
 Multiplicity           Mult            ....    1
 Number of Electrons    NEL             ....   30
 Basis Dimension        Dim             ....   76

ORBITAL ENERGIES
----------------

  NO   OCC          E(Eh)            E(eV)
   0   2.0000     -19.135416      -520.7011
   1   2.0000     -10.277136      -279.6551
   2   2.0000     -10.212441      -277.8947
   3   2.0000     -10.208709      -277.7931
   4   2.0000      -1.024391       -27.8751
   5   2.0000      -0.790585       -21.5129
   6   2.0000      -0.672028       -18.2868
   7   2.0000      -0.552670       -15.0389
   8   2.0000      -0.497360       -13.5338
   9   2.0000      -0.455289       -12.3890
  10   2.0000      -0.426333       -11.6011
  11   2.0000      -0.390748       -10.6328
  12   2.0000      -0.373529       -10.1642
  13   2.0000      -0.282588        -7.6896
  14   2.0000      -0.252694        -6.8762
  15   0.0000      -0.080573        -2.1925
  16   0.0000       0.044523         1.2115
  17   0.0000       0.072202         1.9647
  18   0.0000       0.098205         2.6723
  19   0.0000       0.118934         3.2363

MULLIKEN ATOMIC CHARGES
-----------------------
   0 C :    0.157294
   1 O :   -0.217073
   2 C :   -0.111416
   3 C :    0.150919
   4 H :    0.002080
   5 H :   -0.006087
   6 H :    0.029861
   7 H :   -0.005579
Sum of atomic charges:   -0.0000000

LOEWDIN ATOMIC CHARGES
----------------------
   0 C :   -0.022815
   1 O :   -0.037273
   2 C :   -0.068447
   3 C :    0.058169
   4 H :    0.007202
   5 H :    0.028016
   6 H :    0.034299
   7 H :    0.000849

  Mayer bond orders larger than 0.100000
B(  0-C ,  1-O ) :   2.1367 B(  0-C ,  2-C ) :   1.0801 B(  0-C ,  4-H ) :   0.9148
B(  1-O ,  3-C ) :   0.1020 B(  2-C ,  3-C ) :   1.9423 B(  2-C ,  5-H ) :   0.9434
B(  3-C ,  6-H ) :   0.9446 B(  3-C ,  7-H ) :   0.9496

-----------------------------------------------------------------------------
         ABSORPTION SPECTRUM VIA TRANSITION ELECTRIC DIPOLE MOMENTS
-----------------------------------------------------------------------------
State   Energy    Wavelength  fosc         T2        TX        TY        TZ
        (cm-1)      (nm)                 (au**2)    (au)      (au)      (au)
-----------------------------------------------------------------------------
   1   24748.9    404.1   0.000211881   0.00282  -0.04605  -0.00499   0.02595

FINAL SINGLE POINT ENERGY      -191.671553974070

DIPOLE MOMENT
-------------
                                X             Y             Z
Electronic contribution:     -1.78788      -1.63641       0.00921
Nuclear contribution   :      2.20599       2.53202      -0.09444
                        -----------------------------------------
Total Dipole Moment    :      0.41811       0.89560      -0.08522
                        -----------------------------------------
Magnitude (a.u.)       :      0.99206
Magnitude (Debye)      :      2.52162

Rotational constants in cm-1:     0.731650     0.205865     0.161028
Rotational constants in MHz : 21934.306961  6171.689897  4827.504214

                             ****ORCA TERMINATED NORMALLY****
TOTAL RUN TIME: 0 days 0 hours 2 minutes 50 seconds 484 msec
