                         Program Version 5.0.3 -  RELEASE  -
|  1> ! B3LYP cc-pVDZ
|  2> !TightSCF
|  3> %scf
|  4>  ConvForced true
|  5>  convergence tight
|  6>  MaxIter 500
|  7> end
|  8>
|  9> %tddft
| 10>  nroots 1
| 11> end
| 12>
| 13> # 	30315
| 14> * xyz 0 1
| 15> 		C   -0.516406  -0.410164  -0.012974
| 16> 		O   -0.613856  -1.648191   0.008972
| 17> 		C    0.637112   0.394139   0.030236
| 18> 		C    1.824352  -0.114183  -0.046178
| 19> 		H   -1.510110   0.088184  -0.085568
| 20> 		H    0.402434   1.525078   0.024848
| 21> 		H    1.984569  -1.142560   0.134131
| 22> 		H    2.665038   0.499759   0.136709
| 23> *
| 24>
| 25>                          ****END OF INPUT****

CARTESIAN COORDINATES (ANGSTROEM)
---------------------------------
  C     -0.516406   -0.410164   -0.012974
  O     -0.613856   -1.648191    0.008972
  C      0.637112    0.394139    0.030236
  C      1.824352   -0.114183   -0.046178
  H     -1.510110    0.088184   -0.085568
  H      0.402434    1.525078    0.024848
  H      1.984569   -1.142560    0.134131
  H      2.665038    0.499759    0.136709

 Total Charge           Charge          ....    0
 Multiplicity           Mult            ....    1
 Number of Electrons    NEL             ....   30
 Basis Dimension        Dim             ....   76

ORBITAL ENERGIES
----------------

  NO   OCC          E(Eh)            E(eV)
   0   2.0000     -19.132151      -520.6123
   1   2.0000     -10.266960      -279.3782
   2   2.0000     -10.208518      -277.7879
   3   2.0000     -10.207020      -277.7471
   4   2.0000      -1.025526       -27.9060
   5   2.0000      -0.817781       -22.2529
   6   2.0000      -0.673947       -18.3390
   7   2.0000      -0.539252       -14.6738
   8   2.0000      -0.515352       -14.0234
   9   2.0000      -0.454232       -12.3603
  10   2.0000      -0.419102       -11.4043
  11   2.0000      -0.393986       -10.7209
  12   2.0000      -0.377790       -10.2802
  13   2.0000      -0.296916        -8.0795
  14   2.0000      -0.250096        -6.8055
  15   0.0000      -0.078518        -2.1366
  16   0.0000       0.056292         1.5318
  17   0.0000       0.069326         1.8864
  18   0.0000       0.097692         2.6583
  19   0.0000       0.125581         3.4172

MULLIKEN ATOMIC CHARGES
-----------------------
   0 C :    0.177611
   1 O :   -0.220110
   2 C :   -0.131907
   3 C :    0.140555
   4 H :   -0.028032
   5 H :    0.011408
   6 H :    0.028205
   7 H :    0.022270
Sum of atomic charges:    0.0000000

LOEWDIN ATOMIC CHARGES
----------------------
   0 C :   -0.031565
   1 O :   -0.037100
   2 C :   -0.083448
   3 C :    0.045646
   4 H :   -0.002565
   5 H :    0.047387
   6 H :    0.031798
   7 H :    0.029848

  Mayer bond orders larger than 0.100000
B(  0-C ,  1-O ) :   2.1551 B(  0-C ,  2-C ) :   1.1090 B(  0-C ,  4-H ) :   0.9274
B(  1-O ,  3-C ) :   0.1052 B(  2-C ,  3-C ) :   1.9566 B(  2-C ,  5-H ) :   0.9366
B(  3-C ,  6-H ) :   0.9301 B(  3-C ,  7-H ) :   0.9341

-----------------------------------------------------------------------------
         ABSORPTION SPECTRUM VIA TRANSITION ELECTRIC DIPOLE MOMENTS
-----------------------------------------------------------------------------
State   Energy    Wavelength  fosc         T2        TX        TY        TZ
        (cm-1)      (nm)                 (au**2)    (au)      (au)      (au)
-----------------------------------------------------------------------------
   1   24737.1    404.3   0.000238140   0.00317   0.03835  -0.00034  -0.04121

FINAL SINGLE POINT ENERGY      -191.678262139725

DIPOLE MOMENT
-------------
                                X             Y             Z
Electronic contribution:     -1.62546      -1.74416      -0.14582
Nuclear contribution   :      2.16400       2.69747       0.19672
                        -----------------------------------------
Total Dipole Moment    :      0.53854       0.95331       0.05091
                        -----------------------------------------
Magnitude (a.u.)       :      1.09609
Magnitude (Debye)      :      2.78604

Rotational constants in cm-1:     0.803239     0.210459     0.167045
Rotational constants in MHz : 24080.496499  6309.409949  5007.888880

                             ****ORCA TERMINATED NORMALLY****
TOTAL RUN TIME: 0 days 0 hours 3 minutes 21 seconds 399 msec
