                         Program Version 5.0.3 -  RELEASE  -
|  1> ! HF-3c
|  2> !TightSCF
|  3> %scf
|  4>  ConvForced true
|  5>  convergence tight
|  6>  MaxIter 500
|  7> end
|  8>
|  9> %tddft
| 10>  nroots 1
| 11> end
| 12>
| 13> # 	10261
| 14> * xyz 0 1
| 15> 		C   -1.243544  -0.364100  -0.012407
| 16> 		O   -1.202392  -1.588133   0.097592
| 17> 		C    0.028655   0.479831   0.071140
| 18> 		C    1.223504  -0.067439  -0.068903
| 19> 		H   -2.017137   0.454325  -0.387178
| 20> 		H   -0.053158   1.512690   0.192550
| 21> 		H    1.253008  -1.088904  -0.065206
| 22> 		H    2.023979   0.622562   0.148792
| 23> *
| 24>
| 25>                          ****END OF INPUT****

CARTESIAN COORDINATES (ANGSTROEM)
---------------------------------
  C     -1.243544   -0.364100   -0.012407
  O     -1.202392   -1.588133    0.097592
  C      0.028655    0.479831    0.071140
  C      1.223504   -0.067439   -0.068903
  H     -2.017137    0.454325   -0.387178
  H     -0.053158    1.512690    0.192550
  H      1.253008   -1.088904   -0.065206
  H      2.023979    0.622562    0.148792

 Total Charge           Charge          ....    0
 Multiplicity           Mult            ....    1
 Number of Electrons    NEL             ....   30
 Basis Dimension        Dim             ....   24

ORBITAL ENERGIES
----------------

  NO   OCC          E(Eh)            E(eV)
   0   2.0000     -20.373616      -554.3943
   1   2.0000     -11.294945      -307.3511
   2   2.0000     -11.181398      -304.2613
   3   2.0000     -11.176807      -304.1364
   4   2.0000      -1.391664       -37.8691
   5   2.0000      -1.083529       -29.4843
   6   2.0000      -0.888953       -24.1896
   7   2.0000      -0.746367       -20.3097
   8   2.0000      -0.694136       -18.8884
   9   2.0000      -0.617701       -16.8085
  10   2.0000      -0.588979       -16.0269
  11   2.0000      -0.551284       -15.0012
  12   2.0000      -0.524682       -14.2773
  13   2.0000      -0.406888       -11.0720
  14   2.0000      -0.395325       -10.7573
  15   0.0000       0.133684         3.6377
  16   0.0000       0.290483         7.9045
  17   0.0000       0.510392        13.8885
  18   0.0000       0.586413        15.9571
  19   0.0000       0.641160        17.4468

MULLIKEN ATOMIC CHARGES
-----------------------
   0 C :    0.180746
   1 O :   -0.349211
   2 C :   -0.172136
   3 C :   -0.249919
   4 H :    0.146402
   5 H :    0.132491
   6 H :    0.160458
   7 H :    0.151168
Sum of atomic charges:    0.0000000

LOEWDIN ATOMIC CHARGES
----------------------
   0 C :    0.159702
   1 O :   -0.258271
   2 C :   -0.127522
   3 C :   -0.144046
   4 H :    0.089484
   5 H :    0.079219
   6 H :    0.101059
   7 H :    0.100374

  Mayer bond orders larger than 0.100000
B(  0-C ,  1-O ) :   1.9324 B(  0-C ,  2-C ) :   0.9979 B(  0-C ,  4-H ) :   0.9104
B(  2-C ,  3-C ) :   1.9610 B(  2-C ,  5-H ) :   0.9652 B(  3-C ,  6-H ) :   0.9595
B(  3-C ,  7-H ) :   0.9626

-----------------------------------------------------------------------------
         ABSORPTION SPECTRUM VIA TRANSITION ELECTRIC DIPOLE MOMENTS
-----------------------------------------------------------------------------
State   Energy    Wavelength  fosc         T2        TX        TY        TZ
        (cm-1)      (nm)                 (au**2)    (au)      (au)      (au)
-----------------------------------------------------------------------------
   1   31923.1    313.3   0.000040464   0.00042   0.01099  -0.00661   0.01591

Dispersion correction           -0.026100092
FINAL SINGLE POINT ENERGY      -189.320203968545

DIPOLE MOMENT
-------------
                                X             Y             Z
Electronic contribution:     -2.17954      -1.93682       0.10819
Nuclear contribution   :      2.31834       2.95123      -0.19193
                        -----------------------------------------
Total Dipole Moment    :      0.13880       1.01441      -0.08374
                        -----------------------------------------
Magnitude (a.u.)       :      1.02728
Magnitude (Debye)      :      2.61114

Rotational constants in cm-1:     0.746371     0.207505     0.163682
Rotational constants in MHz : 22375.632791  6220.832407  4907.049076

                             ****ORCA TERMINATED NORMALLY****
TOTAL RUN TIME: 0 days 0 hours 0 minutes 10 seconds 568 msec
