                         Program Version 5.0.3 -  RELEASE  -
|  1> ! HF-3c
|  2> !TightSCF
|  3> %scf
|  4>  ConvForced true
|  5>  convergence tight
|  6>  MaxIter 500
|  7> end
|  8>
|  9> %tddft
| 10>  nroots 1
| 11> end
| 12>
| 13> # 	30051
| 14> * xyz 0 1
| 15> 		C   -0.575691  -0.404842   0.002800
| 16> 		O   -0.626098  -1.625888   0.005270
| 17> 		C    0.645030   0.304911   0.000008
| 18> 		C    1.910617  -0.066119  -0.013716
| 19> 		H   -1.579543   0.073590  -0.012220
| 20> 		H    0.287506   1.509812  -0.048476
| 21> 		H    2.115902  -1.138434  -0.100660
| 22> 		H    2.464507   0.612423   0.219085
| 23> *
| 24>
| 25>                          ****END OF INPUT****

CARTESIAN COORDINATES (ANGSTROEM)
---------------------------------
  C     -0.575691   -0.404842    0.002800
  O     -0.626098   -1.625888    0.005270
  C      0.645030    0.304911    0.000008
  C      1.910617   -0.066119   -0.013716
  H     -1.579543    0.073590   -0.012220
  H      0.287506    1.509812   -0.048476
  H      2.115902   -1.138434   -0.100660
  H      2.464507    0.612423    0.219085

 Total Charge           Charge          ....    0
 Multiplicity           Mult            ....    1
 Number of Electrons    NEL             ....   30
 Basis Dimension        Dim             ....   24

ORBITAL ENERGIES
----------------

  NO   OCC          E(Eh)            E(eV)
   0   2.0000     -20.359672      -554.0148
   1   2.0000     -11.291002      -307.2438
   2   2.0000     -11.200408      -304.7786
   3   2.0000     -11.198571      -304.7286
   4   2.0000      -1.396541       -38.0018
   5   2.0000      -1.095841       -29.8193
   6   2.0000      -0.924949       -25.1691
   7   2.0000      -0.753869       -20.5138
   8   2.0000      -0.693891       -18.8817
   9   2.0000      -0.637649       -17.3513
  10   2.0000      -0.611987       -16.6530
  11   2.0000      -0.544169       -14.8076
  12   2.0000      -0.500138       -13.6095
  13   2.0000      -0.420367       -11.4388
  14   2.0000      -0.393538       -10.7087
  15   0.0000       0.113680         3.0934
  16   0.0000       0.324284         8.8242
  17   0.0000       0.465536        12.6679
  18   0.0000       0.604925        16.4608
  19   0.0000       0.657905        17.9025

MULLIKEN ATOMIC CHARGES
-----------------------
   0 C :    0.134511
   1 O :   -0.338796
   2 C :   -0.124822
   3 C :   -0.275953
   4 H :    0.143946
   5 H :    0.136177
   6 H :    0.174235
   7 H :    0.150701
Sum of atomic charges:    0.0000000

LOEWDIN ATOMIC CHARGES
----------------------
   0 C :    0.119954
   1 O :   -0.248652
   2 C :   -0.091874
   3 C :   -0.162427
   4 H :    0.080739
   5 H :    0.096799
   6 H :    0.119643
   7 H :    0.085818

  Mayer bond orders larger than 0.100000
B(  0-C ,  1-O ) :   1.8756 B(  0-C ,  2-C ) :   1.0643 B(  0-C ,  4-H ) :   0.9317
B(  2-C ,  3-C ) :   1.9350 B(  2-C ,  5-H ) :   0.9498 B(  3-C ,  6-H ) :   0.9529
B(  3-C ,  7-H ) :   0.9667

-----------------------------------------------------------------------------
         ABSORPTION SPECTRUM VIA TRANSITION ELECTRIC DIPOLE MOMENTS
-----------------------------------------------------------------------------
State   Energy    Wavelength  fosc         T2        TX        TY        TZ
        (cm-1)      (nm)                 (au**2)    (au)      (au)      (au)
-----------------------------------------------------------------------------
   1   28795.4    347.3   0.000035276   0.00040   0.01201   0.01026  -0.01240

Dispersion correction           -0.025778913
FINAL SINGLE POINT ENERGY      -189.281649137260

DIPOLE MOMENT
-------------
                                X             Y             Z
Electronic contribution:     -1.79074      -1.84965      -0.04444
Nuclear contribution   :      1.92811       2.77842       0.05347
                        -----------------------------------------
Total Dipole Moment    :      0.13737       0.92877       0.00902
                        -----------------------------------------
Magnitude (a.u.)       :      0.93892
Magnitude (Debye)      :      2.38653

Rotational constants in cm-1:     0.828979     0.202153     0.162721
Rotational constants in MHz : 24852.153003  6060.384015  4878.240943

                             ****ORCA TERMINATED NORMALLY****
TOTAL RUN TIME: 0 days 0 hours 0 minutes 12 seconds 545 msec
