                         Program Version 5.0.3 -  RELEASE  -
|  1> ! B3LYP cc-pVDZ
|  2> !TightSCF
|  3> %scf
|  4>  ConvForced true
|  5>  convergence tight
|  6>  MaxIter 500
|  7> end
|  8>
|  9> %tddft
| 10>  nroots 1
| 11> end
| 12>
| 13> # 	30194
| 14> * xyz 0 1
| 15> 		C   -0.664193  -0.451137   0.040402
| 16> 		O   -0.597831  -1.669889  -0.019441
| 17> 		C    0.659258   0.421108  -0.057201
| 18> 		C    1.912178  -0.071402   0.004761
| 19> 		H   -1.660225   0.188501   0.158400
| 20> 		H    0.442030   1.394056   0.026244
| 21> 		H    2.196485  -1.135303   0.125519
| 22> 		H    2.724472   0.541804   0.146178
| 23> *
| 24>
| 25>                          ****END OF INPUT****

CARTESIAN COORDINATES (ANGSTROEM)
---------------------------------
  C     -0.664193   -0.451137    0.040402
  O     -0.597831   -1.669889   -0.019441
  C      0.659258    0.421108   -0.057201
  C      1.912178   -0.071402    0.004761
  H     -1.660225    0.188501    0.158400
  H      0.442030    1.394056    0.026244
  H      2.196485   -1.135303    0.125519
  H      2.724472    0.541804    0.146178

 Total Charge           Charge          ....    0
 Multiplicity           Mult            ....    1
 Number of Electrons    NEL             ....   30
 Basis Dimension        Dim             ....   76

ORBITAL ENERGIES
----------------

  NO   OCC          E(Eh)            E(eV)
   0   2.0000     -19.146577      -521.0049
   1   2.0000     -10.291240      -280.0389
   2   2.0000     -10.207901      -277.7711
   3   2.0000     -10.203412      -277.6490
   4   2.0000      -1.043229       -28.3877
   5   2.0000      -0.784314       -21.3423
   6   2.0000      -0.649796       -17.6818
   7   2.0000      -0.550195       -14.9716
   8   2.0000      -0.495865       -13.4932
   9   2.0000      -0.448041       -12.1918
  10   2.0000      -0.431587       -11.7441
  11   2.0000      -0.393361       -10.7039
  12   2.0000      -0.382856       -10.4181
  13   2.0000      -0.285066        -7.7570
  14   2.0000      -0.256348        -6.9756
  15   0.0000      -0.068065        -1.8521
  16   0.0000       0.042959         1.1690
  17   0.0000       0.065909         1.7935
  18   0.0000       0.092477         2.5164
  19   0.0000       0.118844         3.2339

MULLIKEN ATOMIC CHARGES
-----------------------
   0 C :    0.143534
   1 O :   -0.184692
   2 C :   -0.062690
   3 C :    0.083433
   4 H :    0.009111
   5 H :   -0.045030
   6 H :    0.040920
   7 H :    0.015414
Sum of atomic charges:   -0.0000000

LOEWDIN ATOMIC CHARGES
----------------------
   0 C :   -0.016189
   1 O :   -0.009274
   2 C :   -0.057268
   3 C :    0.024380
   4 H :    0.005340
   5 H :   -0.002090
   6 H :    0.039007
   7 H :    0.016093

  Mayer bond orders larger than 0.100000
B(  0-C ,  1-O ) :   2.1956 B(  0-C ,  2-C ) :   1.0021 B(  0-C ,  4-H ) :   0.8887
B(  2-C ,  3-C ) :   1.9865 B(  2-C ,  5-H ) :   0.9456 B(  3-C ,  6-H ) :   0.9463
B(  3-C ,  7-H ) :   0.9449

-----------------------------------------------------------------------------
         ABSORPTION SPECTRUM VIA TRANSITION ELECTRIC DIPOLE MOMENTS
-----------------------------------------------------------------------------
State   Energy    Wavelength  fosc         T2        TX        TY        TZ
        (cm-1)      (nm)                 (au**2)    (au)      (au)      (au)
-----------------------------------------------------------------------------
   1   28348.5    352.8   0.000135245   0.00157   0.03665   0.01299   0.00767

FINAL SINGLE POINT ENERGY      -191.657764154471

DIPOLE MOMENT
-------------
                                X             Y             Z
Electronic contribution:     -2.00123      -1.84528      -0.30340
Nuclear contribution   :      2.31753       2.71344       0.42755
                        -----------------------------------------
Total Dipole Moment    :      0.31630       0.86816       0.12414
                        -----------------------------------------
Magnitude (a.u.)       :      0.93228
Magnitude (Debye)      :      2.36967

Rotational constants in cm-1:     0.742695     0.192155     0.153014
Rotational constants in MHz : 22265.449407  5760.659106  4587.257246

                             ****ORCA TERMINATED NORMALLY****
TOTAL RUN TIME: 0 days 0 hours 3 minutes 27 seconds 825 msec
