                         Program Version 5.0.3 -  RELEASE  -
|  1> ! HF-3c
|  2> !TightSCF
|  3> %scf
|  4>  ConvForced true
|  5>  convergence tight
|  6>  MaxIter 500
|  7> end
|  8>
|  9> %tddft
| 10>  nroots 1
| 11> end
| 12>
| 13> # 	11395
| 14> * xyz 0 1
| 15> 		C   -1.203293  -0.337158   0.052015
| 16> 		O   -1.971906  -0.543242   0.917819
| 17> 		C    0.037586   0.391263   0.292316
| 18> 		C    1.235712   0.079492  -0.223410
| 19> 		H   -1.380994  -0.730379  -0.863013
| 20> 		H    0.085286   1.143814   0.966420
| 21> 		H    1.134114  -0.708064  -0.935137
| 22> 		H    2.062004   0.686951  -0.189068
| 23> *
| 24>
| 25>                          ****END OF INPUT****

CARTESIAN COORDINATES (ANGSTROEM)
---------------------------------
  C     -1.203293   -0.337158    0.052015
  O     -1.971906   -0.543242    0.917819
  C      0.037586    0.391263    0.292316
  C      1.235712    0.079492   -0.223410
  H     -1.380994   -0.730379   -0.863013
  H      0.085286    1.143814    0.966420
  H      1.134114   -0.708064   -0.935137
  H      2.062004    0.686951   -0.189068

 Total Charge           Charge          ....    0
 Multiplicity           Mult            ....    1
 Number of Electrons    NEL             ....   30
 Basis Dimension        Dim             ....   24

ORBITAL ENERGIES
----------------

  NO   OCC          E(Eh)            E(eV)
   0   2.0000     -20.391275      -554.8748
   1   2.0000     -11.319476      -308.0186
   2   2.0000     -11.194647      -304.6218
   3   2.0000     -11.191223      -304.5287
   4   2.0000      -1.442786       -39.2602
   5   2.0000      -1.097330       -29.8599
   6   2.0000      -0.901011       -24.5177
   7   2.0000      -0.813704       -22.1420
   8   2.0000      -0.703646       -19.1472
   9   2.0000      -0.669110       -18.2074
  10   2.0000      -0.609001       -16.5718
  11   2.0000      -0.567701       -15.4479
  12   2.0000      -0.536072       -14.5873
  13   2.0000      -0.432800       -11.7771
  14   2.0000      -0.403311       -10.9746
  15   0.0000       0.133212         3.6249
  16   0.0000       0.280510         7.6331
  17   0.0000       0.599128        16.3031
  18   0.0000       0.684027        18.6133
  19   0.0000       0.698591        19.0096

MULLIKEN ATOMIC CHARGES
-----------------------
   0 C :    0.156627
   1 O :   -0.335902
   2 C :   -0.169252
   3 C :   -0.240341
   4 H :    0.143487
   5 H :    0.153789
   6 H :    0.140029
   7 H :    0.151564
Sum of atomic charges:   -0.0000000

LOEWDIN ATOMIC CHARGES
----------------------
   0 C :    0.140870
   1 O :   -0.230303
   2 C :   -0.118615
   3 C :   -0.139116
   4 H :    0.069458
   5 H :    0.093007
   6 H :    0.089456
   7 H :    0.095242

  Mayer bond orders larger than 0.100000
B(  0-C ,  1-O ) :   1.9193 B(  0-C ,  2-C ) :   1.0167 B(  0-C ,  4-H ) :   0.9295
B(  2-C ,  3-C ) :   1.9598 B(  2-C ,  5-H ) :   0.9573 B(  3-C ,  6-H ) :   0.9670
B(  3-C ,  7-H ) :   0.9665

-----------------------------------------------------------------------------
         ABSORPTION SPECTRUM VIA TRANSITION ELECTRIC DIPOLE MOMENTS
-----------------------------------------------------------------------------
State   Energy    Wavelength  fosc         T2        TX        TY        TZ
        (cm-1)      (nm)                 (au**2)    (au)      (au)      (au)
-----------------------------------------------------------------------------
   1   34145.7    292.9   0.000285852   0.00276   0.04511  -0.00591  -0.02620

Dispersion correction           -0.026072280
FINAL SINGLE POINT ENERGY      -189.306482226776

DIPOLE MOMENT
-------------
                                X             Y             Z
Electronic contribution:     -2.96000      -0.61994       1.28866
Nuclear contribution   :      3.68858       0.80968      -1.95934
                        -----------------------------------------
Total Dipole Moment    :      0.72858       0.18975      -0.67069
                        -----------------------------------------
Magnitude (a.u.)       :      1.00829
Magnitude (Debye)      :      2.56288

Rotational constants in cm-1:     1.514454     0.159813     0.150267
Rotational constants in MHz : 45402.199493  4791.061758  4504.897651

                             ****ORCA TERMINATED NORMALLY****
TOTAL RUN TIME: 0 days 0 hours 0 minutes 9 seconds 601 msec
