                         Program Version 5.0.3 -  RELEASE  -
|  1> ! HF-3c
|  2> !TightSCF
|  3> %scf
|  4>  ConvForced true
|  5>  convergence tight
|  6>  MaxIter 500
|  7> end
|  8>
|  9> %tddft
| 10>  nroots 1
| 11> end
| 12>
| 13> # 	6605
| 14> * xyz 0 1
| 15> 		C   -1.212997  -0.343046   0.016218
| 16> 		O   -1.473048  -1.396396   0.586060
| 17> 		C    0.000553   0.466854   0.229786
| 18> 		C    1.200434   0.051278  -0.026314
| 19> 		H   -1.931061  -0.025879  -0.855819
| 20> 		H   -0.016470   1.546974   0.645089
| 21> 		H    1.402720  -0.892297  -0.566735
| 22> 		H    2.052932   0.635417   0.028537
| 23> *
| 24>
| 25>                          ****END OF INPUT****

CARTESIAN COORDINATES (ANGSTROEM)
---------------------------------
  C     -1.212997   -0.343046    0.016218
  O     -1.473048   -1.396396    0.586060
  C      0.000553    0.466854    0.229786
  C      1.200434    0.051278   -0.026314
  H     -1.931061   -0.025879   -0.855819
  H     -0.016470    1.546974    0.645089
  H      1.402720   -0.892297   -0.566735
  H      2.052932    0.635417    0.028537

 Total Charge           Charge          ....    0
 Multiplicity           Mult            ....    1
 Number of Electrons    NEL             ....   30
 Basis Dimension        Dim             ....   24

ORBITAL ENERGIES
----------------

  NO   OCC          E(Eh)            E(eV)
   0   2.0000     -20.370712      -554.3153
   1   2.0000     -11.298437      -307.4461
   2   2.0000     -11.197545      -304.7007
   3   2.0000     -11.184363      -304.3420
   4   2.0000      -1.394609       -37.9492
   5   2.0000      -1.090533       -29.6749
   6   2.0000      -0.886258       -24.1163
   7   2.0000      -0.748839       -20.3770
   8   2.0000      -0.688803       -18.7433
   9   2.0000      -0.634641       -17.2695
  10   2.0000      -0.605175       -16.4677
  11   2.0000      -0.532352       -14.4860
  12   2.0000      -0.494715       -13.4619
  13   2.0000      -0.418387       -11.3849
  14   2.0000      -0.407893       -11.0993
  15   0.0000       0.168341         4.5808
  16   0.0000       0.239806         6.5255
  17   0.0000       0.535988        14.5850
  18   0.0000       0.568102        15.4589
  19   0.0000       0.650874        17.7112

MULLIKEN ATOMIC CHARGES
-----------------------
   0 C :    0.170229
   1 O :   -0.340244
   2 C :   -0.167547
   3 C :   -0.243130
   4 H :    0.139987
   5 H :    0.158031
   6 H :    0.142099
   7 H :    0.140576
Sum of atomic charges:   -0.0000000

LOEWDIN ATOMIC CHARGES
----------------------
   0 C :    0.150300
   1 O :   -0.249714
   2 C :   -0.122875
   3 C :   -0.149139
   4 H :    0.082168
   5 H :    0.110204
   6 H :    0.092566
   7 H :    0.086490

  Mayer bond orders larger than 0.100000
B(  0-C ,  1-O ) :   1.9394 B(  0-C ,  2-C ) :   1.0034 B(  0-C ,  4-H ) :   0.9141
B(  2-C ,  3-C ) :   1.9902 B(  2-C ,  5-H ) :   0.9409 B(  3-C ,  6-H ) :   0.9620
B(  3-C ,  7-H ) :   0.9647

-----------------------------------------------------------------------------
         ABSORPTION SPECTRUM VIA TRANSITION ELECTRIC DIPOLE MOMENTS
-----------------------------------------------------------------------------
State   Energy    Wavelength  fosc         T2        TX        TY        TZ
        (cm-1)      (nm)                 (au**2)    (au)      (au)      (au)
-----------------------------------------------------------------------------
   1   33295.2    300.3   0.000012753   0.00013  -0.00216  -0.00895   0.00643

Dispersion correction           -0.025074565
FINAL SINGLE POINT ENERGY      -189.322075516968

DIPOLE MOMENT
-------------
                                X             Y             Z
Electronic contribution:     -2.51620      -1.56992       0.93766
Nuclear contribution   :      2.88436       2.43976      -1.45064
                        -----------------------------------------
Total Dipole Moment    :      0.36815       0.86984      -0.51298
                        -----------------------------------------
Magnitude (a.u.)       :      1.07485
Magnitude (Debye)      :      2.73205

Rotational constants in cm-1:     0.890569     0.180166     0.160596
Rotational constants in MHz : 26698.595915  5401.245897  4814.542245

                             ****ORCA TERMINATED NORMALLY****
TOTAL RUN TIME: 0 days 0 hours 0 minutes 11 seconds 794 msec
