                         Program Version 5.0.3 -  RELEASE  -
|  1> ! HF-3c
|  2> !TightSCF
|  3> %scf
|  4>  ConvForced true
|  5>  convergence tight
|  6>  MaxIter 500
|  7> end
|  8>
|  9> %tddft
| 10>  nroots 1
| 11> end
| 12>
| 13> # 	5327
| 14> * xyz 0 1
| 15> 		C   -1.190362  -0.318202   0.011516
| 16> 		O   -1.534658  -1.190799   0.707918
| 17> 		C   -0.009787   0.517106   0.181981
| 18> 		C    1.278830   0.049061  -0.160668
| 19> 		H   -1.843511  -0.103362  -1.019976
| 20> 		H   -0.179885   1.433658   0.732659
| 21> 		H    1.447546  -0.882911  -0.511507
| 22> 		H    2.047882   0.557139   0.072344
| 23> *
| 24>
| 25>                          ****END OF INPUT****

CARTESIAN COORDINATES (ANGSTROEM)
---------------------------------
  C     -1.190362   -0.318202    0.011516
  O     -1.534658   -1.190799    0.707918
  C     -0.009787    0.517106    0.181981
  C      1.278830    0.049061   -0.160668
  H     -1.843511   -0.103362   -1.019976
  H     -0.179885    1.433658    0.732659
  H      1.447546   -0.882911   -0.511507
  H      2.047882    0.557139    0.072344

 Total Charge           Charge          ....    0
 Multiplicity           Mult            ....    1
 Number of Electrons    NEL             ....   30
 Basis Dimension        Dim             ....   24

ORBITAL ENERGIES
----------------

  NO   OCC          E(Eh)            E(eV)
   0   2.0000     -20.389581      -554.8287
   1   2.0000     -11.311971      -307.8144
   2   2.0000     -11.202029      -304.8227
   3   2.0000     -11.188372      -304.4511
   4   2.0000      -1.440797       -39.2061
   5   2.0000      -1.073146       -29.2018
   6   2.0000      -0.908403       -24.7189
   7   2.0000      -0.755429       -20.5563
   8   2.0000      -0.693005       -18.8576
   9   2.0000      -0.650236       -17.6938
  10   2.0000      -0.619345       -16.8532
  11   2.0000      -0.584420       -15.9029
  12   2.0000      -0.521742       -14.1973
  13   2.0000      -0.407860       -11.0984
  14   2.0000      -0.383950       -10.4478
  15   0.0000       0.167425         4.5559
  16   0.0000       0.207725         5.6525
  17   0.0000       0.516948        14.0669
  18   0.0000       0.636041        17.3076
  19   0.0000       0.674513        18.3544

MULLIKEN ATOMIC CHARGES
-----------------------
   0 C :    0.193591
   1 O :   -0.352715
   2 C :   -0.143224
   3 C :   -0.268825
   4 H :    0.127532
   5 H :    0.156748
   6 H :    0.146419
   7 H :    0.140473
Sum of atomic charges:   -0.0000000

LOEWDIN ATOMIC CHARGES
----------------------
   0 C :    0.152750
   1 O :   -0.242198
   2 C :   -0.096790
   3 C :   -0.162066
   4 H :    0.073723
   5 H :    0.103169
   6 H :    0.090357
   7 H :    0.081056

  Mayer bond orders larger than 0.100000
B(  0-C ,  1-O ) :   1.9519 B(  0-C ,  2-C ) :   1.0000 B(  0-C ,  4-H ) :   0.8925
B(  2-C ,  3-C ) :   1.9755 B(  2-C ,  5-H ) :   0.9518 B(  3-C ,  6-H ) :   0.9700
B(  3-C ,  7-H ) :   0.9718

-----------------------------------------------------------------------------
         ABSORPTION SPECTRUM VIA TRANSITION ELECTRIC DIPOLE MOMENTS
-----------------------------------------------------------------------------
State   Energy    Wavelength  fosc         T2        TX        TY        TZ
        (cm-1)      (nm)                 (au**2)    (au)      (au)      (au)
-----------------------------------------------------------------------------
   1   37100.3    269.5   0.000075550   0.00067  -0.02095   0.00805   0.01291

Dispersion correction           -0.025043655
FINAL SINGLE POINT ENERGY      -189.265733607719

DIPOLE MOMENT
-------------
                                X             Y             Z
Electronic contribution:     -2.51678      -1.24513       0.93428
Nuclear contribution   :      2.84507       1.93689      -1.40949
                        -----------------------------------------
Total Dipole Moment    :      0.32829       0.69176      -0.47521
                        -----------------------------------------
Magnitude (a.u.)       :      0.90118
Magnitude (Debye)      :      2.29062

Rotational constants in cm-1:     0.910847     0.174461     0.160382
Rotational constants in MHz : 27306.502589  5230.205098  4808.128807

                             ****ORCA TERMINATED NORMALLY****
TOTAL RUN TIME: 0 days 0 hours 0 minutes 11 seconds 724 msec
