                         Program Version 5.0.3 -  RELEASE  -
|  1> ! HF-3c
|  2> !TightSCF
|  3> %scf
|  4>  ConvForced true
|  5>  convergence tight
|  6>  MaxIter 500
|  7> end
|  8>
|  9> %tddft
| 10>  nroots 1
| 11> end
| 12>
| 13> # 	3168
| 14> * xyz 0 1
| 15> 		C   -1.232696  -0.253898  -0.030829
| 16> 		O   -1.578435  -1.088930  -0.794067
| 17> 		C    0.004040   0.489259  -0.252246
| 18> 		C    1.217891   0.051266   0.083249
| 19> 		H   -1.760777  -0.298944   1.001965
| 20> 		H    0.067271   1.404543  -0.886124
| 21> 		H    1.216184  -0.917400   0.725843
| 22> 		H    2.107818   0.645004   0.059629
| 23> *
| 24>
| 25>                          ****END OF INPUT****

CARTESIAN COORDINATES (ANGSTROEM)
---------------------------------
  C     -1.232696   -0.253898   -0.030829
  O     -1.578435   -1.088930   -0.794067
  C      0.004040    0.489259   -0.252246
  C      1.217891    0.051266    0.083249
  H     -1.760777   -0.298944    1.001965
  H      0.067271    1.404543   -0.886124
  H      1.216184   -0.917400    0.725843
  H      2.107818    0.645004    0.059629

 Total Charge           Charge          ....    0
 Multiplicity           Mult            ....    1
 Number of Electrons    NEL             ....   30
 Basis Dimension        Dim             ....   24

ORBITAL ENERGIES
----------------

  NO   OCC          E(Eh)            E(eV)
   0   2.0000     -20.380467      -554.5807
   1   2.0000     -11.307461      -307.6916
   2   2.0000     -11.187024      -304.4144
   3   2.0000     -11.176628      -304.1315
   4   2.0000      -1.430956       -38.9383
   5   2.0000      -1.076068       -29.2813
   6   2.0000      -0.874342       -23.7921
   7   2.0000      -0.756822       -20.5942
   8   2.0000      -0.686071       -18.6690
   9   2.0000      -0.641525       -17.4568
  10   2.0000      -0.604721       -16.4553
  11   2.0000      -0.538547       -14.6546
  12   2.0000      -0.498510       -13.5652
  13   2.0000      -0.414324       -11.2743
  14   2.0000      -0.397265       -10.8101
  15   0.0000       0.187994         5.1156
  16   0.0000       0.215355         5.8601
  17   0.0000       0.534606        14.5474
  18   0.0000       0.589241        16.0341
  19   0.0000       0.654994        17.8233

MULLIKEN ATOMIC CHARGES
-----------------------
   0 C :    0.168756
   1 O :   -0.343096
   2 C :   -0.170959
   3 C :   -0.229874
   4 H :    0.144017
   5 H :    0.153760
   6 H :    0.133485
   7 H :    0.143911
Sum of atomic charges:    0.0000000

LOEWDIN ATOMIC CHARGES
----------------------
   0 C :    0.141749
   1 O :   -0.239231
   2 C :   -0.127178
   3 C :   -0.144999
   4 H :    0.083404
   5 H :    0.103301
   6 H :    0.090392
   7 H :    0.092562

  Mayer bond orders larger than 0.100000
B(  0-C ,  1-O ) :   1.9416 B(  0-C ,  2-C ) :   0.9971 B(  0-C ,  4-H ) :   0.9119
B(  2-C ,  3-C ) :   1.9908 B(  2-C ,  5-H ) :   0.9456 B(  3-C ,  6-H ) :   0.9640
B(  3-C ,  7-H ) :   0.9648

-----------------------------------------------------------------------------
         ABSORPTION SPECTRUM VIA TRANSITION ELECTRIC DIPOLE MOMENTS
-----------------------------------------------------------------------------
State   Energy    Wavelength  fosc         T2        TX        TY        TZ
        (cm-1)      (nm)                 (au**2)    (au)      (au)      (au)
-----------------------------------------------------------------------------
   1   34865.0    286.8   0.000165164   0.00156   0.02367   0.00791  -0.03060

Dispersion correction           -0.025272739
FINAL SINGLE POINT ENERGY      -189.302505635951

DIPOLE MOMENT
-------------
                                X             Y             Z
Electronic contribution:     -2.67138      -1.04160      -1.16471
Nuclear contribution   :      3.10162       1.64854       1.78781
                        -----------------------------------------
Total Dipole Moment    :      0.43024       0.60695       0.62309
                        -----------------------------------------
Magnitude (a.u.)       :      0.97043
Magnitude (Debye)      :      2.46663

Rotational constants in cm-1:     0.961616     0.175005     0.166393
Rotational constants in MHz : 28828.530312  5246.532349  4988.347174

                             ****ORCA TERMINATED NORMALLY****
TOTAL RUN TIME: 0 days 0 hours 0 minutes 13 seconds 419 msec
