                         Program Version 5.0.3 -  RELEASE  -
|  1> ! B3LYP cc-pVDZ
|  2> !TightSCF
|  3> %scf
|  4>  ConvForced true
|  5>  convergence tight
|  6>  MaxIter 500
|  7> end
|  8>
|  9> %tddft
| 10>  nroots 1
| 11> end
| 12>
| 13> # 	24349
| 14> * xyz 0 1
| 15> 		C   -0.533281  -0.458412  -0.037374
| 16> 		O   -0.603021  -1.609146   0.025406
| 17> 		C    0.577229   0.411754   0.013636
| 18> 		C    1.868286  -0.104767   0.005519
| 19> 		H   -1.494257   0.030402  -0.034110
| 20> 		H    0.366352   1.485471   0.043583
| 21> 		H    1.919845  -1.288472  -0.281516
| 22> 		H    2.926999   0.349006   0.098129
| 23> *
| 24>
| 25>                          ****END OF INPUT****

CARTESIAN COORDINATES (ANGSTROEM)
---------------------------------
  C     -0.533281   -0.458412   -0.037374
  O     -0.603021   -1.609146    0.025406
  C      0.577229    0.411754    0.013636
  C      1.868286   -0.104767    0.005519
  H     -1.494257    0.030402   -0.034110
  H      0.366352    1.485471    0.043583
  H      1.919845   -1.288472   -0.281516
  H      2.926999    0.349006    0.098129

 Total Charge           Charge          ....    0
 Multiplicity           Mult            ....    1
 Number of Electrons    NEL             ....   30
 Basis Dimension        Dim             ....   76

ORBITAL ENERGIES
----------------

  NO   OCC          E(Eh)            E(eV)
   0   2.0000     -19.128473      -520.5122
   1   2.0000     -10.257090      -279.1096
   2   2.0000     -10.240889      -278.6688
   3   2.0000     -10.209755      -277.8216
   4   2.0000      -1.073558       -29.2130
   5   2.0000      -0.792379       -21.5617
   6   2.0000      -0.657099       -17.8806
   7   2.0000      -0.537554       -14.6276
   8   2.0000      -0.510087       -13.8802
   9   2.0000      -0.450080       -12.2473
  10   2.0000      -0.425168       -11.5694
  11   2.0000      -0.414903       -11.2901
  12   2.0000      -0.367940       -10.0122
  13   2.0000      -0.283722        -7.7205
  14   2.0000      -0.247801        -6.7430
  15   0.0000      -0.074480        -2.0267
  16   0.0000       0.064433         1.7533
  17   0.0000       0.068094         1.8529
  18   0.0000       0.081815         2.2263
  19   0.0000       0.122586         3.3357

MULLIKEN ATOMIC CHARGES
-----------------------
   0 C :    0.191785
   1 O :   -0.149180
   2 C :   -0.092780
   3 C :   -0.022226
   4 H :   -0.062894
   5 H :    0.000539
   6 H :    0.069691
   7 H :    0.065066
Sum of atomic charges:    0.0000000

LOEWDIN ATOMIC CHARGES
----------------------
   0 C :   -0.098647
   1 O :    0.049272
   2 C :   -0.085184
   3 C :    0.020564
   4 H :   -0.017947
   5 H :    0.033075
   6 H :    0.055054
   7 H :    0.043814

  Mayer bond orders larger than 0.100000
B(  0-C ,  1-O ) :   2.2478 B(  0-C ,  2-C ) :   1.0878 B(  0-C ,  4-H ) :   0.9198
B(  1-O ,  3-C ) :   0.1037 B(  2-C ,  3-C ) :   1.8796 B(  2-C ,  5-H ) :   0.9529
B(  3-C ,  6-H ) :   0.9299 B(  3-C ,  7-H ) :   0.9517

-----------------------------------------------------------------------------
         ABSORPTION SPECTRUM VIA TRANSITION ELECTRIC DIPOLE MOMENTS
-----------------------------------------------------------------------------
State   Energy    Wavelength  fosc         T2        TX        TY        TZ
        (cm-1)      (nm)                 (au**2)    (au)      (au)      (au)
-----------------------------------------------------------------------------
   1   26111.5    383.0   0.000074983   0.00095   0.01640  -0.00139   0.02597

FINAL SINGLE POINT ENERGY      -191.658375517563

DIPOLE MOMENT
-------------
                                X             Y             Z
Electronic contribution:     -1.79150      -1.50154       0.10173
Nuclear contribution   :      2.33308       2.33019      -0.16362
                        -----------------------------------------
Total Dipole Moment    :      0.54158       0.82866      -0.06189
                        -----------------------------------------
Magnitude (a.u.)       :      0.99187
Magnitude (Debye)      :      2.52114

Rotational constants in cm-1:     0.786496     0.208982     0.165506
Rotational constants in MHz : 23578.563314  6265.119767  4961.749553

                             ****ORCA TERMINATED NORMALLY****
TOTAL RUN TIME: 0 days 0 hours 3 minutes 17 seconds 82 msec
