                         Program Version 5.0.3 -  RELEASE  -
|  1> ! B3LYP cc-pVDZ
|  2> !TightSCF
|  3> %scf
|  4>  ConvForced true
|  5>  convergence tight
|  6>  MaxIter 500
|  7> end
|  8>
|  9> %tddft
| 10>  nroots 1
| 11> end
| 12>
| 13> # 	19375
| 14> * xyz 0 1
| 15> 		C   -1.212108  -0.391925   0.054174
| 16> 		O   -2.092293  -0.683503   0.850917
| 17> 		C    0.042202   0.368181   0.281720
| 18> 		C    1.182026   0.107209  -0.270977
| 19> 		H   -1.190340  -0.715747  -1.056940
| 20> 		H    0.099845   0.960374   1.174829
| 21> 		H    1.118752  -0.365263  -1.047801
| 22> 		H    2.047244   0.715323  -0.042662
| 23> *
| 24>
| 25>                          ****END OF INPUT****

CARTESIAN COORDINATES (ANGSTROEM)
---------------------------------
  C     -1.212108   -0.391925    0.054174
  O     -2.092293   -0.683503    0.850917
  C      0.042202    0.368181    0.281720
  C      1.182026    0.107209   -0.270977
  H     -1.190340   -0.715747   -1.056940
  H      0.099845    0.960374    1.174829
  H      1.118752   -0.365263   -1.047801
  H      2.047244    0.715323   -0.042662

 Total Charge           Charge          ....    0
 Multiplicity           Mult            ....    1
 Number of Electrons    NEL             ....   30
 Basis Dimension        Dim             ....   76

ORBITAL ENERGIES
----------------

  NO   OCC          E(Eh)            E(eV)
   0   2.0000     -19.149774      -521.0918
   1   2.0000     -10.286878      -279.9202
   2   2.0000     -10.201328      -277.5923
   3   2.0000     -10.195444      -277.4321
   4   2.0000      -1.045229       -28.4421
   5   2.0000      -0.824680       -22.4407
   6   2.0000      -0.660864       -17.9830
   7   2.0000      -0.579790       -15.7769
   8   2.0000      -0.487757       -13.2725
   9   2.0000      -0.472746       -12.8641
  10   2.0000      -0.432541       -11.7700
  11   2.0000      -0.401909       -10.9365
  12   2.0000      -0.382308       -10.4031
  13   2.0000      -0.304319        -8.2809
  14   2.0000      -0.259919        -7.0728
  15   0.0000      -0.067045        -1.8244
  16   0.0000       0.039136         1.0649
  17   0.0000       0.076854         2.0913
  18   0.0000       0.082733         2.2513
  19   0.0000       0.139378         3.7927

MULLIKEN ATOMIC CHARGES
-----------------------
   0 C :    0.170065
   1 O :   -0.187894
   2 C :   -0.110734
   3 C :    0.192143
   4 H :   -0.022090
   5 H :   -0.007723
   6 H :   -0.066605
   7 H :    0.032839
Sum of atomic charges:   -0.0000000

LOEWDIN ATOMIC CHARGES
----------------------
   0 C :   -0.024070
   1 O :   -0.001226
   2 C :   -0.048102
   3 C :    0.038897
   4 H :   -0.007005
   5 H :    0.026612
   6 H :   -0.030086
   7 H :    0.044980

  Mayer bond orders larger than 0.100000
B(  0-C ,  1-O ) :   2.1860 B(  0-C ,  2-C ) :   1.0460 B(  0-C ,  4-H ) :   0.8954
B(  2-C ,  3-C ) :   1.9843 B(  2-C ,  5-H ) :   0.9390 B(  3-C ,  6-H ) :   0.9214
B(  3-C ,  7-H ) :   0.9379

-----------------------------------------------------------------------------
         ABSORPTION SPECTRUM VIA TRANSITION ELECTRIC DIPOLE MOMENTS
-----------------------------------------------------------------------------
State   Energy    Wavelength  fosc         T2        TX        TY        TZ
        (cm-1)      (nm)                 (au**2)    (au)      (au)      (au)
-----------------------------------------------------------------------------
   1   29284.5    341.5   0.000337172   0.00379  -0.06072   0.00986  -0.00241

FINAL SINGLE POINT ENERGY      -191.629184441435

DIPOLE MOMENT
-------------
                                X             Y             Z
Electronic contribution:     -3.06328      -0.82234       1.28935
Nuclear contribution   :      4.01536       1.17502      -1.80123
                        -----------------------------------------
Total Dipole Moment    :      0.95208       0.35267      -0.51187
                        -----------------------------------------
Magnitude (a.u.)       :      1.13704
Magnitude (Debye)      :      2.89012

Rotational constants in cm-1:     1.601950     0.152398     0.143010
Rotational constants in MHz : 48025.245851  4568.774018  4287.328702

                             ****ORCA TERMINATED NORMALLY****
TOTAL RUN TIME: 0 days 0 hours 3 minutes 3 seconds 914 msec
