                         Program Version 5.0.3 -  RELEASE  -
|  1> ! HF-3c
|  2> !TightSCF
|  3> %scf
|  4>  ConvForced true
|  5>  convergence tight
|  6>  MaxIter 500
|  7> end
|  8>
|  9> %tddft
| 10>  nroots 1
| 11> end
| 12>
| 13> # 	11453
| 14> * xyz 0 1
| 15> 		C   -1.182382  -0.361747  -0.034434
| 16> 		O   -2.071248  -0.655696  -0.887855
| 17> 		C    0.055095   0.333217  -0.349989
| 18> 		C    1.163155   0.128855   0.285028
| 19> 		H   -1.346709  -0.686789   0.983534
| 20> 		H    0.005517   1.137141  -1.033485
| 21> 		H    1.205384  -0.560143   1.064012
| 22> 		H    2.123871   0.691074  -0.000935
| 23> *
| 24>
| 25>                          ****END OF INPUT****

CARTESIAN COORDINATES (ANGSTROEM)
---------------------------------
  C     -1.182382   -0.361747   -0.034434
  O     -2.071248   -0.655696   -0.887855
  C      0.055095    0.333217   -0.349989
  C      1.163155    0.128855    0.285028
  H     -1.346709   -0.686789    0.983534
  H      0.005517    1.137141   -1.033485
  H      1.205384   -0.560143    1.064012
  H      2.123871    0.691074   -0.000935

 Total Charge           Charge          ....    0
 Multiplicity           Mult            ....    1
 Number of Electrons    NEL             ....   30
 Basis Dimension        Dim             ....   24

ORBITAL ENERGIES
----------------

  NO   OCC          E(Eh)            E(eV)
   0   2.0000     -20.356689      -553.9337
   1   2.0000     -11.287673      -307.1532
   2   2.0000     -11.201521      -304.8089
   3   2.0000     -11.197685      -304.7045
   4   2.0000      -1.364561       -37.1316
   5   2.0000      -1.107298       -30.1311
   6   2.0000      -0.889513       -24.2049
   7   2.0000      -0.788844       -21.4655
   8   2.0000      -0.679232       -18.4829
   9   2.0000      -0.646864       -17.6021
  10   2.0000      -0.581485       -15.8230
  11   2.0000      -0.547852       -14.9078
  12   2.0000      -0.507175       -13.8009
  13   2.0000      -0.421826       -11.4785
  14   2.0000      -0.405882       -11.0446
  15   0.0000       0.131334         3.5738
  16   0.0000       0.280098         7.6219
  17   0.0000       0.549298        14.9472
  18   0.0000       0.625477        17.0201
  19   0.0000       0.676327        18.4038

MULLIKEN ATOMIC CHARGES
-----------------------
   0 C :    0.145333
   1 O :   -0.331803
   2 C :   -0.182980
   3 C :   -0.226634
   4 H :    0.141932
   5 H :    0.159342
   6 H :    0.140426
   7 H :    0.154385
Sum of atomic charges:   -0.0000000

LOEWDIN ATOMIC CHARGES
----------------------
   0 C :    0.142183
   1 O :   -0.254116
   2 C :   -0.128631
   3 C :   -0.131655
   4 H :    0.077525
   5 H :    0.101312
   6 H :    0.086608
   7 H :    0.106773

  Mayer bond orders larger than 0.100000
B(  0-C ,  1-O ) :   1.9092 B(  0-C ,  2-C ) :   1.0324 B(  0-C ,  4-H ) :   0.9332
B(  2-C ,  3-C ) :   1.9605 B(  2-C ,  5-H ) :   0.9501 B(  3-C ,  6-H ) :   0.9651
B(  3-C ,  7-H ) :   0.9590

-----------------------------------------------------------------------------
         ABSORPTION SPECTRUM VIA TRANSITION ELECTRIC DIPOLE MOMENTS
-----------------------------------------------------------------------------
State   Energy    Wavelength  fosc         T2        TX        TY        TZ
        (cm-1)      (nm)                 (au**2)    (au)      (au)      (au)
-----------------------------------------------------------------------------
   1   29809.4    335.5   0.000007828   0.00009   0.00311   0.00710  -0.00513

Dispersion correction           -0.025645352
FINAL SINGLE POINT ENERGY      -189.344680034561

DIPOLE MOMENT
-------------
                                X             Y             Z
Electronic contribution:     -2.97027      -0.80463      -1.22871
Nuclear contribution   :      3.89777       1.12026       1.90352
                        -----------------------------------------
Total Dipole Moment    :      0.92750       0.31563       0.67481
                        -----------------------------------------
Magnitude (a.u.)       :      1.18964
Magnitude (Debye)      :      3.02383

Rotational constants in cm-1:     1.517074     0.154515     0.144272
Rotational constants in MHz : 45480.726344  4632.249007  4325.164662

                             ****ORCA TERMINATED NORMALLY****
TOTAL RUN TIME: 0 days 0 hours 0 minutes 11 seconds 614 msec
