                         Program Version 5.0.3 -  RELEASE  -
|  1> ! B3LYP cc-pVDZ
|  2> !TightSCF
|  3> %scf
|  4>  ConvForced true
|  5>  convergence tight
|  6>  MaxIter 500
|  7> end
|  8>
|  9> %tddft
| 10>  nroots 1
| 11> end
| 12>
| 13> # 	11621
| 14> * xyz 0 1
| 15> 		C   -1.217457  -0.321851  -0.047764
| 16> 		O   -1.256990  -1.531194   0.172697
| 17> 		C    0.037428   0.526682   0.118917
| 18> 		C    1.222108  -0.013234  -0.030094
| 19> 		H   -2.040439   0.130966  -0.316044
| 20> 		H   -0.152424   1.560260   0.134730
| 21> 		H    1.388154  -1.136524  -0.296705
| 22> 		H    2.033109   0.775157   0.336391
| 23> *
| 24>
| 25>                          ****END OF INPUT****

CARTESIAN COORDINATES (ANGSTROEM)
---------------------------------
  C     -1.217457   -0.321851   -0.047764
  O     -1.256990   -1.531194    0.172697
  C      0.037428    0.526682    0.118917
  C      1.222108   -0.013234   -0.030094
  H     -2.040439    0.130966   -0.316044
  H     -0.152424    1.560260    0.134730
  H      1.388154   -1.136524   -0.296705
  H      2.033109    0.775157    0.336391

 Total Charge           Charge          ....    0
 Multiplicity           Mult            ....    1
 Number of Electrons    NEL             ....   30
 Basis Dimension        Dim             ....   76

ORBITAL ENERGIES
----------------

  NO   OCC          E(Eh)            E(eV)
   0   2.0000     -19.135456      -520.7022
   1   2.0000     -10.263047      -279.2717
   2   2.0000     -10.221385      -278.1380
   3   2.0000     -10.198289      -277.5095
   4   2.0000      -1.032895       -28.1065
   5   2.0000      -0.795892       -21.6573
   6   2.0000      -0.658220       -17.9111
   7   2.0000      -0.550306       -14.9746
   8   2.0000      -0.507620       -13.8130
   9   2.0000      -0.441275       -12.0077
  10   2.0000      -0.421463       -11.4686
  11   2.0000      -0.389471       -10.5980
  12   2.0000      -0.372528       -10.1370
  13   2.0000      -0.288163        -7.8413
  14   2.0000      -0.251541        -6.8448
  15   0.0000      -0.063689        -1.7331
  16   0.0000       0.045716         1.2440
  17   0.0000       0.060307         1.6410
  18   0.0000       0.081449         2.2163
  19   0.0000       0.125286         3.4092

MULLIKEN ATOMIC CHARGES
-----------------------
   0 C :    0.245367
   1 O :   -0.215638
   2 C :   -0.078619
   3 C :    0.004135
   4 H :   -0.055709
   5 H :   -0.016261
   6 H :    0.065987
   7 H :    0.050739
Sum of atomic charges:    0.0000000

LOEWDIN ATOMIC CHARGES
----------------------
   0 C :    0.007410
   1 O :   -0.019815
   2 C :   -0.079072
   3 C :   -0.007359
   4 H :   -0.031054
   5 H :    0.019944
   6 H :    0.054252
   7 H :    0.055695

  Mayer bond orders larger than 0.100000
B(  0-C ,  1-O ) :   2.1724 B(  0-C ,  2-C ) :   1.0500 B(  0-C ,  4-H ) :   0.9388
B(  2-C ,  3-C ) :   1.9738 B(  2-C ,  5-H ) :   0.9401 B(  3-C ,  6-H ) :   0.9286
B(  3-C ,  7-H ) :   0.9308

-----------------------------------------------------------------------------
         ABSORPTION SPECTRUM VIA TRANSITION ELECTRIC DIPOLE MOMENTS
-----------------------------------------------------------------------------
State   Energy    Wavelength  fosc         T2        TX        TY        TZ
        (cm-1)      (nm)                 (au**2)    (au)      (au)      (au)
-----------------------------------------------------------------------------
   1   27782.6    359.9   0.000133227   0.00158   0.02820   0.01321  -0.02468

FINAL SINGLE POINT ENERGY      -191.646324869973

DIPOLE MOMENT
-------------
                                X             Y             Z
Electronic contribution:     -2.07602      -1.69366       0.17587
Nuclear contribution   :      2.36812       2.62650      -0.33954
                        -----------------------------------------
Total Dipole Moment    :      0.29210       0.93285      -0.16367
                        -----------------------------------------
Magnitude (a.u.)       :      0.99112
Magnitude (Debye)      :      2.51922

Rotational constants in cm-1:     0.779049     0.200595     0.161924
Rotational constants in MHz : 23355.313205  6013.684447  4854.363868

                             ****ORCA TERMINATED NORMALLY****
TOTAL RUN TIME: 0 days 0 hours 3 minutes 22 seconds 119 msec
