                         Program Version 5.0.3 -  RELEASE  -
|  1> ! B3LYP cc-pVDZ
|  2> !TightSCF
|  3> %scf
|  4>  ConvForced true
|  5>  convergence tight
|  6>  MaxIter 500
|  7> end
|  8>
|  9> %tddft
| 10>  nroots 1
| 11> end
| 12>
| 13> # 	14186
| 14> * xyz 0 1
| 15> 		C   -1.191699  -0.283687  -0.045863
| 16> 		O   -1.506085  -1.213533  -0.700732
| 17> 		C    0.044927   0.556000  -0.283994
| 18> 		C    1.194223   0.101061   0.112187
| 19> 		H   -1.841865  -0.220088   1.069350
| 20> 		H   -0.135019   1.463891  -0.728739
| 21> 		H    1.242220  -0.994522   0.504342
| 22> 		H    2.212306   0.632859   0.063475
| 23> *
| 24>
| 25>                          ****END OF INPUT****

CARTESIAN COORDINATES (ANGSTROEM)
---------------------------------
  C     -1.191699   -0.283687   -0.045863
  O     -1.506085   -1.213533   -0.700732
  C      0.044927    0.556000   -0.283994
  C      1.194223    0.101061    0.112187
  H     -1.841865   -0.220088    1.069350
  H     -0.135019    1.463891   -0.728739
  H      1.242220   -0.994522    0.504342
  H      2.212306    0.632859    0.063475

 Total Charge           Charge          ....    0
 Multiplicity           Mult            ....    1
 Number of Electrons    NEL             ....   30
 Basis Dimension        Dim             ....   76

ORBITAL ENERGIES
----------------

  NO   OCC          E(Eh)            E(eV)
   0   2.0000     -19.149012      -521.0711
   1   2.0000     -10.291940      -280.0579
   2   2.0000     -10.215083      -277.9665
   3   2.0000     -10.204339      -277.6742
   4   2.0000      -1.072509       -29.1845
   5   2.0000      -0.803162       -21.8551
   6   2.0000      -0.633698       -17.2438
   7   2.0000      -0.547553       -14.8997
   8   2.0000      -0.491794       -13.3824
   9   2.0000      -0.462345       -12.5810
  10   2.0000      -0.445016       -12.1095
  11   2.0000      -0.392033       -10.6678
  12   2.0000      -0.379756       -10.3337
  13   2.0000      -0.294718        -8.0197
  14   2.0000      -0.251138        -6.8338
  15   0.0000      -0.026346        -0.7169
  16   0.0000      -0.011748        -0.3197
  17   0.0000       0.073507         2.0002
  18   0.0000       0.079104         2.1525
  19   0.0000       0.090575         2.4647

MULLIKEN ATOMIC CHARGES
-----------------------
   0 C :    0.086175
   1 O :   -0.140952
   2 C :    0.007287
   3 C :   -0.015387
   4 H :   -0.012330
   5 H :   -0.014274
   6 H :    0.041549
   7 H :    0.047932
Sum of atomic charges:    0.0000000

LOEWDIN ATOMIC CHARGES
----------------------
   0 C :   -0.042818
   1 O :    0.037092
   2 C :   -0.057312
   3 C :   -0.033235
   4 H :   -0.007153
   5 H :    0.016651
   6 H :    0.043885
   7 H :    0.042890

  Mayer bond orders larger than 0.100000
B(  0-C ,  1-O ) :   2.2569 B(  0-C ,  2-C ) :   0.9434 B(  0-C ,  4-H ) :   0.8730
B(  2-C ,  3-C ) :   2.0345 B(  2-C ,  5-H ) :   0.9474 B(  3-C ,  6-H ) :   0.9317
B(  3-C ,  7-H ) :   0.9456

-----------------------------------------------------------------------------
         ABSORPTION SPECTRUM VIA TRANSITION ELECTRIC DIPOLE MOMENTS
-----------------------------------------------------------------------------
State   Energy    Wavelength  fosc         T2        TX        TY        TZ
        (cm-1)      (nm)                 (au**2)    (au)      (au)      (au)
-----------------------------------------------------------------------------
   1   34206.8    292.3   0.001785091   0.01718   0.07284   0.04478  -0.09934

FINAL SINGLE POINT ENERGY      -191.614976233112

DIPOLE MOMENT
-------------
                                X             Y             Z
Electronic contribution:     -2.35811      -1.10238      -1.41855
Nuclear contribution   :      2.84486       1.75324       1.70944
                        -----------------------------------------
Total Dipole Moment    :      0.48675       0.65086       0.29088
                        -----------------------------------------
Magnitude (a.u.)       :      0.86322
Magnitude (Debye)      :      2.19414

Rotational constants in cm-1:     0.908359     0.177462     0.163907
Rotational constants in MHz : 27231.905818  5320.171754  4913.810138

                             ****ORCA TERMINATED NORMALLY****
TOTAL RUN TIME: 0 days 0 hours 3 minutes 13 seconds 98 msec
