                         Program Version 5.0.3 -  RELEASE  -
|  1> ! HF-3c
|  2> !TightSCF
|  3> %scf
|  4>  ConvForced true
|  5>  convergence tight
|  6>  MaxIter 500
|  7> end
|  8>
|  9> %tddft
| 10>  nroots 1
| 11> end
| 12>
| 13> # 	15408
| 14> * xyz 0 1
| 15> 		C   -1.181717  -0.340911  -0.000237
| 16> 		O   -1.392102  -1.397706  -0.566313
| 17> 		C    0.032369   0.516806  -0.140312
| 18> 		C    1.223141   0.010364   0.120327
| 19> 		H   -2.029469   0.094865   0.535008
| 20> 		H   -0.197512   1.573620  -0.338618
| 21> 		H    1.417556  -1.028692   0.352214
| 22> 		H    2.171410   0.628262   0.071620
| 23> *
| 24>
| 25>                          ****END OF INPUT****

CARTESIAN COORDINATES (ANGSTROEM)
---------------------------------
  C     -1.181717   -0.340911   -0.000237
  O     -1.392102   -1.397706   -0.566313
  C      0.032369    0.516806   -0.140312
  C      1.223141    0.010364    0.120327
  H     -2.029469    0.094865    0.535008
  H     -0.197512    1.573620   -0.338618
  H      1.417556   -1.028692    0.352214
  H      2.171410    0.628262    0.071620

 Total Charge           Charge          ....    0
 Multiplicity           Mult            ....    1
 Number of Electrons    NEL             ....   30
 Basis Dimension        Dim             ....   24

ORBITAL ENERGIES
----------------

  NO   OCC          E(Eh)            E(eV)
   0   2.0000     -20.365858      -554.1832
   1   2.0000     -11.292246      -307.2776
   2   2.0000     -11.194568      -304.6197
   3   2.0000     -11.189388      -304.4787
   4   2.0000      -1.396706       -38.0063
   5   2.0000      -1.080109       -29.3913
   6   2.0000      -0.886557       -24.1245
   7   2.0000      -0.754382       -20.5278
   8   2.0000      -0.693928       -18.8827
   9   2.0000      -0.623107       -16.9556
  10   2.0000      -0.602371       -16.3913
  11   2.0000      -0.536302       -14.5935
  12   2.0000      -0.514062       -13.9883
  13   2.0000      -0.409606       -11.1460
  14   2.0000      -0.402926       -10.9642
  15   0.0000       0.156077         4.2471
  16   0.0000       0.264597         7.2001
  17   0.0000       0.526998        14.3403
  18   0.0000       0.620948        16.8969
  19   0.0000       0.653205        17.7746

MULLIKEN ATOMIC CHARGES
-----------------------
   0 C :    0.162026
   1 O :   -0.345630
   2 C :   -0.173385
   3 C :   -0.222239
   4 H :    0.134986
   5 H :    0.151406
   6 H :    0.149552
   7 H :    0.143283
Sum of atomic charges:   -0.0000000

LOEWDIN ATOMIC CHARGES
----------------------
   0 C :    0.146168
   1 O :   -0.252862
   2 C :   -0.127854
   3 C :   -0.129249
   4 H :    0.071110
   5 H :    0.099855
   6 H :    0.096764
   7 H :    0.096068

  Mayer bond orders larger than 0.100000
B(  0-C ,  1-O ) :   1.9280 B(  0-C ,  2-C ) :   1.0032 B(  0-C ,  4-H ) :   0.9259
B(  2-C ,  3-C ) :   1.9766 B(  2-C ,  5-H ) :   0.9514 B(  3-C ,  6-H ) :   0.9623
B(  3-C ,  7-H ) :   0.9616

-----------------------------------------------------------------------------
         ABSORPTION SPECTRUM VIA TRANSITION ELECTRIC DIPOLE MOMENTS
-----------------------------------------------------------------------------
State   Energy    Wavelength  fosc         T2        TX        TY        TZ
        (cm-1)      (nm)                 (au**2)    (au)      (au)      (au)
-----------------------------------------------------------------------------
   1   33114.2    302.0   0.000240266   0.00239   0.04817   0.00601  -0.00565

Dispersion correction           -0.025171407
FINAL SINGLE POINT ENERGY      -189.337547901107

DIPOLE MOMENT
-------------
                                X             Y             Z
Electronic contribution:     -2.18935      -1.58376      -0.70635
Nuclear contribution   :      2.60207       2.43547       1.15667
                        -----------------------------------------
Total Dipole Moment    :      0.41272       0.85172       0.45032
                        -----------------------------------------
Magnitude (a.u.)       :      1.04812
Magnitude (Debye)      :      2.66410

Rotational constants in cm-1:     0.844825     0.186861     0.159854
Rotational constants in MHz : 25327.225728  5601.964328  4792.309485

                             ****ORCA TERMINATED NORMALLY****
TOTAL RUN TIME: 0 days 0 hours 0 minutes 16 seconds 102 msec
