                         Program Version 5.0.3 -  RELEASE  -
|  1> ! HF-3c
|  2> !TightSCF
|  3> %scf
|  4>  ConvForced true
|  5>  convergence tight
|  6>  MaxIter 500
|  7> end
|  8>
|  9> %tddft
| 10>  nroots 1
| 11> end
| 12>
| 13> # 	6103
| 14> * xyz 0 1
| 15> 		C   -1.329831  -0.354832  -0.041392
| 16> 		O   -1.332053  -1.536249   0.359494
| 17> 		C   -0.019373   0.519785   0.198080
| 18> 		C    1.246677   0.016626  -0.098966
| 19> 		H   -2.068982   0.090388  -0.787007
| 20> 		H   -0.047438   1.535464   0.569141
| 21> 		H    1.593895  -0.979908  -0.202800
| 22> 		H    1.971264   0.684598   0.042060
| 23> *
| 24>
| 25>                          ****END OF INPUT****

CARTESIAN COORDINATES (ANGSTROEM)
---------------------------------
  C     -1.329831   -0.354832   -0.041392
  O     -1.332053   -1.536249    0.359494
  C     -0.019373    0.519785    0.198080
  C      1.246677    0.016626   -0.098966
  H     -2.068982    0.090388   -0.787007
  H     -0.047438    1.535464    0.569141
  H      1.593895   -0.979908   -0.202800
  H      1.971264    0.684598    0.042060

 Total Charge           Charge          ....    0
 Multiplicity           Mult            ....    1
 Number of Electrons    NEL             ....   30
 Basis Dimension        Dim             ....   24

ORBITAL ENERGIES
----------------

  NO   OCC          E(Eh)            E(eV)
   0   2.0000     -20.369229      -554.2749
   1   2.0000     -11.294033      -307.3263
   2   2.0000     -11.187247      -304.4205
   3   2.0000     -11.175488      -304.1005
   4   2.0000      -1.378910       -37.5221
   5   2.0000      -1.050402       -28.5829
   6   2.0000      -0.876802       -23.8590
   7   2.0000      -0.762562       -20.7504
   8   2.0000      -0.679063       -18.4782
   9   2.0000      -0.604029       -16.4365
  10   2.0000      -0.598529       -16.2868
  11   2.0000      -0.554146       -15.0791
  12   2.0000      -0.496602       -13.5132
  13   2.0000      -0.411863       -11.2074
  14   2.0000      -0.379736       -10.3331
  15   0.0000       0.145960         3.9718
  16   0.0000       0.226876         6.1736
  17   0.0000       0.493250        13.4220
  18   0.0000       0.622711        16.9448
  19   0.0000       0.627916        17.0865

MULLIKEN ATOMIC CHARGES
-----------------------
   0 C :    0.164318
   1 O :   -0.337946
   2 C :   -0.143070
   3 C :   -0.261056
   4 H :    0.148726
   5 H :    0.143059
   6 H :    0.152868
   7 H :    0.133102
Sum of atomic charges:   -0.0000000

LOEWDIN ATOMIC CHARGES
----------------------
   0 C :    0.150662
   1 O :   -0.251468
   2 C :   -0.098792
   3 C :   -0.158271
   4 H :    0.088646
   5 H :    0.091225
   6 H :    0.098972
   7 H :    0.079026

  Mayer bond orders larger than 0.100000
B(  0-C ,  1-O ) :   1.9471 B(  0-C ,  2-C ) :   0.9765 B(  0-C ,  4-H ) :   0.9186
B(  2-C ,  3-C ) :   1.9785 B(  2-C ,  5-H ) :   0.9605 B(  3-C ,  6-H ) :   0.9662
B(  3-C ,  7-H ) :   0.9702

-----------------------------------------------------------------------------
         ABSORPTION SPECTRUM VIA TRANSITION ELECTRIC DIPOLE MOMENTS
-----------------------------------------------------------------------------
State   Energy    Wavelength  fosc         T2        TX        TY        TZ
        (cm-1)      (nm)                 (au**2)    (au)      (au)      (au)
-----------------------------------------------------------------------------
   1   31675.4    315.7   0.000583769   0.00607  -0.07773  -0.00434  -0.00244

Dispersion correction           -0.024365381
FINAL SINGLE POINT ENERGY      -189.316054068489

DIPOLE MOMENT
-------------
                                X             Y             Z
Electronic contribution:     -2.60792      -1.73646       0.43564
Nuclear contribution   :      2.75622       2.64055      -0.75733
                        -----------------------------------------
Total Dipole Moment    :      0.14831       0.90409      -0.32169
                        -----------------------------------------
Magnitude (a.u.)       :      0.97101
Magnitude (Debye)      :      2.46810

Rotational constants in cm-1:     0.731006     0.183128     0.153079
Rotational constants in MHz : 21915.008931  5490.027027  4589.183985

                             ****ORCA TERMINATED NORMALLY****
TOTAL RUN TIME: 0 days 0 hours 0 minutes 12 seconds 980 msec
