                         Program Version 5.0.3 -  RELEASE  -
|  1> ! HF-3c
|  2> !TightSCF
|  3> %scf
|  4>  ConvForced true
|  5>  convergence tight
|  6>  MaxIter 500
|  7> end
|  8>
|  9> %tddft
| 10>  nroots 1
| 11> end
| 12>
| 13> # 	29290
| 14> * xyz 0 1
| 15> 		C   -0.601103  -0.432511  -0.019219
| 16> 		O   -0.606143  -1.671426   0.000429
| 17> 		C    0.623300   0.426508   0.017537
| 18> 		C    1.895068  -0.092617   0.009030
| 19> 		H   -1.533934   0.089245   0.084092
| 20> 		H    0.511427   1.547903  -0.081308
| 21> 		H    2.144286  -1.178966  -0.004249
| 22> 		H    2.631981   0.509898  -0.102975
| 23> *
| 24>
| 25>                          ****END OF INPUT****

CARTESIAN COORDINATES (ANGSTROEM)
---------------------------------
  C     -0.601103   -0.432511   -0.019219
  O     -0.606143   -1.671426    0.000429
  C      0.623300    0.426508    0.017537
  C      1.895068   -0.092617    0.009030
  H     -1.533934    0.089245    0.084092
  H      0.511427    1.547903   -0.081308
  H      2.144286   -1.178966   -0.004249
  H      2.631981    0.509898   -0.102975

 Total Charge           Charge          ....    0
 Multiplicity           Mult            ....    1
 Number of Electrons    NEL             ....   30
 Basis Dimension        Dim             ....   24

ORBITAL ENERGIES
----------------

  NO   OCC          E(Eh)            E(eV)
   0   2.0000     -20.361673      -554.0693
   1   2.0000     -11.291902      -307.2683
   2   2.0000     -11.193775      -304.5981
   3   2.0000     -11.191478      -304.5356
   4   2.0000      -1.381634       -37.5962
   5   2.0000      -1.068641       -29.0792
   6   2.0000      -0.903733       -24.5918
   7   2.0000      -0.760719       -20.7002
   8   2.0000      -0.694580       -18.9005
   9   2.0000      -0.610187       -16.6040
  10   2.0000      -0.600281       -16.3345
  11   2.0000      -0.536301       -14.5935
  12   2.0000      -0.525643       -14.3035
  13   2.0000      -0.418674       -11.3927
  14   2.0000      -0.384999       -10.4764
  15   0.0000       0.116658         3.1744
  16   0.0000       0.292167         7.9503
  17   0.0000       0.560506        15.2521
  18   0.0000       0.576164        15.6782
  19   0.0000       0.663228        18.0473

MULLIKEN ATOMIC CHARGES
-----------------------
   0 C :    0.148151
   1 O :   -0.342410
   2 C :   -0.155373
   3 C :   -0.234388
   4 H :    0.137964
   5 H :    0.145095
   6 H :    0.163136
   7 H :    0.137824
Sum of atomic charges:    0.0000000

LOEWDIN ATOMIC CHARGES
----------------------
   0 C :    0.140489
   1 O :   -0.256233
   2 C :   -0.116119
   3 C :   -0.126943
   4 H :    0.072583
   5 H :    0.096437
   6 H :    0.110883
   7 H :    0.078904

  Mayer bond orders larger than 0.100000
B(  0-C ,  1-O ) :   1.9025 B(  0-C ,  2-C ) :   1.0321 B(  0-C ,  4-H ) :   0.9328
B(  2-C ,  3-C ) :   1.9371 B(  2-C ,  5-H ) :   0.9590 B(  3-C ,  6-H ) :   0.9602
B(  3-C ,  7-H ) :   0.9714

-----------------------------------------------------------------------------
         ABSORPTION SPECTRUM VIA TRANSITION ELECTRIC DIPOLE MOMENTS
-----------------------------------------------------------------------------
State   Energy    Wavelength  fosc         T2        TX        TY        TZ
        (cm-1)      (nm)                 (au**2)    (au)      (au)      (au)
-----------------------------------------------------------------------------
   1   30336.8    329.6   0.000062346   0.00068  -0.02552  -0.00297   0.00404

Dispersion correction           -0.025137158
FINAL SINGLE POINT ENERGY      -189.332983427912

DIPOLE MOMENT
-------------
                                X             Y             Z
Electronic contribution:     -2.07497      -1.75322       0.05654
Nuclear contribution   :      2.36264       2.69454      -0.09729
                        -----------------------------------------
Total Dipole Moment    :      0.28767       0.94132      -0.04076
                        -----------------------------------------
Magnitude (a.u.)       :      0.98514
Magnitude (Debye)      :      2.50402

Rotational constants in cm-1:     0.745102     0.198670     0.156947
Rotational constants in MHz : 22337.610693  5955.968043  4705.142777

                             ****ORCA TERMINATED NORMALLY****
TOTAL RUN TIME: 0 days 0 hours 0 minutes 13 seconds 195 msec
