                         Program Version 5.0.3 -  RELEASE  -
|  1> ! B3LYP cc-pVDZ
|  2> !TightSCF
|  3> %scf
|  4>  ConvForced true
|  5>  convergence tight
|  6>  MaxIter 500
|  7> end
|  8>
|  9> %tddft
| 10>  nroots 1
| 11> end
| 12>
| 13> # 	10557
| 14> * xyz 0 1
| 15> 		C   -1.186969  -0.410627   0.066723
| 16> 		O   -2.185128  -0.409445   0.745484
| 17> 		C   -0.006920   0.418865   0.352019
| 18> 		C    1.194920   0.073134  -0.274957
| 19> 		H   -1.154746  -0.911814  -0.867075
| 20> 		H   -0.046093   1.201081   1.105095
| 21> 		H    1.393704  -0.542372  -1.045197
| 22> 		H    1.988190   0.615660  -0.071665
| 23> *
| 24>
| 25>                          ****END OF INPUT****

CARTESIAN COORDINATES (ANGSTROEM)
---------------------------------
  C     -1.186969   -0.410627    0.066723
  O     -2.185128   -0.409445    0.745484
  C     -0.006920    0.418865    0.352019
  C      1.194920    0.073134   -0.274957
  H     -1.154746   -0.911814   -0.867075
  H     -0.046093    1.201081    1.105095
  H      1.393704   -0.542372   -1.045197
  H      1.988190    0.615660   -0.071665

 Total Charge           Charge          ....    0
 Multiplicity           Mult            ....    1
 Number of Electrons    NEL             ....   30
 Basis Dimension        Dim             ....   76

ORBITAL ENERGIES
----------------

  NO   OCC          E(Eh)            E(eV)
   0   2.0000     -19.133035      -520.6363
   1   2.0000     -10.266836      -279.3748
   2   2.0000     -10.215439      -277.9762
   3   2.0000     -10.207786      -277.7680
   4   2.0000      -1.044178       -28.4135
   5   2.0000      -0.797170       -21.6921
   6   2.0000      -0.665562       -18.1109
   7   2.0000      -0.581910       -15.8346
   8   2.0000      -0.485799       -13.2193
   9   2.0000      -0.471055       -12.8181
  10   2.0000      -0.422267       -11.4905
  11   2.0000      -0.406100       -11.0505
  12   2.0000      -0.390364       -10.6223
  13   2.0000      -0.285129        -7.7587
  14   2.0000      -0.252206        -6.8629
  15   0.0000      -0.069941        -1.9032
  16   0.0000       0.038475         1.0470
  17   0.0000       0.085191         2.3182
  18   0.0000       0.088730         2.4145
  19   0.0000       0.124813         3.3963

MULLIKEN ATOMIC CHARGES
-----------------------
   0 C :    0.211465
   1 O :   -0.199686
   2 C :   -0.099257
   3 C :    0.122079
   4 H :   -0.035712
   5 H :    0.009358
   6 H :   -0.001467
   7 H :   -0.006779
Sum of atomic charges:    0.0000000

LOEWDIN ATOMIC CHARGES
----------------------
   0 C :   -0.045250
   1 O :    0.000039
   2 C :   -0.030521
   3 C :    0.042973
   4 H :   -0.011658
   5 H :    0.032675
   6 H :    0.008358
   7 H :    0.003384

  Mayer bond orders larger than 0.100000
B(  0-C ,  1-O ) :   2.1634 B(  0-C ,  2-C ) :   1.0856 B(  0-C ,  4-H ) :   0.9293
B(  2-C ,  3-C ) :   1.9142 B(  2-C ,  5-H ) :   0.9484 B(  3-C ,  6-H ) :   0.9641
B(  3-C ,  7-H ) :   0.9493

-----------------------------------------------------------------------------
         ABSORPTION SPECTRUM VIA TRANSITION ELECTRIC DIPOLE MOMENTS
-----------------------------------------------------------------------------
State   Energy    Wavelength  fosc         T2        TX        TY        TZ
        (cm-1)      (nm)                 (au**2)    (au)      (au)      (au)
-----------------------------------------------------------------------------
   1   27676.6    361.3   0.000244250   0.00291   0.05008   0.01964   0.00347

FINAL SINGLE POINT ENERGY      -191.657655293638

DIPOLE MOMENT
-------------
                                X             Y             Z
Electronic contribution:     -3.13878      -0.52409       1.16102
Nuclear contribution   :      4.21463       0.68406      -1.67150
                        -----------------------------------------
Total Dipole Moment    :      1.07584       0.15997      -0.51048
                        -----------------------------------------
Magnitude (a.u.)       :      1.20151
Magnitude (Debye)      :      3.05399

Rotational constants in cm-1:     1.532693     0.154624     0.141645
Rotational constants in MHz : 45948.968594  4635.501677  4246.418358

                             ****ORCA TERMINATED NORMALLY****
TOTAL RUN TIME: 0 days 0 hours 3 minutes 22 seconds 194 msec
