                         Program Version 5.0.3 -  RELEASE  -
|  1> ! HF-3c
|  2> !TightSCF
|  3> %scf
|  4>  ConvForced true
|  5>  convergence tight
|  6>  MaxIter 500
|  7> end
|  8>
|  9> %tddft
| 10>  nroots 1
| 11> end
| 12>
| 13> # 	31663
| 14> * xyz 0 1
| 15> 		C   -0.633340  -0.416101  -0.116730
| 16> 		O   -0.572549  -1.651602   0.060452
| 17> 		C    0.645066   0.410244   0.102179
| 18> 		C    1.874651  -0.108658  -0.054451
| 19> 		H   -1.626550   0.030271  -0.065930
| 20> 		H    0.472071   1.502867  -0.027501
| 21> 		H    1.988419  -1.093198  -0.294421
| 22> 		H    2.714616   0.389805   0.270637
| 23> *
| 24>
| 25>                          ****END OF INPUT****

CARTESIAN COORDINATES (ANGSTROEM)
---------------------------------
  C     -0.633340   -0.416101   -0.116730
  O     -0.572549   -1.651602    0.060452
  C      0.645066    0.410244    0.102179
  C      1.874651   -0.108658   -0.054451
  H     -1.626550    0.030271   -0.065930
  H      0.472071    1.502867   -0.027501
  H      1.988419   -1.093198   -0.294421
  H      2.714616    0.389805    0.270637

 Total Charge           Charge          ....    0
 Multiplicity           Mult            ....    1
 Number of Electrons    NEL             ....   30
 Basis Dimension        Dim             ....   24

ORBITAL ENERGIES
----------------

  NO   OCC          E(Eh)            E(eV)
   0   2.0000     -20.355898      -553.9121
   1   2.0000     -11.283014      -307.0264
   2   2.0000     -11.193140      -304.5808
   3   2.0000     -11.191448      -304.5348
   4   2.0000      -1.375296       -37.4237
   5   2.0000      -1.072194       -29.1759
   6   2.0000      -0.890013       -24.2185
   7   2.0000      -0.762394       -20.7458
   8   2.0000      -0.695298       -18.9200
   9   2.0000      -0.611976       -16.6527
  10   2.0000      -0.601352       -16.3636
  11   2.0000      -0.539969       -14.6933
  12   2.0000      -0.513686       -13.9781
  13   2.0000      -0.415886       -11.3168
  14   2.0000      -0.385696       -10.4953
  15   0.0000       0.120240         3.2719
  16   0.0000       0.269708         7.3391
  17   0.0000       0.522475        14.2173
  18   0.0000       0.627605        17.0780
  19   0.0000       0.713534        19.4163

MULLIKEN ATOMIC CHARGES
-----------------------
   0 C :    0.138863
   1 O :   -0.339639
   2 C :   -0.147407
   3 C :   -0.247454
   4 H :    0.145648
   5 H :    0.144510
   6 H :    0.156236
   7 H :    0.149242
Sum of atomic charges:   -0.0000000

LOEWDIN ATOMIC CHARGES
----------------------
   0 C :    0.129628
   1 O :   -0.255141
   2 C :   -0.105005
   3 C :   -0.137708
   4 H :    0.082118
   5 H :    0.094841
   6 H :    0.097135
   7 H :    0.094132

  Mayer bond orders larger than 0.100000
B(  0-C ,  1-O ) :   1.9058 B(  0-C ,  2-C ) :   1.0132 B(  0-C ,  4-H ) :   0.9345
B(  2-C ,  3-C ) :   1.9527 B(  2-C ,  5-H ) :   0.9584 B(  3-C ,  6-H ) :   0.9618
B(  3-C ,  7-H ) :   0.9652

-----------------------------------------------------------------------------
         ABSORPTION SPECTRUM VIA TRANSITION ELECTRIC DIPOLE MOMENTS
-----------------------------------------------------------------------------
State   Energy    Wavelength  fosc         T2        TX        TY        TZ
        (cm-1)      (nm)                 (au**2)    (au)      (au)      (au)
-----------------------------------------------------------------------------
   1   29002.5    344.8   0.000676416   0.00768  -0.08519  -0.01897   0.00780

Dispersion correction           -0.025370155
FINAL SINGLE POINT ENERGY      -189.333929106045

DIPOLE MOMENT
-------------
                                X             Y             Z
Electronic contribution:     -2.00404      -1.62668      -0.00167
Nuclear contribution   :      2.17333       2.56593      -0.11043
                        -----------------------------------------
Total Dipole Moment    :      0.16929       0.93925      -0.11211
                        -----------------------------------------
Magnitude (a.u.)       :      0.96095
Magnitude (Debye)      :      2.44253

Rotational constants in cm-1:     0.738171     0.202640     0.160657
Rotational constants in MHz : 22129.809857  6074.997859  4816.373734

                             ****ORCA TERMINATED NORMALLY****
TOTAL RUN TIME: 0 days 0 hours 0 minutes 15 seconds 425 msec
