                         Program Version 5.0.3 -  RELEASE  -
|  1> ! B3LYP cc-pVDZ
|  2> !TightSCF
|  3> %scf
|  4>  ConvForced true
|  5>  convergence tight
|  6>  MaxIter 500
|  7> end
|  8>
|  9> %tddft
| 10>  nroots 1
| 11> end
| 12>
| 13> # 	15119
| 14> * xyz 0 1
| 15> 		C   -1.157358  -0.294803   0.067112
| 16> 		O   -2.128887  -0.119137   0.909119
| 17> 		C    0.134019   0.357338   0.376505
| 18> 		C    1.238467   0.028871  -0.292248
| 19> 		H   -1.298737  -0.977614  -0.876100
| 20> 		H    0.063696   0.850157   1.225508
| 21> 		H    1.262611  -0.666685  -1.113484
| 22> 		H    1.904097   0.835383  -0.292830
| 23> *
| 24>
| 25>                          ****END OF INPUT****

CARTESIAN COORDINATES (ANGSTROEM)
---------------------------------
  C     -1.157358   -0.294803    0.067112
  O     -2.128887   -0.119137    0.909119
  C      0.134019    0.357338    0.376505
  C      1.238467    0.028871   -0.292248
  H     -1.298737   -0.977614   -0.876100
  H      0.063696    0.850157    1.225508
  H      1.262611   -0.666685   -1.113484
  H      1.904097    0.835383   -0.292830

 Total Charge           Charge          ....    0
 Multiplicity           Mult            ....    1
 Number of Electrons    NEL             ....   30
 Basis Dimension        Dim             ....   76

ORBITAL ENERGIES
----------------

  NO   OCC          E(Eh)            E(eV)
   0   2.0000     -19.139067      -520.8005
   1   2.0000     -10.283207      -279.8203
   2   2.0000     -10.213180      -277.9148
   3   2.0000     -10.205232      -277.6985
   4   2.0000      -1.001934       -27.2640
   5   2.0000      -0.812152       -22.0998
   6   2.0000      -0.654614       -17.8130
   7   2.0000      -0.580347       -15.7920
   8   2.0000      -0.478990       -13.0340
   9   2.0000      -0.469896       -12.7865
  10   2.0000      -0.412040       -11.2122
  11   2.0000      -0.402081       -10.9412
  12   2.0000      -0.371780       -10.1166
  13   2.0000      -0.287470        -7.8225
  14   2.0000      -0.252845        -6.8803
  15   0.0000      -0.083675        -2.2769
  16   0.0000       0.031125         0.8470
  17   0.0000       0.070947         1.9306
  18   0.0000       0.086321         2.3489
  19   0.0000       0.112259         3.0547

MULLIKEN ATOMIC CHARGES
-----------------------
   0 C :    0.131447
   1 O :   -0.258453
   2 C :    0.018079
   3 C :    0.078252
   4 H :    0.011377
   5 H :   -0.039386
   6 H :    0.026865
   7 H :    0.031819
Sum of atomic charges:   -0.0000000

LOEWDIN ATOMIC CHARGES
----------------------
   0 C :    0.015587
   1 O :   -0.080036
   2 C :   -0.024049
   3 C :    0.011062
   4 H :    0.012233
   5 H :    0.006662
   6 H :    0.028112
   7 H :    0.030429

  Mayer bond orders larger than 0.100000
B(  0-C ,  1-O ) :   2.0371 B(  0-C ,  2-C ) :   1.1179 B(  0-C ,  4-H ) :   0.9192
B(  1-O ,  3-C ) :   0.1076 B(  2-C ,  3-C ) :   1.9043 B(  2-C ,  5-H ) :   0.9491
B(  3-C ,  6-H ) :   0.9482 B(  3-C ,  7-H ) :   0.9334

-----------------------------------------------------------------------------
         ABSORPTION SPECTRUM VIA TRANSITION ELECTRIC DIPOLE MOMENTS
-----------------------------------------------------------------------------
State   Energy    Wavelength  fosc         T2        TX        TY        TZ
        (cm-1)      (nm)                 (au**2)    (au)      (au)      (au)
-----------------------------------------------------------------------------
   1   24284.1    411.8   0.000992176   0.01345   0.10375  -0.04221  -0.03009

FINAL SINGLE POINT ENERGY      -191.659039053855

DIPOLE MOMENT
-------------
                                X             Y             Z
Electronic contribution:     -2.74446      -0.07054       1.36360
Nuclear contribution   :      3.76511       0.08845      -2.00612
                        -----------------------------------------
Total Dipole Moment    :      1.02065       0.01791      -0.64253
                        -----------------------------------------
Magnitude (a.u.)       :      1.20619
Magnitude (Debye)      :      3.06588

Rotational constants in cm-1:     1.472895     0.155095     0.141225
Rotational constants in MHz : 44156.275689  4649.632896  4233.821998

                             ****ORCA TERMINATED NORMALLY****
TOTAL RUN TIME: 0 days 0 hours 3 minutes 22 seconds 158 msec
