                         Program Version 5.0.3 -  RELEASE  -
|  1> ! HF-3c
|  2> !TightSCF
|  3> %scf
|  4>  ConvForced true
|  5>  convergence tight
|  6>  MaxIter 500
|  7> end
|  8>
|  9> %tddft
| 10>  nroots 1
| 11> end
| 12>
| 13> # 	17129
| 14> * xyz 0 1
| 15> 		C   -1.186845  -0.331801   0.044737
| 16> 		O   -1.447954  -1.404562   0.608582
| 17> 		C    0.017751   0.483796   0.193335
| 18> 		C    1.238823   0.007188  -0.151439
| 19> 		H   -1.796394   0.097493  -0.725934
| 20> 		H   -0.239567   1.605292   0.378145
| 21> 		H    1.355023  -1.050251  -0.311540
| 22> 		H    2.058909   0.635587   0.018220
| 23> *
| 24>
| 25>                          ****END OF INPUT****

CARTESIAN COORDINATES (ANGSTROEM)
---------------------------------
  C     -1.186845   -0.331801    0.044737
  O     -1.447954   -1.404562    0.608582
  C      0.017751    0.483796    0.193335
  C      1.238823    0.007188   -0.151439
  H     -1.796394    0.097493   -0.725934
  H     -0.239567    1.605292    0.378145
  H      1.355023   -1.050251   -0.311540
  H      2.058909    0.635587    0.018220

 Total Charge           Charge          ....    0
 Multiplicity           Mult            ....    1
 Number of Electrons    NEL             ....   30
 Basis Dimension        Dim             ....   24

ORBITAL ENERGIES
----------------

  NO   OCC          E(Eh)            E(eV)
   0   2.0000     -20.369724      -554.2884
   1   2.0000     -11.294020      -307.3259
   2   2.0000     -11.192488      -304.5631
   3   2.0000     -11.183276      -304.3124
   4   2.0000      -1.384023       -37.6612
   5   2.0000      -1.079224       -29.3672
   6   2.0000      -0.906972       -24.6800
   7   2.0000      -0.748991       -20.3811
   8   2.0000      -0.688450       -18.7337
   9   2.0000      -0.620366       -16.8810
  10   2.0000      -0.608342       -16.5538
  11   2.0000      -0.549073       -14.9410
  12   2.0000      -0.495165       -13.4741
  13   2.0000      -0.419454       -11.4139
  14   2.0000      -0.392128       -10.6704
  15   0.0000       0.147217         4.0060
  16   0.0000       0.241373         6.5681
  17   0.0000       0.556101        15.1323
  18   0.0000       0.606884        16.5141
  19   0.0000       0.684100        18.6153

MULLIKEN ATOMIC CHARGES
-----------------------
   0 C :    0.151504
   1 O :   -0.336028
   2 C :   -0.147255
   3 C :   -0.251333
   4 H :    0.137359
   5 H :    0.148560
   6 H :    0.152018
   7 H :    0.145175
Sum of atomic charges:   -0.0000000

LOEWDIN ATOMIC CHARGES
----------------------
   0 C :    0.145285
   1 O :   -0.250288
   2 C :   -0.107224
   3 C :   -0.154539
   4 H :    0.072366
   5 H :    0.102666
   6 H :    0.099565
   7 H :    0.092169

  Mayer bond orders larger than 0.100000
B(  0-C ,  1-O ) :   1.9288 B(  0-C ,  2-C ) :   1.0170 B(  0-C ,  4-H ) :   0.9233
B(  2-C ,  3-C ) :   1.9686 B(  2-C ,  5-H ) :   0.9481 B(  3-C ,  6-H ) :   0.9627
B(  3-C ,  7-H ) :   0.9654

-----------------------------------------------------------------------------
         ABSORPTION SPECTRUM VIA TRANSITION ELECTRIC DIPOLE MOMENTS
-----------------------------------------------------------------------------
State   Energy    Wavelength  fosc         T2        TX        TY        TZ
        (cm-1)      (nm)                 (au**2)    (au)      (au)      (au)
-----------------------------------------------------------------------------
   1   32193.2    310.6   0.000105423   0.00108   0.02819   0.01322  -0.01041

Dispersion correction           -0.025377905
FINAL SINGLE POINT ENERGY      -189.325961631499

DIPOLE MOMENT
-------------
                                X             Y             Z
Electronic contribution:     -2.32668      -1.59707       0.82672
Nuclear contribution   :      2.67848       2.48206      -1.27328
                        -----------------------------------------
Total Dipole Moment    :      0.35181       0.88499      -0.44656
                        -----------------------------------------
Magnitude (a.u.)       :      1.05185
Magnitude (Debye)      :      2.67359

Rotational constants in cm-1:     0.848959     0.182569     0.158321
Rotational constants in MHz : 25451.154245  5473.283009  4746.341152

                             ****ORCA TERMINATED NORMALLY****
TOTAL RUN TIME: 0 days 0 hours 0 minutes 16 seconds 111 msec
