                         Program Version 5.0.3 -  RELEASE  -
|  1> ! HF-3c
|  2> !TightSCF
|  3> %scf
|  4>  ConvForced true
|  5>  convergence tight
|  6>  MaxIter 500
|  7> end
|  8>
|  9> %tddft
| 10>  nroots 1
| 11> end
| 12>
| 13> # 	3891
| 14> * xyz 0 1
| 15> 		C   -1.178087  -0.302627   0.070662
| 16> 		O   -1.765893  -0.818129   1.017306
| 17> 		C    0.021350   0.473089   0.210228
| 18> 		C    1.165459   0.019494  -0.196664
| 19> 		H   -1.468681  -0.496718  -0.893687
| 20> 		H    0.014905   1.393156   0.988537
| 21> 		H    1.071060  -0.891185  -0.962616
| 22> 		H    2.149759   0.611379  -0.116116
| 23> *
| 24>
| 25>                          ****END OF INPUT****

CARTESIAN COORDINATES (ANGSTROEM)
---------------------------------
  C     -1.178087   -0.302627    0.070662
  O     -1.765893   -0.818129    1.017306
  C      0.021350    0.473089    0.210228
  C      1.165459    0.019494   -0.196664
  H     -1.468681   -0.496718   -0.893687
  H      0.014905    1.393156    0.988537
  H      1.071060   -0.891185   -0.962616
  H      2.149759    0.611379   -0.116116

 Total Charge           Charge          ....    0
 Multiplicity           Mult            ....    1
 Number of Electrons    NEL             ....   30
 Basis Dimension        Dim             ....   24

ORBITAL ENERGIES
----------------

  NO   OCC          E(Eh)            E(eV)
   0   2.0000     -20.370632      -554.3131
   1   2.0000     -11.299249      -307.4682
   2   2.0000     -11.186412      -304.3977
   3   2.0000     -11.181050      -304.2518
   4   2.0000      -1.395923       -37.9850
   5   2.0000      -1.092495       -29.7283
   6   2.0000      -0.888039       -24.1648
   7   2.0000      -0.766373       -20.8541
   8   2.0000      -0.660722       -17.9791
   9   2.0000      -0.635866       -17.3028
  10   2.0000      -0.595621       -16.2077
  11   2.0000      -0.522884       -14.2284
  12   2.0000      -0.490606       -13.3501
  13   2.0000      -0.419716       -11.4211
  14   2.0000      -0.404316       -11.0020
  15   0.0000       0.156842         4.2679
  16   0.0000       0.257050         6.9947
  17   0.0000       0.511469        13.9178
  18   0.0000       0.562546        15.3076
  19   0.0000       0.606348        16.4996

MULLIKEN ATOMIC CHARGES
-----------------------
   0 C :    0.145583
   1 O :   -0.333479
   2 C :   -0.171431
   3 C :   -0.221354
   4 H :    0.140392
   5 H :    0.156324
   6 H :    0.135136
   7 H :    0.148829
Sum of atomic charges:    0.0000000

LOEWDIN ATOMIC CHARGES
----------------------
   0 C :    0.142723
   1 O :   -0.245508
   2 C :   -0.133509
   3 C :   -0.142354
   4 H :    0.070014
   5 H :    0.111636
   6 H :    0.094357
   7 H :    0.102642

  Mayer bond orders larger than 0.100000
B(  0-C ,  1-O ) :   1.9237 B(  0-C ,  2-C ) :   1.0168 B(  0-C ,  4-H ) :   0.9309
B(  2-C ,  3-C ) :   1.9827 B(  2-C ,  5-H ) :   0.9369 B(  3-C ,  6-H ) :   0.9569
B(  3-C ,  7-H ) :   0.9576

-----------------------------------------------------------------------------
         ABSORPTION SPECTRUM VIA TRANSITION ELECTRIC DIPOLE MOMENTS
-----------------------------------------------------------------------------
State   Energy    Wavelength  fosc         T2        TX        TY        TZ
        (cm-1)      (nm)                 (au**2)    (au)      (au)      (au)
-----------------------------------------------------------------------------
   1   32650.1    306.3   0.000063429   0.00064   0.02442   0.00439  -0.00490

Dispersion correction           -0.025685818
FINAL SINGLE POINT ENERGY      -189.301047547926

DIPOLE MOMENT
-------------
                                X             Y             Z
Electronic contribution:     -2.72539      -0.81117       1.30837
Nuclear contribution   :      3.40351       1.25092      -2.00308
                        -----------------------------------------
Total Dipole Moment    :      0.67813       0.43975      -0.69471
                        -----------------------------------------
Magnitude (a.u.)       :      1.06576
Magnitude (Debye)      :      2.70896

Rotational constants in cm-1:     1.112950     0.166775     0.162081
Rotational constants in MHz : 33365.391178  4999.780175  4859.067181

                             ****ORCA TERMINATED NORMALLY****
TOTAL RUN TIME: 0 days 0 hours 0 minutes 12 seconds 180 msec
