                         Program Version 5.0.3 -  RELEASE  -
|  1> ! HF-3c
|  2> !TightSCF
|  3> %scf
|  4>  ConvForced true
|  5>  convergence tight
|  6>  MaxIter 500
|  7> end
|  8>
|  9> %tddft
| 10>  nroots 1
| 11> end
| 12>
| 13> # 	16574
| 14> * xyz 0 1
| 15> 		C   -1.233195  -0.425096  -0.004881
| 16> 		O   -1.921077  -0.761679   0.876286
| 17> 		C   -0.018892   0.491924   0.246652
| 18> 		C    1.164171   0.083258  -0.250382
| 19> 		H   -1.418011  -0.640706  -1.022072
| 20> 		H   -0.029524   1.302824   0.929814
| 21> 		H    1.312402  -0.759615  -0.720889
| 22> 		H    2.198156   0.680930  -0.074039
| 23> *
| 24>
| 25>                          ****END OF INPUT****

CARTESIAN COORDINATES (ANGSTROEM)
---------------------------------
  C     -1.233195   -0.425096   -0.004881
  O     -1.921077   -0.761679    0.876286
  C     -0.018892    0.491924    0.246652
  C      1.164171    0.083258   -0.250382
  H     -1.418011   -0.640706   -1.022072
  H     -0.029524    1.302824    0.929814
  H      1.312402   -0.759615   -0.720889
  H      2.198156    0.680930   -0.074039

 Total Charge           Charge          ....    0
 Multiplicity           Mult            ....    1
 Number of Electrons    NEL             ....   30
 Basis Dimension        Dim             ....   24

ORBITAL ENERGIES
----------------

  NO   OCC          E(Eh)            E(eV)
   0   2.0000     -20.393446      -554.9339
   1   2.0000     -11.317118      -307.9545
   2   2.0000     -11.185571      -304.3749
   3   2.0000     -11.180394      -304.2340
   4   2.0000      -1.444525       -39.3075
   5   2.0000      -1.072653       -29.1884
   6   2.0000      -0.873106       -23.7584
   7   2.0000      -0.798207       -21.7203
   8   2.0000      -0.692927       -18.8555
   9   2.0000      -0.638949       -17.3867
  10   2.0000      -0.605667       -16.4810
  11   2.0000      -0.547299       -14.8928
  12   2.0000      -0.540686       -14.7128
  13   2.0000      -0.412546       -11.2260
  14   2.0000      -0.396333       -10.7848
  15   0.0000       0.160627         4.3709
  16   0.0000       0.259887         7.0719
  17   0.0000       0.506217        13.7749
  18   0.0000       0.583817        15.8865
  19   0.0000       0.721667        19.6376

MULLIKEN ATOMIC CHARGES
-----------------------
   0 C :    0.182260
   1 O :   -0.348235
   2 C :   -0.166746
   3 C :   -0.240179
   4 H :    0.143971
   5 H :    0.155748
   6 H :    0.129700
   7 H :    0.143481
Sum of atomic charges:    0.0000000

LOEWDIN ATOMIC CHARGES
----------------------
   0 C :    0.156224
   1 O :   -0.236502
   2 C :   -0.121841
   3 C :   -0.146673
   4 H :    0.073318
   5 H :    0.099974
   6 H :    0.073485
   7 H :    0.102015

  Mayer bond orders larger than 0.100000
B(  0-C ,  1-O ) :   1.9469 B(  0-C ,  2-C ) :   0.9729 B(  0-C ,  4-H ) :   0.9214
B(  2-C ,  3-C ) :   1.9852 B(  2-C ,  5-H ) :   0.9558 B(  3-C ,  6-H ) :   0.9720
B(  3-C ,  7-H ) :   0.9612

-----------------------------------------------------------------------------
         ABSORPTION SPECTRUM VIA TRANSITION ELECTRIC DIPOLE MOMENTS
-----------------------------------------------------------------------------
State   Energy    Wavelength  fosc         T2        TX        TY        TZ
        (cm-1)      (nm)                 (au**2)    (au)      (au)      (au)
-----------------------------------------------------------------------------
   1   36311.5    275.4   0.000285797   0.00259  -0.04837  -0.01569   0.00219

Dispersion correction           -0.025202437
FINAL SINGLE POINT ENERGY      -189.294848751836

DIPOLE MOMENT
-------------
                                X             Y             Z
Electronic contribution:     -3.18683      -0.89726       1.08131
Nuclear contribution   :      3.90369       1.19434      -1.69445
                        -----------------------------------------
Total Dipole Moment    :      0.71686       0.29708      -0.61314
                        -----------------------------------------
Magnitude (a.u.)       :      0.98899
Magnitude (Debye)      :      2.51380

Rotational constants in cm-1:     1.226334     0.159167     0.151174
Rotational constants in MHz : 36764.572027  4771.713028  4532.068697

                             ****ORCA TERMINATED NORMALLY****
TOTAL RUN TIME: 0 days 0 hours 0 minutes 9 seconds 538 msec
