                         Program Version 5.0.3 -  RELEASE  -
|  1> ! B3LYP cc-pVDZ
|  2> !TightSCF
|  3> %scf
|  4>  ConvForced true
|  5>  convergence tight
|  6>  MaxIter 500
|  7> end
|  8>
|  9> %tddft
| 10>  nroots 1
| 11> end
| 12>
| 13> # 	17958
| 14> * xyz 0 1
| 15> 		C   -1.220654  -0.306346  -0.011135
| 16> 		O   -2.161180  -0.360292  -0.819907
| 17> 		C    0.108759   0.364843  -0.323001
| 18> 		C    1.228799   0.063585   0.308778
| 19> 		H   -1.288963  -0.913520   0.787625
| 20> 		H    0.163922   1.074087  -1.164493
| 21> 		H    1.124207  -0.549391   1.185456
| 22> 		H    2.083311   0.563067   0.111346
| 23> *
| 24>
| 25>                          ****END OF INPUT****

CARTESIAN COORDINATES (ANGSTROEM)
---------------------------------
  C     -1.220654   -0.306346   -0.011135
  O     -2.161180   -0.360292   -0.819907
  C      0.108759    0.364843   -0.323001
  C      1.228799    0.063585    0.308778
  H     -1.288963   -0.913520    0.787625
  H      0.163922    1.074087   -1.164493
  H      1.124207   -0.549391    1.185456
  H      2.083311    0.563067    0.111346

 Total Charge           Charge          ....    0
 Multiplicity           Mult            ....    1
 Number of Electrons    NEL             ....   30
 Basis Dimension        Dim             ....   76

ORBITAL ENERGIES
----------------

  NO   OCC          E(Eh)            E(eV)
   0   2.0000     -19.138313      -520.7800
   1   2.0000     -10.272641      -279.5328
   2   2.0000     -10.209464      -277.8136
   3   2.0000     -10.204137      -277.6687
   4   2.0000      -1.029536       -28.0151
   5   2.0000      -0.805247       -21.9119
   6   2.0000      -0.653223       -17.7751
   7   2.0000      -0.582039       -15.8381
   8   2.0000      -0.492713       -13.4074
   9   2.0000      -0.472631       -12.8609
  10   2.0000      -0.417150       -11.3512
  11   2.0000      -0.392380       -10.6772
  12   2.0000      -0.384120       -10.4524
  13   2.0000      -0.294707        -8.0194
  14   2.0000      -0.255188        -6.9440
  15   0.0000      -0.066434        -1.8078
  16   0.0000       0.039459         1.0737
  17   0.0000       0.079065         2.1515
  18   0.0000       0.084360         2.2955
  19   0.0000       0.129824         3.5327

MULLIKEN ATOMIC CHARGES
-----------------------
   0 C :    0.237085
   1 O :   -0.221332
   2 C :   -0.125181
   3 C :    0.131105
   4 H :   -0.044359
   5 H :    0.005165
   6 H :    0.013186
   7 H :    0.004330
Sum of atomic charges:   -0.0000000

LOEWDIN ATOMIC CHARGES
----------------------
   0 C :    0.006127
   1 O :   -0.024679
   2 C :   -0.046373
   3 C :    0.010474
   4 H :   -0.019660
   5 H :    0.034374
   6 H :    0.027058
   7 H :    0.012679

  Mayer bond orders larger than 0.100000
B(  0-C ,  1-O ) :   2.1307 B(  0-C ,  2-C ) :   1.0524 B(  0-C ,  4-H ) :   0.9435
B(  2-C ,  3-C ) :   1.9682 B(  2-C ,  5-H ) :   0.9489 B(  3-C ,  6-H ) :   0.9386
B(  3-C ,  7-H ) :   0.9321

-----------------------------------------------------------------------------
         ABSORPTION SPECTRUM VIA TRANSITION ELECTRIC DIPOLE MOMENTS
-----------------------------------------------------------------------------
State   Energy    Wavelength  fosc         T2        TX        TY        TZ
        (cm-1)      (nm)                 (au**2)    (au)      (au)      (au)
-----------------------------------------------------------------------------
   1   27813.5    359.5   0.000226921   0.00269   0.04602  -0.01674   0.01697

FINAL SINGLE POINT ENERGY      -191.662873561097

DIPOLE MOMENT
-------------
                                X             Y             Z
Electronic contribution:     -3.03266      -0.30745      -1.09322
Nuclear contribution   :      4.00990       0.43516       1.69060
                        -----------------------------------------
Total Dipole Moment    :      0.97724       0.12771       0.59738
                        -----------------------------------------
Magnitude (a.u.)       :      1.15246
Magnitude (Debye)      :      2.92932

Rotational constants in cm-1:     1.553293     0.150802     0.138913
Rotational constants in MHz : 46566.558315  4520.928646  4164.497929

                             ****ORCA TERMINATED NORMALLY****
TOTAL RUN TIME: 0 days 0 hours 3 minutes 20 seconds 398 msec
