                         Program Version 5.0.3 -  RELEASE  -
|  1> ! B3LYP cc-pVDZ
|  2> !TightSCF
|  3> %scf
|  4>  ConvForced true
|  5>  convergence tight
|  6>  MaxIter 500
|  7> end
|  8>
|  9> %tddft
| 10>  nroots 1
| 11> end
| 12>
| 13> # 	12669
| 14> * xyz 0 1
| 15> 		C   -1.189362  -0.297676  -0.024634
| 16> 		O   -1.558136  -1.136262   0.695077
| 17> 		C    0.017562   0.504925   0.161994
| 18> 		C    1.217392   0.034851  -0.143569
| 19> 		H   -1.663522  -0.224849  -1.065899
| 20> 		H   -0.216758   1.506462   0.696276
| 21> 		H    1.396925  -0.975256  -0.574630
| 22> 		H    2.015019   0.629824   0.221619
| 23> *
| 24>
| 25>                          ****END OF INPUT****

CARTESIAN COORDINATES (ANGSTROEM)
---------------------------------
  C     -1.189362   -0.297676   -0.024634
  O     -1.558136   -1.136262    0.695077
  C      0.017562    0.504925    0.161994
  C      1.217392    0.034851   -0.143569
  H     -1.663522   -0.224849   -1.065899
  H     -0.216758    1.506462    0.696276
  H      1.396925   -0.975256   -0.574630
  H      2.015019    0.629824    0.221619

 Total Charge           Charge          ....    0
 Multiplicity           Mult            ....    1
 Number of Electrons    NEL             ....   30
 Basis Dimension        Dim             ....   76

ORBITAL ENERGIES
----------------

  NO   OCC          E(Eh)            E(eV)
   0   2.0000     -19.143506      -520.9213
   1   2.0000     -10.275116      -279.6001
   2   2.0000     -10.208429      -277.7855
   3   2.0000     -10.203437      -277.6496
   4   2.0000      -1.077696       -29.3256
   5   2.0000      -0.798925       -21.7399
   6   2.0000      -0.651947       -17.7404
   7   2.0000      -0.545695       -14.8491
   8   2.0000      -0.494189       -13.4476
   9   2.0000      -0.464426       -12.6377
  10   2.0000      -0.448743       -12.2109
  11   2.0000      -0.398184       -10.8352
  12   2.0000      -0.381443       -10.3796
  13   2.0000      -0.287124        -7.8130
  14   2.0000      -0.251241        -6.8366
  15   0.0000      -0.021549        -0.5864
  16   0.0000      -0.010241        -0.2787
  17   0.0000       0.073421         1.9979
  18   0.0000       0.090063         2.4507
  19   0.0000       0.102035         2.7765

MULLIKEN ATOMIC CHARGES
-----------------------
   0 C :    0.142878
   1 O :   -0.140442
   2 C :   -0.120191
   3 C :    0.053987
   4 H :   -0.029419
   5 H :    0.035976
   6 H :    0.033856
   7 H :    0.023355
Sum of atomic charges:   -0.0000000

LOEWDIN ATOMIC CHARGES
----------------------
   0 C :   -0.062753
   1 O :    0.053757
   2 C :   -0.065425
   3 C :   -0.026900
   4 H :   -0.014001
   5 H :    0.050285
   6 H :    0.037399
   7 H :    0.027637

  Mayer bond orders larger than 0.100000
B(  0-C ,  1-O ) :   2.2837 B(  0-C ,  2-C ) :   0.9846 B(  0-C ,  4-H ) :   0.9032
B(  2-C ,  3-C ) :   2.0432 B(  2-C ,  5-H ) :   0.9236 B(  3-C ,  6-H ) :   0.9439
B(  3-C ,  7-H ) :   0.9374

-----------------------------------------------------------------------------
         ABSORPTION SPECTRUM VIA TRANSITION ELECTRIC DIPOLE MOMENTS
-----------------------------------------------------------------------------
State   Energy    Wavelength  fosc         T2        TX        TY        TZ
        (cm-1)      (nm)                 (au**2)    (au)      (au)      (au)
-----------------------------------------------------------------------------
   1   35091.3    285.0   0.000243855   0.00229  -0.00958  -0.00209  -0.04681

FINAL SINGLE POINT ENERGY      -191.624333317341

DIPOLE MOMENT
-------------
                                X             Y             Z
Electronic contribution:     -2.48595      -1.23752       1.02476
Nuclear contribution   :      2.94858       1.82431      -1.36102
                        -----------------------------------------
Total Dipole Moment    :      0.46263       0.58679      -0.33626
                        -----------------------------------------
Magnitude (a.u.)       :      0.81940
Magnitude (Debye)      :      2.08275

Rotational constants in cm-1:     0.933504     0.179619     0.166821
Rotational constants in MHz : 27985.758416  5384.845641  5001.166482

                             ****ORCA TERMINATED NORMALLY****
TOTAL RUN TIME: 0 days 0 hours 3 minutes 21 seconds 175 msec
