                         Program Version 5.0.3 -  RELEASE  -
|  1> ! B3LYP cc-pVDZ
|  2> !TightSCF
|  3> %scf
|  4>  ConvForced true
|  5>  convergence tight
|  6>  MaxIter 500
|  7> end
|  8>
|  9> %tddft
| 10>  nroots 1
| 11> end
| 12>
| 13> # 	2243
| 14> * xyz 0 1
| 15> 		C   -1.207093  -0.303140   0.084453
| 16> 		O   -1.293562  -1.513988   0.404870
| 17> 		C    0.072280   0.518154   0.139817
| 18> 		C    1.189229   0.045421  -0.067272
| 19> 		H   -2.167567   0.099707  -0.581232
| 20> 		H   -0.038707   1.615539   0.297755
| 21> 		H    1.308377  -1.115426  -0.281799
| 22> 		H    2.142387   0.627594   0.041932
| 23> *
| 24>
| 25>                          ****END OF INPUT****

CARTESIAN COORDINATES (ANGSTROEM)
---------------------------------
  C     -1.207093   -0.303140    0.084453
  O     -1.293562   -1.513988    0.404870
  C      0.072280    0.518154    0.139817
  C      1.189229    0.045421   -0.067272
  H     -2.167567    0.099707   -0.581232
  H     -0.038707    1.615539    0.297755
  H      1.308377   -1.115426   -0.281799
  H      2.142387    0.627594    0.041932

 Total Charge           Charge          ....    0
 Multiplicity           Mult            ....    1
 Number of Electrons    NEL             ....   30
 Basis Dimension        Dim             ....   76

ORBITAL ENERGIES
----------------

  NO   OCC          E(Eh)            E(eV)
   0   2.0000     -19.147253      -521.0233
   1   2.0000     -10.294696      -280.1329
   2   2.0000     -10.208636      -277.7911
   3   2.0000     -10.204010      -277.6652
   4   2.0000      -1.027427       -27.9577
   5   2.0000      -0.816039       -22.2055
   6   2.0000      -0.641003       -17.4426
   7   2.0000      -0.532252       -14.4833
   8   2.0000      -0.500743       -13.6259
   9   2.0000      -0.451148       -12.2764
  10   2.0000      -0.431639       -11.7455
  11   2.0000      -0.377222       -10.2647
  12   2.0000      -0.362742        -9.8707
  13   2.0000      -0.308371        -8.3912
  14   2.0000      -0.256325        -6.9749
  15   0.0000      -0.061903        -1.6845
  16   0.0000       0.033879         0.9219
  17   0.0000       0.065075         1.7708
  18   0.0000       0.077406         2.1063
  19   0.0000       0.096628         2.6294

MULLIKEN ATOMIC CHARGES
-----------------------
   0 C :    0.128718
   1 O :   -0.210445
   2 C :   -0.060558
   3 C :    0.038586
   4 H :    0.016787
   5 H :    0.002381
   6 H :    0.047349
   7 H :    0.037182
Sum of atomic charges:    0.0000000

LOEWDIN ATOMIC CHARGES
----------------------
   0 C :    0.001711
   1 O :   -0.039133
   2 C :   -0.094060
   3 C :   -0.014140
   4 H :    0.011770
   5 H :    0.039577
   6 H :    0.051488
   7 H :    0.042787

  Mayer bond orders larger than 0.100000
B(  0-C ,  1-O ) :   2.1601 B(  0-C ,  2-C ) :   0.9774 B(  0-C ,  4-H ) :   0.8993
B(  2-C ,  3-C ) :   2.0494 B(  2-C ,  5-H ) :   0.9268 B(  3-C ,  6-H ) :   0.9178
B(  3-C ,  7-H ) :   0.9269

-----------------------------------------------------------------------------
         ABSORPTION SPECTRUM VIA TRANSITION ELECTRIC DIPOLE MOMENTS
-----------------------------------------------------------------------------
State   Energy    Wavelength  fosc         T2        TX        TY        TZ
        (cm-1)      (nm)                 (au**2)    (au)      (au)      (au)
-----------------------------------------------------------------------------
   1   28415.2    351.9   0.000525911   0.00609   0.04051  -0.00510   0.06653

FINAL SINGLE POINT ENERGY      -191.642633352130

DIPOLE MOMENT
-------------
                                X             Y             Z
Electronic contribution:     -1.97430      -1.57177       0.77850
Nuclear contribution   :      2.41095       2.46353      -1.01156
                        -----------------------------------------
Total Dipole Moment    :      0.43665       0.89175      -0.23306
                        -----------------------------------------
Magnitude (a.u.)       :      1.01990
Magnitude (Debye)      :      2.59239

Rotational constants in cm-1:     0.810087     0.192866     0.159922
Rotational constants in MHz : 24285.799086  5781.983541  4794.339616

                             ****ORCA TERMINATED NORMALLY****
TOTAL RUN TIME: 0 days 0 hours 3 minutes 23 seconds 265 msec
