                         Program Version 5.0.3 -  RELEASE  -
|  1> ! HF-3c
|  2> !TightSCF
|  3> %scf
|  4>  ConvForced true
|  5>  convergence tight
|  6>  MaxIter 500
|  7> end
|  8>
|  9> %tddft
| 10>  nroots 1
| 11> end
| 12>
| 13> # 	23959
| 14> * xyz 0 1
| 15> 		C   -0.595165  -0.436174  -0.028235
| 16> 		O   -0.592605  -1.631892   0.024790
| 17> 		C    0.647351   0.384056   0.025307
| 18> 		C    1.852851  -0.108262  -0.010183
| 19> 		H   -1.659012   0.179350  -0.187082
| 20> 		H    0.432408   1.503978   0.106585
| 21> 		H    2.184374  -1.098864  -0.183274
| 22> 		H    2.702429   0.518892   0.039102
| 23> *
| 24>
| 25>                          ****END OF INPUT****

CARTESIAN COORDINATES (ANGSTROEM)
---------------------------------
  C     -0.595165   -0.436174   -0.028235
  O     -0.592605   -1.631892    0.024790
  C      0.647351    0.384056    0.025307
  C      1.852851   -0.108262   -0.010183
  H     -1.659012    0.179350   -0.187082
  H      0.432408    1.503978    0.106585
  H      2.184374   -1.098864   -0.183274
  H      2.702429    0.518892    0.039102

 Total Charge           Charge          ....    0
 Multiplicity           Mult            ....    1
 Number of Electrons    NEL             ....   30
 Basis Dimension        Dim             ....   24

ORBITAL ENERGIES
----------------

  NO   OCC          E(Eh)            E(eV)
   0   2.0000     -20.366661      -554.2050
   1   2.0000     -11.294189      -307.3305
   2   2.0000     -11.194508      -304.6181
   3   2.0000     -11.192948      -304.5756
   4   2.0000      -1.408663       -38.3317
   5   2.0000      -1.082184       -29.4477
   6   2.0000      -0.885918       -24.1070
   7   2.0000      -0.738167       -20.0866
   8   2.0000      -0.691528       -18.8174
   9   2.0000      -0.626918       -17.0593
  10   2.0000      -0.592590       -16.1252
  11   2.0000      -0.542982       -14.7753
  12   2.0000      -0.523895       -14.2559
  13   2.0000      -0.405524       -11.0349
  14   2.0000      -0.399388       -10.8679
  15   0.0000       0.140153         3.8138
  16   0.0000       0.318753         8.6737
  17   0.0000       0.472924        12.8689
  18   0.0000       0.577813        15.7231
  19   0.0000       0.636220        17.3124

MULLIKEN ATOMIC CHARGES
-----------------------
   0 C :    0.184684
   1 O :   -0.358842
   2 C :   -0.165300
   3 C :   -0.236204
   4 H :    0.129870
   5 H :    0.144599
   6 H :    0.157844
   7 H :    0.143348
Sum of atomic charges:   -0.0000000

LOEWDIN ATOMIC CHARGES
----------------------
   0 C :    0.148162
   1 O :   -0.257821
   2 C :   -0.124142
   3 C :   -0.132372
   4 H :    0.077547
   5 H :    0.096625
   6 H :    0.101274
   7 H :    0.090728

  Mayer bond orders larger than 0.100000
B(  0-C ,  1-O ) :   1.9198 B(  0-C ,  2-C ) :   1.0099 B(  0-C ,  4-H ) :   0.9084
B(  2-C ,  3-C ) :   1.9646 B(  2-C ,  5-H ) :   0.9545 B(  3-C ,  6-H ) :   0.9598
B(  3-C ,  7-H ) :   0.9628

-----------------------------------------------------------------------------
         ABSORPTION SPECTRUM VIA TRANSITION ELECTRIC DIPOLE MOMENTS
-----------------------------------------------------------------------------
State   Energy    Wavelength  fosc         T2        TX        TY        TZ
        (cm-1)      (nm)                 (au**2)    (au)      (au)      (au)
-----------------------------------------------------------------------------
   1   33155.7    301.6   0.000013353   0.00013   0.00810  -0.00323   0.00751

Dispersion correction           -0.025231154
FINAL SINGLE POINT ENERGY      -189.327638768233

DIPOLE MOMENT
-------------
                                X             Y             Z
Electronic contribution:     -2.02411      -1.84181       0.13637
Nuclear contribution   :      2.27672       2.82022      -0.21126
                        -----------------------------------------
Total Dipole Moment    :      0.25261       0.97840      -0.07489
                        -----------------------------------------
Magnitude (a.u.)       :      1.01326
Magnitude (Debye)      :      2.57550

Rotational constants in cm-1:     0.776060     0.204980     0.162496
Rotational constants in MHz : 23265.681148  6145.134533  4871.514762

                             ****ORCA TERMINATED NORMALLY****
TOTAL RUN TIME: 0 days 0 hours 0 minutes 16 seconds 118 msec
