                         Program Version 5.0.3 -  RELEASE  -
|  1> ! HF-3c
|  2> !TightSCF
|  3> %scf
|  4>  ConvForced true
|  5>  convergence tight
|  6>  MaxIter 500
|  7> end
|  8>
|  9> %tddft
| 10>  nroots 1
| 11> end
| 12>
| 13> # 	10296
| 14> * xyz 0 1
| 15> 		C   -1.125895  -0.353401  -0.038156
| 16> 		O   -1.963039  -0.783577  -0.866070
| 17> 		C   -0.011750   0.451275  -0.313145
| 18> 		C    1.211835   0.145214   0.203837
| 19> 		H   -1.342382  -0.640815   1.024207
| 20> 		H   -0.082018   1.290694  -1.050930
| 21> 		H    1.300549  -0.833290   0.965546
| 22> 		H    2.056163   0.754430   0.105920
| 23> *
| 24>
| 25>                          ****END OF INPUT****

CARTESIAN COORDINATES (ANGSTROEM)
---------------------------------
  C     -1.125895   -0.353401   -0.038156
  O     -1.963039   -0.783577   -0.866070
  C     -0.011750    0.451275   -0.313145
  C      1.211835    0.145214    0.203837
  H     -1.342382   -0.640815    1.024207
  H     -0.082018    1.290694   -1.050930
  H      1.300549   -0.833290    0.965546
  H      2.056163    0.754430    0.105920

 Total Charge           Charge          ....    0
 Multiplicity           Mult            ....    1
 Number of Electrons    NEL             ....   30
 Basis Dimension        Dim             ....   24

ORBITAL ENERGIES
----------------

  NO   OCC          E(Eh)            E(eV)
   0   2.0000     -20.348877      -553.7211
   1   2.0000     -11.285091      -307.0829
   2   2.0000     -11.194020      -304.6048
   3   2.0000     -11.191929      -304.5479
   4   2.0000      -1.368069       -37.2271
   5   2.0000      -1.084243       -29.5038
   6   2.0000      -0.886337       -24.1184
   7   2.0000      -0.761010       -20.7081
   8   2.0000      -0.655869       -17.8471
   9   2.0000      -0.649121       -17.6635
  10   2.0000      -0.578617       -15.7450
  11   2.0000      -0.526959       -14.3393
  12   2.0000      -0.494123       -13.4458
  13   2.0000      -0.414294       -11.2735
  14   2.0000      -0.384558       -10.4644
  15   0.0000       0.129098         3.5129
  16   0.0000       0.267484         7.2786
  17   0.0000       0.490464        13.3462
  18   0.0000       0.595919        16.2158
  19   0.0000       0.642831        17.4923

MULLIKEN ATOMIC CHARGES
-----------------------
   0 C :    0.141822
   1 O :   -0.340234
   2 C :   -0.184828
   3 C :   -0.203051
   4 H :    0.139245
   5 H :    0.161579
   6 H :    0.143055
   7 H :    0.142411
Sum of atomic charges:   -0.0000000

LOEWDIN ATOMIC CHARGES
----------------------
   0 C :    0.135705
   1 O :   -0.260764
   2 C :   -0.139066
   3 C :   -0.115834
   4 H :    0.078065
   5 H :    0.109497
   6 H :    0.104065
   7 H :    0.088332

  Mayer bond orders larger than 0.100000
B(  0-C ,  1-O ) :   1.8935 B(  0-C ,  2-C ) :   1.0598 B(  0-C ,  4-H ) :   0.9261
B(  2-C ,  3-C ) :   1.9364 B(  2-C ,  5-H ) :   0.9444 B(  3-C ,  6-H ) :   0.9605
B(  3-C ,  7-H ) :   0.9670

-----------------------------------------------------------------------------
         ABSORPTION SPECTRUM VIA TRANSITION ELECTRIC DIPOLE MOMENTS
-----------------------------------------------------------------------------
State   Energy    Wavelength  fosc         T2        TX        TY        TZ
        (cm-1)      (nm)                 (au**2)    (au)      (au)      (au)
-----------------------------------------------------------------------------
   1   30197.7    331.2   0.000031466   0.00034  -0.01843   0.00158  -0.00092

Dispersion correction           -0.025266984
FINAL SINGLE POINT ENERGY      -189.319703160773

DIPOLE MOMENT
-------------
                                X             Y             Z
Electronic contribution:     -2.77682      -0.77149      -1.25934
Nuclear contribution   :      3.70357       1.13169       1.94674
                        -----------------------------------------
Total Dipole Moment    :      0.92675       0.36020       0.68740
                        -----------------------------------------
Magnitude (a.u.)       :      1.20877
Magnitude (Debye)      :      3.07246

Rotational constants in cm-1:     1.287905     0.157647     0.148657
Rotational constants in MHz : 38610.424217  4726.145799  4456.638204

                             ****ORCA TERMINATED NORMALLY****
TOTAL RUN TIME: 0 days 0 hours 0 minutes 13 seconds 490 msec
