                         Program Version 5.0.3 -  RELEASE  -
|  1> ! B3LYP cc-pVDZ
|  2> !TightSCF
|  3> %scf
|  4>  ConvForced true
|  5>  convergence tight
|  6>  MaxIter 500
|  7> end
|  8>
|  9> %tddft
| 10>  nroots 1
| 11> end
| 12>
| 13> # 	29222
| 14> * xyz 0 1
| 15> 		C   -0.628778  -0.440294  -0.032817
| 16> 		O   -0.541380  -1.559384   0.017752
| 17> 		C    0.587242   0.384860   0.010005
| 18> 		C    1.867372  -0.167561   0.007869
| 19> 		H   -1.584360   0.038146  -0.003260
| 20> 		H    0.514007   1.407095   0.068216
| 21> 		H    2.149303  -1.231987  -0.147294
| 22> 		H    2.681365   0.465270  -0.016769
| 23> *
| 24>
| 25>                          ****END OF INPUT****

CARTESIAN COORDINATES (ANGSTROEM)
---------------------------------
  C     -0.628778   -0.440294   -0.032817
  O     -0.541380   -1.559384    0.017752
  C      0.587242    0.384860    0.010005
  C      1.867372   -0.167561    0.007869
  H     -1.584360    0.038146   -0.003260
  H      0.514007    1.407095    0.068216
  H      2.149303   -1.231987   -0.147294
  H      2.681365    0.465270   -0.016769

 Total Charge           Charge          ....    0
 Multiplicity           Mult            ....    1
 Number of Electrons    NEL             ....   30
 Basis Dimension        Dim             ....   76

ORBITAL ENERGIES
----------------

  NO   OCC          E(Eh)            E(eV)
   0   2.0000     -19.129791      -520.5481
   1   2.0000     -10.259629      -279.1787
   2   2.0000     -10.210202      -277.8337
   3   2.0000     -10.195539      -277.4347
   4   2.0000      -1.095374       -29.8066
   5   2.0000      -0.779292       -21.2056
   6   2.0000      -0.655974       -17.8500
   7   2.0000      -0.555505       -15.1161
   8   2.0000      -0.515403       -14.0248
   9   2.0000      -0.451153       -12.2765
  10   2.0000      -0.427072       -11.6212
  11   2.0000      -0.424776       -11.5587
  12   2.0000      -0.387881       -10.5548
  13   2.0000      -0.276021        -7.5109
  14   2.0000      -0.250335        -6.8120
  15   0.0000      -0.062891        -1.7113
  16   0.0000       0.071829         1.9546
  17   0.0000       0.084317         2.2944
  18   0.0000       0.096208         2.6179
  19   0.0000       0.125976         3.4280

MULLIKEN ATOMIC CHARGES
-----------------------
   0 C :    0.193803
   1 O :   -0.115295
   2 C :   -0.097646
   3 C :    0.059794
   4 H :   -0.057560
   5 H :   -0.039312
   6 H :    0.042233
   7 H :    0.013983
Sum of atomic charges:   -0.0000000

LOEWDIN ATOMIC CHARGES
----------------------
   0 C :   -0.095124
   1 O :    0.084976
   2 C :   -0.062692
   3 C :    0.035935
   4 H :   -0.019229
   5 H :    0.006909
   6 H :    0.036011
   7 H :    0.013214

  Mayer bond orders larger than 0.100000
B(  0-C ,  1-O ) :   2.2980 B(  0-C ,  2-C ) :   1.0314 B(  0-C ,  4-H ) :   0.9189
B(  2-C ,  3-C ) :   1.9655 B(  2-C ,  5-H ) :   0.9434 B(  3-C ,  6-H ) :   0.9533
B(  3-C ,  7-H ) :   0.9465

-----------------------------------------------------------------------------
         ABSORPTION SPECTRUM VIA TRANSITION ELECTRIC DIPOLE MOMENTS
-----------------------------------------------------------------------------
State   Energy    Wavelength  fosc         T2        TX        TY        TZ
        (cm-1)      (nm)                 (au**2)    (au)      (au)      (au)
-----------------------------------------------------------------------------
   1   28983.6    345.0   0.000043913   0.00050  -0.02004  -0.00077  -0.00983

FINAL SINGLE POINT ENERGY      -191.646118433202

DIPOLE MOMENT
-------------
                                X             Y             Z
Electronic contribution:     -2.07781      -1.68653       0.04092
Nuclear contribution   :      2.37347       2.42408      -0.09303
                        -----------------------------------------
Total Dipole Moment    :      0.29566       0.73756      -0.05211
                        -----------------------------------------
Magnitude (a.u.)       :      0.79632
Magnitude (Debye)      :      2.02408

Rotational constants in cm-1:     0.776233     0.217531     0.170074
Rotational constants in MHz : 23270.879622  6521.410678  5098.704555

                             ****ORCA TERMINATED NORMALLY****
TOTAL RUN TIME: 0 days 0 hours 3 minutes 1 seconds 656 msec
