                         Program Version 5.0.3 -  RELEASE  -
|  1> ! B3LYP cc-pVDZ
|  2> !TightSCF
|  3> %scf
|  4>  ConvForced true
|  5>  convergence tight
|  6>  MaxIter 500
|  7> end
|  8>
|  9> %tddft
| 10>  nroots 1
| 11> end
| 12>
| 13> # 	15001
| 14> * xyz 0 1
| 15> 		C   -1.213721  -0.338438   0.021577
| 16> 		O   -1.277840  -1.515780   0.183755
| 17> 		C    0.032707   0.517314   0.097254
| 18> 		C    1.185178  -0.007211   0.014173
| 19> 		H   -2.114317   0.134162  -0.336352
| 20> 		H   -0.190598   1.559983   0.225300
| 21> 		H    1.449368  -1.018612  -0.206184
| 22> 		H    2.162967   0.648081  -0.040874
| 23> *
| 24>
| 25>                          ****END OF INPUT****

CARTESIAN COORDINATES (ANGSTROEM)
---------------------------------
  C     -1.213721   -0.338438    0.021577
  O     -1.277840   -1.515780    0.183755
  C      0.032707    0.517314    0.097254
  C      1.185178   -0.007211    0.014173
  H     -2.114317    0.134162   -0.336352
  H     -0.190598    1.559983    0.225300
  H      1.449368   -1.018612   -0.206184
  H      2.162967    0.648081   -0.040874

 Total Charge           Charge          ....    0
 Multiplicity           Mult            ....    1
 Number of Electrons    NEL             ....   30
 Basis Dimension        Dim             ....   76

ORBITAL ENERGIES
----------------

  NO   OCC          E(Eh)            E(eV)
   0   2.0000     -19.136742      -520.7372
   1   2.0000     -10.269711      -279.4530
   2   2.0000     -10.208366      -277.7838
   3   2.0000     -10.198731      -277.5216
   4   2.0000      -1.056652       -28.7530
   5   2.0000      -0.804722       -21.8976
   6   2.0000      -0.650907       -17.7121
   7   2.0000      -0.550526       -14.9806
   8   2.0000      -0.505139       -13.7455
   9   2.0000      -0.460981       -12.5439
  10   2.0000      -0.432654       -11.7731
  11   2.0000      -0.397703       -10.8221
  12   2.0000      -0.368837       -10.0366
  13   2.0000      -0.300413        -8.1747
  14   2.0000      -0.250835        -6.8256
  15   0.0000      -0.055274        -1.5041
  16   0.0000       0.052616         1.4318
  17   0.0000       0.069250         1.8844
  18   0.0000       0.093331         2.5397
  19   0.0000       0.124270         3.3816

MULLIKEN ATOMIC CHARGES
-----------------------
   0 C :    0.178911
   1 O :   -0.172126
   2 C :   -0.085182
   3 C :    0.060154
   4 H :   -0.033076
   5 H :   -0.011619
   6 H :    0.025660
   7 H :    0.037279
Sum of atomic charges:    0.0000000

LOEWDIN ATOMIC CHARGES
----------------------
   0 C :   -0.033726
   1 O :    0.016468
   2 C :   -0.081301
   3 C :    0.007917
   4 H :   -0.013577
   5 H :    0.028918
   6 H :    0.028749
   7 H :    0.046551

  Mayer bond orders larger than 0.100000
B(  0-C ,  1-O ) :   2.2378 B(  0-C ,  2-C ) :   1.0191 B(  0-C ,  4-H ) :   0.9206
B(  2-C ,  3-C ) :   2.0010 B(  2-C ,  5-H ) :   0.9396 B(  3-C ,  6-H ) :   0.9376
B(  3-C ,  7-H ) :   0.9388

-----------------------------------------------------------------------------
         ABSORPTION SPECTRUM VIA TRANSITION ELECTRIC DIPOLE MOMENTS
-----------------------------------------------------------------------------
State   Energy    Wavelength  fosc         T2        TX        TY        TZ
        (cm-1)      (nm)                 (au**2)    (au)      (au)      (au)
-----------------------------------------------------------------------------
   1   29600.4    337.8   0.000093221   0.00104   0.01195  -0.00573   0.02935

FINAL SINGLE POINT ENERGY      -191.656765284188

DIPOLE MOMENT
-------------
                                X             Y             Z
Electronic contribution:     -2.12016      -1.78323       0.45386
Nuclear contribution   :      2.48962       2.62081      -0.61391
                        -----------------------------------------
Total Dipole Moment    :      0.36945       0.83758      -0.16005
                        -----------------------------------------
Magnitude (a.u.)       :      0.92933
Magnitude (Debye)      :      2.36217

Rotational constants in cm-1:     0.823547     0.201493     0.163306
Rotational constants in MHz : 24689.316054  6040.607930  4895.798850

                             ****ORCA TERMINATED NORMALLY****
TOTAL RUN TIME: 0 days 0 hours 2 minutes 30 seconds 385 msec
