                         Program Version 5.0.3 -  RELEASE  -
|  1> ! HF-3c
|  2> !TightSCF
|  3> %scf
|  4>  ConvForced true
|  5>  convergence tight
|  6>  MaxIter 500
|  7> end
|  8>
|  9> %tddft
| 10>  nroots 1
| 11> end
| 12>
| 13> # 	4324
| 14> * xyz 0 1
| 15> 		C   -1.205137  -0.290417   0.030134
| 16> 		O   -1.338315  -1.299806   0.570306
| 17> 		C    0.012774   0.564013   0.121039
| 18> 		C    1.240143   0.011792  -0.095420
| 19> 		H   -2.055633  -0.024877  -0.724961
| 20> 		H   -0.157603   1.442619   0.695388
| 21> 		H    1.227508  -0.971594  -0.445922
| 22> 		H    2.225484   0.516977  -0.098723
| 23> *
| 24>
| 25>                          ****END OF INPUT****

CARTESIAN COORDINATES (ANGSTROEM)
---------------------------------
  C     -1.205137   -0.290417    0.030134
  O     -1.338315   -1.299806    0.570306
  C      0.012774    0.564013    0.121039
  C      1.240143    0.011792   -0.095420
  H     -2.055633   -0.024877   -0.724961
  H     -0.157603    1.442619    0.695388
  H      1.227508   -0.971594   -0.445922
  H      2.225484    0.516977   -0.098723

 Total Charge           Charge          ....    0
 Multiplicity           Mult            ....    1
 Number of Electrons    NEL             ....   30
 Basis Dimension        Dim             ....   24

ORBITAL ENERGIES
----------------

  NO   OCC          E(Eh)            E(eV)
   0   2.0000     -20.385016      -554.7045
   1   2.0000     -11.308494      -307.7198
   2   2.0000     -11.188513      -304.4549
   3   2.0000     -11.186800      -304.4083
   4   2.0000      -1.450441       -39.4685
   5   2.0000      -1.071435       -29.1552
   6   2.0000      -0.880197       -23.9514
   7   2.0000      -0.758289       -20.6341
   8   2.0000      -0.699769       -19.0417
   9   2.0000      -0.631865       -17.1939
  10   2.0000      -0.616064       -16.7640
  11   2.0000      -0.558486       -15.1972
  12   2.0000      -0.529029       -14.3956
  13   2.0000      -0.403667       -10.9844
  14   2.0000      -0.393292       -10.7020
  15   0.0000       0.171059         4.6547
  16   0.0000       0.239623         6.5205
  17   0.0000       0.527599        14.3567
  18   0.0000       0.642825        17.4922
  19   0.0000       0.678614        18.4660

MULLIKEN ATOMIC CHARGES
-----------------------
   0 C :    0.186947
   1 O :   -0.359056
   2 C :   -0.171699
   3 C :   -0.228581
   4 H :    0.131913
   5 H :    0.148222
   6 H :    0.142121
   7 H :    0.150132
Sum of atomic charges:    0.0000000

LOEWDIN ATOMIC CHARGES
----------------------
   0 C :    0.147144
   1 O :   -0.243659
   2 C :   -0.128197
   3 C :   -0.130822
   4 H :    0.071971
   5 H :    0.094788
   6 H :    0.088376
   7 H :    0.100399

  Mayer bond orders larger than 0.100000
B(  0-C ,  1-O ) :   1.9443 B(  0-C ,  2-C ) :   0.9854 B(  0-C ,  4-H ) :   0.9077
B(  2-C ,  3-C ) :   1.9789 B(  2-C ,  5-H ) :   0.9555 B(  3-C ,  6-H ) :   0.9664
B(  3-C ,  7-H ) :   0.9638

-----------------------------------------------------------------------------
         ABSORPTION SPECTRUM VIA TRANSITION ELECTRIC DIPOLE MOMENTS
-----------------------------------------------------------------------------
State   Energy    Wavelength  fosc         T2        TX        TY        TZ
        (cm-1)      (nm)                 (au**2)    (au)      (au)      (au)
-----------------------------------------------------------------------------
   1   37367.5    267.6   0.000197582   0.00174   0.03986   0.01002   0.00719

Dispersion correction           -0.025450487
FINAL SINGLE POINT ENERGY      -189.294962669392

DIPOLE MOMENT
-------------
                                X             Y             Z
Electronic contribution:     -2.13316      -1.26069       0.74677
Nuclear contribution   :      2.45964       1.98623      -1.14954
                        -----------------------------------------
Total Dipole Moment    :      0.32648       0.72554      -0.40277
                        -----------------------------------------
Magnitude (a.u.)       :      0.89175
Magnitude (Debye)      :      2.26666

Rotational constants in cm-1:     0.833599     0.193750     0.166864
Rotational constants in MHz : 24990.683481  5808.474344  5002.447975

                             ****ORCA TERMINATED NORMALLY****
TOTAL RUN TIME: 0 days 0 hours 0 minutes 16 seconds 117 msec
