                         Program Version 5.0.3 -  RELEASE  -
|  1> ! B3LYP cc-pVDZ
|  2> !TightSCF
|  3> %scf
|  4>  ConvForced true
|  5>  convergence tight
|  6>  MaxIter 500
|  7> end
|  8>
|  9> %tddft
| 10>  nroots 1
| 11> end
| 12>
| 13> # 	31419
| 14> * xyz 0 1
| 15> 		C   -0.581727  -0.401749   0.015173
| 16> 		O   -0.509809  -1.621617  -0.010918
| 17> 		C    0.580063   0.428758   0.011073
| 18> 		C    1.828618  -0.194224   0.005932
| 19> 		H   -1.562723   0.231980  -0.097726
| 20> 		H    0.522396   1.679193  -0.017123
| 21> 		H    1.627863  -1.360041   0.108279
| 22> 		H    2.700300   0.438377  -0.216250
| 23> *
| 24>
| 25>                          ****END OF INPUT****

CARTESIAN COORDINATES (ANGSTROEM)
---------------------------------
  C     -0.581727   -0.401749    0.015173
  O     -0.509809   -1.621617   -0.010918
  C      0.580063    0.428758    0.011073
  C      1.828618   -0.194224    0.005932
  H     -1.562723    0.231980   -0.097726
  H      0.522396    1.679193   -0.017123
  H      1.627863   -1.360041    0.108279
  H      2.700300    0.438377   -0.216250

 Total Charge           Charge          ....    0
 Multiplicity           Mult            ....    1
 Number of Electrons    NEL             ....   30
 Basis Dimension        Dim             ....   76

ORBITAL ENERGIES
----------------

  NO   OCC          E(Eh)            E(eV)
   0   2.0000     -19.141669      -520.8713
   1   2.0000     -10.279902      -279.7303
   2   2.0000     -10.227888      -278.3150
   3   2.0000     -10.217085      -278.0210
   4   2.0000      -1.045449       -28.4481
   5   2.0000      -0.786606       -21.4046
   6   2.0000      -0.656439       -17.8626
   7   2.0000      -0.518817       -14.1177
   8   2.0000      -0.499250       -13.5853
   9   2.0000      -0.443491       -12.0680
  10   2.0000      -0.414103       -11.2683
  11   2.0000      -0.401668       -10.9299
  12   2.0000      -0.363997        -9.9049
  13   2.0000      -0.278542        -7.5795
  14   2.0000      -0.261810        -7.1242
  15   0.0000      -0.081366        -2.2141
  16   0.0000       0.047649         1.2966
  17   0.0000       0.060577         1.6484
  18   0.0000       0.076018         2.0686
  19   0.0000       0.108332         2.9479

MULLIKEN ATOMIC CHARGES
-----------------------
   0 C :    0.194544
   1 O :   -0.209334
   2 C :   -0.178289
   3 C :    0.040393
   4 H :   -0.005087
   5 H :    0.029448
   6 H :    0.083114
   7 H :    0.045212
Sum of atomic charges:   -0.0000000

LOEWDIN ATOMIC CHARGES
----------------------
   0 C :   -0.049623
   1 O :   -0.016439
   2 C :   -0.103921
   3 C :    0.022076
   4 H :    0.005012
   5 H :    0.046772
   6 H :    0.061281
   7 H :    0.034841

  Mayer bond orders larger than 0.100000
B(  0-C ,  1-O ) :   2.1213 B(  0-C ,  2-C ) :   1.0897 B(  0-C ,  4-H ) :   0.9106
B(  1-O ,  3-C ) :   0.1066 B(  2-C ,  3-C ) :   1.9051 B(  2-C ,  5-H ) :   0.9348
B(  3-C ,  6-H ) :   0.9036 B(  3-C ,  7-H ) :   0.9399

-----------------------------------------------------------------------------
         ABSORPTION SPECTRUM VIA TRANSITION ELECTRIC DIPOLE MOMENTS
-----------------------------------------------------------------------------
State   Energy    Wavelength  fosc         T2        TX        TY        TZ
        (cm-1)      (nm)                 (au**2)    (au)      (au)      (au)
-----------------------------------------------------------------------------
   1   27038.8    369.8   0.000316701   0.00386  -0.01722  -0.00010   0.05966

FINAL SINGLE POINT ENERGY      -191.653764383033

DIPOLE MOMENT
-------------
                                X             Y             Z
Electronic contribution:     -1.53146      -1.84386       0.18244
Nuclear contribution   :      1.92783       2.71574      -0.20835
                        -----------------------------------------
Total Dipole Moment    :      0.39637       0.87188      -0.02591
                        -----------------------------------------
Magnitude (a.u.)       :      0.95810
Magnitude (Debye)      :      2.43530

Rotational constants in cm-1:     0.687022     0.227045     0.170910
Rotational constants in MHz : 20596.400000  6806.625845  5123.746536

                             ****ORCA TERMINATED NORMALLY****
TOTAL RUN TIME: 0 days 0 hours 3 minutes 22 seconds 226 msec
