                         Program Version 5.0.3 -  RELEASE  -
|  1> ! B3LYP cc-pVDZ
|  2> !TightSCF
|  3> %scf
|  4>  ConvForced true
|  5>  convergence tight
|  6>  MaxIter 500
|  7> end
|  8>
|  9> %tddft
| 10>  nroots 1
| 11> end
| 12>
| 13> # 	4747
| 14> * xyz 0 1
| 15> 		C   -1.238957  -0.327880  -0.025886
| 16> 		O   -1.544964  -1.179459  -0.834492
| 17> 		C    0.043144   0.473374  -0.161391
| 18> 		C    1.206903   0.021133   0.226347
| 19> 		H   -1.827681  -0.181918   0.913013
| 20> 		H   -0.075824   1.513448  -0.713923
| 21> 		H    1.206515  -0.973209   0.621128
| 22> 		H    2.195484   0.571078  -0.041777
| 23> *
| 24>
| 25>                          ****END OF INPUT****

CARTESIAN COORDINATES (ANGSTROEM)
---------------------------------
  C     -1.238957   -0.327880   -0.025886
  O     -1.544964   -1.179459   -0.834492
  C      0.043144    0.473374   -0.161391
  C      1.206903    0.021133    0.226347
  H     -1.827681   -0.181918    0.913013
  H     -0.075824    1.513448   -0.713923
  H      1.206515   -0.973209    0.621128
  H      2.195484    0.571078   -0.041777

 Total Charge           Charge          ....    0
 Multiplicity           Mult            ....    1
 Number of Electrons    NEL             ....   30
 Basis Dimension        Dim             ....   76

ORBITAL ENERGIES
----------------

  NO   OCC          E(Eh)            E(eV)
   0   2.0000     -19.149387      -521.0813
   1   2.0000     -10.286508      -279.9101
   2   2.0000     -10.210821      -277.8506
   3   2.0000     -10.203796      -277.6594
   4   2.0000      -1.053124       -28.6570
   5   2.0000      -0.794390       -21.6165
   6   2.0000      -0.643716       -17.5164
   7   2.0000      -0.549163       -14.9435
   8   2.0000      -0.490724       -13.3533
   9   2.0000      -0.455151       -12.3853
  10   2.0000      -0.440684       -11.9916
  11   2.0000      -0.388128       -10.5615
  12   2.0000      -0.369662       -10.0590
  13   2.0000      -0.290331        -7.9003
  14   2.0000      -0.257721        -7.0129
  15   0.0000      -0.038791        -1.0556
  16   0.0000      -0.003033        -0.0825
  17   0.0000       0.069211         1.8833
  18   0.0000       0.091082         2.4785
  19   0.0000       0.097859         2.6629

MULLIKEN ATOMIC CHARGES
-----------------------
   0 C :    0.165912
   1 O :   -0.178290
   2 C :   -0.123471
   3 C :    0.033475
   4 H :    0.001748
   5 H :    0.037536
   6 H :    0.014534
   7 H :    0.048556
Sum of atomic charges:   -0.0000000

LOEWDIN ATOMIC CHARGES
----------------------
   0 C :   -0.013239
   1 O :    0.010189
   2 C :   -0.072031
   3 C :   -0.043833
   4 H :   -0.002736
   5 H :    0.049191
   6 H :    0.023543
   7 H :    0.048916

  Mayer bond orders larger than 0.100000
B(  0-C ,  1-O ) :   2.2257 B(  0-C ,  2-C ) :   0.9613 B(  0-C ,  4-H ) :   0.9146
B(  2-C ,  3-C ) :   2.0553 B(  2-C ,  5-H ) :   0.9242 B(  3-C ,  6-H ) :   0.9333
B(  3-C ,  7-H ) :   0.9396

-----------------------------------------------------------------------------
         ABSORPTION SPECTRUM VIA TRANSITION ELECTRIC DIPOLE MOMENTS
-----------------------------------------------------------------------------
State   Energy    Wavelength  fosc         T2        TX        TY        TZ
        (cm-1)      (nm)                 (au**2)    (au)      (au)      (au)
-----------------------------------------------------------------------------
   1   32571.2    307.0   0.000089854   0.00091  -0.01545   0.01237   0.02273

FINAL SINGLE POINT ENERGY      -191.639412128876

DIPOLE MOMENT
-------------
                                X             Y             Z
Electronic contribution:     -2.56283      -1.32324      -1.05566
Nuclear contribution   :      2.93359       1.92512       1.53090
                        -----------------------------------------
Total Dipole Moment    :      0.37075       0.60188       0.47523
                        -----------------------------------------
Magnitude (a.u.)       :      0.85180
Magnitude (Debye)      :      2.16512

Rotational constants in cm-1:     0.917750     0.171476     0.160361
Rotational constants in MHz : 27513.466703  5140.725459  4807.499097

                             ****ORCA TERMINATED NORMALLY****
TOTAL RUN TIME: 0 days 0 hours 3 minutes 15 seconds 673 msec
