                         Program Version 5.0.3 -  RELEASE  -
|  1> ! B3LYP cc-pVDZ
|  2> !TightSCF
|  3> %scf
|  4>  ConvForced true
|  5>  convergence tight
|  6>  MaxIter 500
|  7> end
|  8>
|  9> %tddft
| 10>  nroots 1
| 11> end
| 12>
| 13> # 	27769
| 14> * xyz 0 1
| 15> 		C   -0.559110  -0.453334  -0.055880
| 16> 		O   -0.609748  -1.675814   0.017681
| 17> 		C    0.641018   0.474548   0.024983
| 18> 		C    1.833764  -0.112785  -0.030272
| 19> 		H   -1.418990   0.168590   0.162218
| 20> 		H    0.503842   1.515501   0.076506
| 21> 		H    2.060133  -1.231788   0.150003
| 22> 		H    2.705216   0.499239   0.062125
| 23> *
| 24>
| 25>                          ****END OF INPUT****

CARTESIAN COORDINATES (ANGSTROEM)
---------------------------------
  C     -0.559110   -0.453334   -0.055880
  O     -0.609748   -1.675814    0.017681
  C      0.641018    0.474548    0.024983
  C      1.833764   -0.112785   -0.030272
  H     -1.418990    0.168590    0.162218
  H      0.503842    1.515501    0.076506
  H      2.060133   -1.231788    0.150003
  H      2.705216    0.499239    0.062125

 Total Charge           Charge          ....    0
 Multiplicity           Mult            ....    1
 Number of Electrons    NEL             ....   30
 Basis Dimension        Dim             ....   76

ORBITAL ENERGIES
----------------

  NO   OCC          E(Eh)            E(eV)
   0   2.0000     -19.142368      -520.8903
   1   2.0000     -10.274707      -279.5890
   2   2.0000     -10.214634      -277.9543
   3   2.0000     -10.204639      -277.6824
   4   2.0000      -1.037243       -28.2248
   5   2.0000      -0.796967       -21.6866
   6   2.0000      -0.656598       -17.8669
   7   2.0000      -0.547265       -14.8918
   8   2.0000      -0.506085       -13.7713
   9   2.0000      -0.445767       -12.1299
  10   2.0000      -0.420621       -11.4457
  11   2.0000      -0.392768       -10.6877
  12   2.0000      -0.379994       -10.3402
  13   2.0000      -0.290375        -7.9015
  14   2.0000      -0.252913        -6.8821
  15   0.0000      -0.072765        -1.9800
  16   0.0000       0.047276         1.2864
  17   0.0000       0.071322         1.9408
  18   0.0000       0.085274         2.3204
  19   0.0000       0.127614         3.4726

MULLIKEN ATOMIC CHARGES
-----------------------
   0 C :    0.208595
   1 O :   -0.200670
   2 C :   -0.107468
   3 C :    0.055965
   4 H :   -0.026551
   5 H :   -0.012108
   6 H :    0.062362
   7 H :    0.019875
Sum of atomic charges:    0.0000000

LOEWDIN ATOMIC CHARGES
----------------------
   0 C :   -0.017149
   1 O :   -0.014298
   2 C :   -0.073894
   3 C :    0.023223
   4 H :   -0.013783
   5 H :    0.022566
   6 H :    0.051409
   7 H :    0.021926

  Mayer bond orders larger than 0.100000
B(  0-C ,  1-O ) :   2.1815 B(  0-C ,  2-C ) :   1.0463 B(  0-C ,  4-H ) :   0.9201
B(  2-C ,  3-C ) :   1.9552 B(  2-C ,  5-H ) :   0.9491 B(  3-C ,  6-H ) :   0.9415
B(  3-C ,  7-H ) :   0.9433

-----------------------------------------------------------------------------
         ABSORPTION SPECTRUM VIA TRANSITION ELECTRIC DIPOLE MOMENTS
-----------------------------------------------------------------------------
State   Energy    Wavelength  fosc         T2        TX        TY        TZ
        (cm-1)      (nm)                 (au**2)    (au)      (au)      (au)
-----------------------------------------------------------------------------
   1   26683.2    374.8   0.000167604   0.00207   0.03687  -0.00993  -0.02470

FINAL SINGLE POINT ENERGY      -191.668869852383

DIPOLE MOMENT
-------------
                                X             Y             Z
Electronic contribution:     -1.99482      -1.74230      -0.37565
Nuclear contribution   :      2.45169       2.67911       0.42306
                        -----------------------------------------
Total Dipole Moment    :      0.45688       0.93680       0.04741
                        -----------------------------------------
Magnitude (a.u.)       :      1.04336
Magnitude (Debye)      :      2.65200

Rotational constants in cm-1:     0.751362     0.203203     0.160311
Rotational constants in MHz : 22525.277474  6091.884880  4806.017722

                             ****ORCA TERMINATED NORMALLY****
TOTAL RUN TIME: 0 days 0 hours 3 minutes 26 seconds 856 msec
