                         Program Version 5.0.3 -  RELEASE  -
|  1> ! HF-3c
|  2> !TightSCF
|  3> %scf
|  4>  ConvForced true
|  5>  convergence tight
|  6>  MaxIter 500
|  7> end
|  8>
|  9> %tddft
| 10>  nroots 1
| 11> end
| 12>
| 13> # 	27851
| 14> * xyz 0 1
| 15> 		C   -0.611760  -0.454192  -0.037937
| 16> 		O   -0.584858  -1.645326   0.023360
| 17> 		C    0.691711   0.428151   0.010974
| 18> 		C    1.799198  -0.101165  -0.015548
| 19> 		H   -1.474788   0.049074   0.007559
| 20> 		H    0.634488   1.554376   0.099478
| 21> 		H    1.971570  -1.207414  -0.104859
| 22> 		H    2.765192   0.478001   0.147714
| 23> *
| 24>
| 25>                          ****END OF INPUT****

CARTESIAN COORDINATES (ANGSTROEM)
---------------------------------
  C     -0.611760   -0.454192   -0.037937
  O     -0.584858   -1.645326    0.023360
  C      0.691711    0.428151    0.010974
  C      1.799198   -0.101165   -0.015548
  H     -1.474788    0.049074    0.007559
  H      0.634488    1.554376    0.099478
  H      1.971570   -1.207414   -0.104859
  H      2.765192    0.478001    0.147714

 Total Charge           Charge          ....    0
 Multiplicity           Mult            ....    1
 Number of Electrons    NEL             ....   30
 Basis Dimension        Dim             ....   24

ORBITAL ENERGIES
----------------

  NO   OCC          E(Eh)            E(eV)
   0   2.0000     -20.386131      -554.7348
   1   2.0000     -11.309342      -307.7428
   2   2.0000     -11.188359      -304.4507
   3   2.0000     -11.183855      -304.3282
   4   2.0000      -1.424286       -38.7568
   5   2.0000      -1.096806       -29.8456
   6   2.0000      -0.887322       -24.1453
   7   2.0000      -0.752272       -20.4704
   8   2.0000      -0.708146       -19.2696
   9   2.0000      -0.620508       -16.8849
  10   2.0000      -0.605680       -16.4814
  11   2.0000      -0.552224       -15.0268
  12   2.0000      -0.513869       -13.9831
  13   2.0000      -0.425093       -11.5674
  14   2.0000      -0.414514       -11.2795
  15   0.0000       0.157151         4.2763
  16   0.0000       0.321003         8.7349
  17   0.0000       0.487188        13.2571
  18   0.0000       0.557588        15.1727
  19   0.0000       0.642507        17.4835

MULLIKEN ATOMIC CHARGES
-----------------------
   0 C :    0.172136
   1 O :   -0.345337
   2 C :   -0.181747
   3 C :   -0.231766
   4 H :    0.139725
   5 H :    0.147384
   6 H :    0.155725
   7 H :    0.143880
Sum of atomic charges:   -0.0000000

LOEWDIN ATOMIC CHARGES
----------------------
   0 C :    0.156192
   1 O :   -0.242466
   2 C :   -0.138998
   3 C :   -0.140516
   4 H :    0.065953
   5 H :    0.098418
   6 H :    0.104271
   7 H :    0.097147

  Mayer bond orders larger than 0.100000
B(  0-C ,  1-O ) :   1.9432 B(  0-C ,  2-C ) :   0.9635 B(  0-C ,  4-H ) :   0.9345
B(  2-C ,  3-C ) :   2.0048 B(  2-C ,  5-H ) :   0.9504 B(  3-C ,  6-H ) :   0.9504
B(  3-C ,  7-H ) :   0.9552

-----------------------------------------------------------------------------
         ABSORPTION SPECTRUM VIA TRANSITION ELECTRIC DIPOLE MOMENTS
-----------------------------------------------------------------------------
State   Energy    Wavelength  fosc         T2        TX        TY        TZ
        (cm-1)      (nm)                 (au**2)    (au)      (au)      (au)
-----------------------------------------------------------------------------
   1   34595.6    289.1   0.000060828   0.00058  -0.02251  -0.00848  -0.00029

Dispersion correction           -0.025678900
FINAL SINGLE POINT ENERGY      -189.309306260839

DIPOLE MOMENT
-------------
                                X             Y             Z
Electronic contribution:     -2.23797      -1.72810      -0.13340
Nuclear contribution   :      2.49505       2.60808       0.14001
                        -----------------------------------------
Total Dipole Moment    :      0.25708       0.87998       0.00661
                        -----------------------------------------
Magnitude (a.u.)       :      0.91678
Magnitude (Debye)      :      2.33028

Rotational constants in cm-1:     0.810811     0.205054     0.163897
Rotational constants in MHz : 24307.510221  6147.349429  4913.502778

                             ****ORCA TERMINATED NORMALLY****
TOTAL RUN TIME: 0 days 0 hours 0 minutes 15 seconds 906 msec
