                         Program Version 5.0.3 -  RELEASE  -
|  1> ! HF-3c
|  2> !TightSCF
|  3> %scf
|  4>  ConvForced true
|  5>  convergence tight
|  6>  MaxIter 500
|  7> end
|  8>
|  9> %tddft
| 10>  nroots 1
| 11> end
| 12>
| 13> # 	1493
| 14> * xyz 0 1
| 15> 		C   -1.194346  -0.363195   0.003180
| 16> 		O   -1.902831  -0.800737   0.841306
| 17> 		C   -0.042444   0.325332   0.317719
| 18> 		C    1.163251   0.035141  -0.160099
| 19> 		H   -1.380262  -0.521244  -1.113466
| 20> 		H   -0.079230   1.292657   1.016729
| 21> 		H    1.325931  -0.747798  -0.820803
| 22> 		H    2.134995   0.729779  -0.038315
| 23> *
| 24>
| 25>                          ****END OF INPUT****

CARTESIAN COORDINATES (ANGSTROEM)
---------------------------------
  C     -1.194346   -0.363195    0.003180
  O     -1.902831   -0.800737    0.841306
  C     -0.042444    0.325332    0.317719
  C      1.163251    0.035141   -0.160099
  H     -1.380262   -0.521244   -1.113466
  H     -0.079230    1.292657    1.016729
  H      1.325931   -0.747798   -0.820803
  H      2.134995    0.729779   -0.038315

 Total Charge           Charge          ....    0
 Multiplicity           Mult            ....    1
 Number of Electrons    NEL             ....   30
 Basis Dimension        Dim             ....   24

ORBITAL ENERGIES
----------------

  NO   OCC          E(Eh)            E(eV)
   0   2.0000     -20.376906      -554.4838
   1   2.0000     -11.308353      -307.7159
   2   2.0000     -11.188746      -304.4613
   3   2.0000     -11.181199      -304.2559
   4   2.0000      -1.429593       -38.9012
   5   2.0000      -1.090067       -29.6622
   6   2.0000      -0.889797       -24.2126
   7   2.0000      -0.763254       -20.7692
   8   2.0000      -0.683602       -18.6018
   9   2.0000      -0.637543       -17.3484
  10   2.0000      -0.604390       -16.4463
  11   2.0000      -0.537546       -14.6274
  12   2.0000      -0.503310       -13.6958
  13   2.0000      -0.413754       -11.2588
  14   2.0000      -0.395187       -10.7536
  15   0.0000       0.151088         4.1113
  16   0.0000       0.272764         7.4223
  17   0.0000       0.514924        14.0118
  18   0.0000       0.585237        15.9251
  19   0.0000       0.643070        17.4988

MULLIKEN ATOMIC CHARGES
-----------------------
   0 C :    0.164130
   1 O :   -0.345231
   2 C :   -0.170678
   3 C :   -0.224539
   4 H :    0.139361
   5 H :    0.162240
   6 H :    0.129694
   7 H :    0.145023
Sum of atomic charges:    0.0000000

LOEWDIN ATOMIC CHARGES
----------------------
   0 C :    0.140715
   1 O :   -0.242698
   2 C :   -0.133647
   3 C :   -0.138297
   4 H :    0.077131
   5 H :    0.116511
   6 H :    0.077483
   7 H :    0.102801

  Mayer bond orders larger than 0.100000
B(  0-C ,  1-O ) :   1.9118 B(  0-C ,  2-C ) :   1.0422 B(  0-C ,  4-H ) :   0.9089
B(  2-C ,  3-C ) :   1.9641 B(  2-C ,  5-H ) :   0.9360 B(  3-C ,  6-H ) :   0.9682
B(  3-C ,  7-H ) :   0.9614

-----------------------------------------------------------------------------
         ABSORPTION SPECTRUM VIA TRANSITION ELECTRIC DIPOLE MOMENTS
-----------------------------------------------------------------------------
State   Energy    Wavelength  fosc         T2        TX        TY        TZ
        (cm-1)      (nm)                 (au**2)    (au)      (au)      (au)
-----------------------------------------------------------------------------
   1   34408.0    290.6   0.000106587   0.00102   0.02588  -0.00054  -0.01870

Dispersion correction           -0.025563269
FINAL SINGLE POINT ENERGY      -189.292537367339

DIPOLE MOMENT
-------------
                                X             Y             Z
Electronic contribution:     -3.04231      -1.02144       1.20992
Nuclear contribution   :      3.81913       1.50704      -1.85387
                        -----------------------------------------
Total Dipole Moment    :      0.77683       0.48560      -0.64395
                        -----------------------------------------
Magnitude (a.u.)       :      1.11979
Magnitude (Debye)      :      2.84629

Rotational constants in cm-1:     1.304995     0.166538     0.159266
Rotational constants in MHz : 39122.773025  4992.680466  4774.666653

                             ****ORCA TERMINATED NORMALLY****
TOTAL RUN TIME: 0 days 0 hours 0 minutes 10 seconds 281 msec
