                         Program Version 5.0.3 -  RELEASE  -
|  1> ! B3LYP cc-pVDZ
|  2> !TightSCF
|  3> %scf
|  4>  ConvForced true
|  5>  convergence tight
|  6>  MaxIter 500
|  7> end
|  8>
|  9> %tddft
| 10>  nroots 1
| 11> end
| 12>
| 13> # 	8123
| 14> * xyz 0 1
| 15> 		C   -1.237079  -0.349041   0.037534
| 16> 		O   -1.304367  -1.412629   0.488070
| 17> 		C    0.027198   0.534000   0.122485
| 18> 		C    1.221636   0.059810  -0.069557
| 19> 		H   -2.039493   0.127923  -0.581756
| 20> 		H   -0.125127   1.617702   0.292226
| 21> 		H    1.270936  -1.113079  -0.218564
| 22> 		H    2.145666   0.520076  -0.104813
| 23> *
| 24>
| 25>                          ****END OF INPUT****

CARTESIAN COORDINATES (ANGSTROEM)
---------------------------------
  C     -1.237079   -0.349041    0.037534
  O     -1.304367   -1.412629    0.488070
  C      0.027198    0.534000    0.122485
  C      1.221636    0.059810   -0.069557
  H     -2.039493    0.127923   -0.581756
  H     -0.125127    1.617702    0.292226
  H      1.270936   -1.113079   -0.218564
  H      2.145666    0.520076   -0.104813

 Total Charge           Charge          ....    0
 Multiplicity           Mult            ....    1
 Number of Electrons    NEL             ....   30
 Basis Dimension        Dim             ....   76

ORBITAL ENERGIES
----------------

  NO   OCC          E(Eh)            E(eV)
   0   2.0000     -19.147539      -521.0310
   1   2.0000     -10.280853      -279.7562
   2   2.0000     -10.202197      -277.6159
   3   2.0000     -10.199551      -277.5439
   4   2.0000      -1.083946       -29.4957
   5   2.0000      -0.791173       -21.5289
   6   2.0000      -0.644367       -17.5341
   7   2.0000      -0.546666       -14.8755
   8   2.0000      -0.502270       -13.6675
   9   2.0000      -0.456773       -12.4294
  10   2.0000      -0.452508       -12.3134
  11   2.0000      -0.406657       -11.0657
  12   2.0000      -0.364270        -9.9123
  13   2.0000      -0.291993        -7.9455
  14   2.0000      -0.257261        -7.0004
  15   0.0000      -0.042258        -1.1499
  16   0.0000       0.036449         0.9918
  17   0.0000       0.078132         2.1261
  18   0.0000       0.089045         2.4230
  19   0.0000       0.111009         3.0207

MULLIKEN ATOMIC CHARGES
-----------------------
   0 C :    0.169384
   1 O :   -0.132946
   2 C :   -0.125838
   3 C :    0.063368
   4 H :   -0.017387
   5 H :   -0.002159
   6 H :    0.035714
   7 H :    0.009864
Sum of atomic charges:   -0.0000000

LOEWDIN ATOMIC CHARGES
----------------------
   0 C :   -0.049568
   1 O :    0.060809
   2 C :   -0.078922
   3 C :   -0.009113
   4 H :   -0.009264
   5 H :    0.028407
   6 H :    0.044658
   7 H :    0.012992

  Mayer bond orders larger than 0.100000
B(  0-C ,  1-O ) :   2.2771 B(  0-C ,  2-C ) :   0.9696 B(  0-C ,  4-H ) :   0.9010
B(  2-C ,  3-C ) :   2.0219 B(  2-C ,  5-H ) :   0.9382 B(  3-C ,  6-H ) :   0.9285
B(  3-C ,  7-H ) :   0.9504

-----------------------------------------------------------------------------
         ABSORPTION SPECTRUM VIA TRANSITION ELECTRIC DIPOLE MOMENTS
-----------------------------------------------------------------------------
State   Energy    Wavelength  fosc         T2        TX        TY        TZ
        (cm-1)      (nm)                 (au**2)    (au)      (au)      (au)
-----------------------------------------------------------------------------
   1   33737.8    296.4   0.000037993   0.00037   0.00780  -0.01359   0.01119

FINAL SINGLE POINT ENERGY      -191.636139792263

DIPOLE MOMENT
-------------
                                X             Y             Z
Electronic contribution:     -2.18117      -1.57428       0.82607
Nuclear contribution   :      2.46336       2.30359      -1.12403
                        -----------------------------------------
Total Dipole Moment    :      0.28219       0.72932      -0.29796
                        -----------------------------------------
Magnitude (a.u.)       :      0.83685
Magnitude (Debye)      :      2.12710

Rotational constants in cm-1:     0.832702     0.193840     0.162376
Rotational constants in MHz : 24963.769292  5811.183104  4867.899739

                             ****ORCA TERMINATED NORMALLY****
TOTAL RUN TIME: 0 days 0 hours 3 minutes 23 seconds 493 msec
