                         Program Version 5.0.3 -  RELEASE  -
|  1> ! HF-3c
|  2> !TightSCF
|  3> %scf
|  4>  ConvForced true
|  5>  convergence tight
|  6>  MaxIter 500
|  7> end
|  8>
|  9> %tddft
| 10>  nroots 1
| 11> end
| 12>
| 13> # 	30081
| 14> * xyz 0 1
| 15> 		C   -0.587535  -0.468472  -0.002088
| 16> 		O   -0.539736  -1.627392  -0.013723
| 17> 		C    0.616892   0.522927  -0.015424
| 18> 		C    1.799698  -0.174830   0.001048
| 19> 		H   -1.673752  -0.135333   0.196400
| 20> 		H    0.726170   1.729906   0.050276
| 21> 		H    1.899332  -1.284567   0.301413
| 22> 		H    2.825908   0.177613  -0.147283
| 23> *
| 24>
| 25>                          ****END OF INPUT****

CARTESIAN COORDINATES (ANGSTROEM)
---------------------------------
  C     -0.587535   -0.468472   -0.002088
  O     -0.539736   -1.627392   -0.013723
  C      0.616892    0.522927   -0.015424
  C      1.799698   -0.174830    0.001048
  H     -1.673752   -0.135333    0.196400
  H      0.726170    1.729906    0.050276
  H      1.899332   -1.284567    0.301413
  H      2.825908    0.177613   -0.147283

 Total Charge           Charge          ....    0
 Multiplicity           Mult            ....    1
 Number of Electrons    NEL             ....   30
 Basis Dimension        Dim             ....   24

ORBITAL ENERGIES
----------------

  NO   OCC          E(Eh)            E(eV)
   0   2.0000     -20.370943      -554.3215
   1   2.0000     -11.303285      -307.5780
   2   2.0000     -11.177336      -304.1508
   3   2.0000     -11.173594      -304.0490
   4   2.0000      -1.438240       -39.1365
   5   2.0000      -1.044319       -28.4174
   6   2.0000      -0.846549       -23.0358
   7   2.0000      -0.739640       -20.1266
   8   2.0000      -0.687112       -18.6973
   9   2.0000      -0.602316       -16.3898
  10   2.0000      -0.577521       -15.7151
  11   2.0000      -0.553322       -15.0567
  12   2.0000      -0.505713       -13.7611
  13   2.0000      -0.397158       -10.8072
  14   2.0000      -0.372824       -10.1451
  15   0.0000       0.148374         4.0375
  16   0.0000       0.299411         8.1474
  17   0.0000       0.455068        12.3830
  18   0.0000       0.505288        13.7496
  19   0.0000       0.616075        16.7642

MULLIKEN ATOMIC CHARGES
-----------------------
   0 C :    0.187712
   1 O :   -0.372548
   2 C :   -0.176362
   3 C :   -0.210387
   4 H :    0.129461
   5 H :    0.160060
   6 H :    0.149311
   7 H :    0.132754
Sum of atomic charges:    0.0000000

LOEWDIN ATOMIC CHARGES
----------------------
   0 C :    0.151099
   1 O :   -0.261112
   2 C :   -0.146357
   3 C :   -0.115042
   4 H :    0.068498
   5 H :    0.117474
   6 H :    0.101318
   7 H :    0.084122

  Mayer bond orders larger than 0.100000
B(  0-C ,  1-O ) :   1.9256 B(  0-C ,  2-C ) :   0.9814 B(  0-C ,  4-H ) :   0.9181
B(  2-C ,  3-C ) :   1.9533 B(  2-C ,  5-H ) :   0.9514 B(  3-C ,  6-H ) :   0.9599
B(  3-C ,  7-H ) :   0.9681

-----------------------------------------------------------------------------
         ABSORPTION SPECTRUM VIA TRANSITION ELECTRIC DIPOLE MOMENTS
-----------------------------------------------------------------------------
State   Energy    Wavelength  fosc         T2        TX        TY        TZ
        (cm-1)      (nm)                 (au**2)    (au)      (au)      (au)
-----------------------------------------------------------------------------
   1   35825.4    279.1   0.000181354   0.00167  -0.03070  -0.01440   0.02274

Dispersion correction           -0.024943346
FINAL SINGLE POINT ENERGY      -189.280031350972

DIPOLE MOMENT
-------------
                                X             Y             Z
Electronic contribution:     -2.03053      -1.36797      -0.27926
Nuclear contribution   :      2.38423       2.24719       0.37672
                        -----------------------------------------
Total Dipole Moment    :      0.35370       0.87922       0.09745
                        -----------------------------------------
Magnitude (a.u.)       :      0.95270
Magnitude (Debye)      :      2.42156

Rotational constants in cm-1:     0.704725     0.213722     0.164503
Rotational constants in MHz : 21127.114814  6407.228832  4931.676203

                             ****ORCA TERMINATED NORMALLY****
TOTAL RUN TIME: 0 days 0 hours 0 minutes 11 seconds 724 msec
