                         Program Version 5.0.3 -  RELEASE  -
|  1> ! HF-3c
|  2> !TightSCF
|  3> %scf
|  4>  ConvForced true
|  5>  convergence tight
|  6>  MaxIter 500
|  7> end
|  8>
|  9> %tddft
| 10>  nroots 1
| 11> end
| 12>
| 13> # 	12041
| 14> * xyz 0 1
| 15> 		C   -1.234500  -0.412338   0.039152
| 16> 		O   -1.243884  -1.562258  -0.168954
| 17> 		C    0.057242   0.483941  -0.074622
| 18> 		C    1.304744   0.041353   0.035441
| 19> 		H   -2.224075   0.318570   0.324881
| 20> 		H   -0.270187   1.466102  -0.188654
| 21> 		H    1.509998  -1.065894   0.204927
| 22> 		H    2.126321   0.734240  -0.227072
| 23> *
| 24>
| 25>                          ****END OF INPUT****

CARTESIAN COORDINATES (ANGSTROEM)
---------------------------------
  C     -1.234500   -0.412338    0.039152
  O     -1.243884   -1.562258   -0.168954
  C      0.057242    0.483941   -0.074622
  C      1.304744    0.041353    0.035441
  H     -2.224075    0.318570    0.324881
  H     -0.270187    1.466102   -0.188654
  H      1.509998   -1.065894    0.204927
  H      2.126321    0.734240   -0.227072

 Total Charge           Charge          ....    0
 Multiplicity           Mult            ....    1
 Number of Electrons    NEL             ....   30
 Basis Dimension        Dim             ....   24

ORBITAL ENERGIES
----------------

  NO   OCC          E(Eh)            E(eV)
   0   2.0000     -20.384390      -554.6874
   1   2.0000     -11.301575      -307.5315
   2   2.0000     -11.184340      -304.3414
   3   2.0000     -11.177286      -304.1494
   4   2.0000      -1.432763       -38.9875
   5   2.0000      -1.061480       -28.8843
   6   2.0000      -0.864703       -23.5298
   7   2.0000      -0.726948       -19.7813
   8   2.0000      -0.685506       -18.6536
   9   2.0000      -0.612635       -16.6706
  10   2.0000      -0.602410       -16.3924
  11   2.0000      -0.548404       -14.9228
  12   2.0000      -0.533250       -14.5105
  13   2.0000      -0.400021       -10.8851
  14   2.0000      -0.384137       -10.4529
  15   0.0000       0.154930         4.2159
  16   0.0000       0.301440         8.2026
  17   0.0000       0.449932        12.2433
  18   0.0000       0.559611        15.2278
  19   0.0000       0.611259        16.6332

MULLIKEN ATOMIC CHARGES
-----------------------
   0 C :    0.209426
   1 O :   -0.367495
   2 C :   -0.177270
   3 C :   -0.228017
   4 H :    0.126015
   5 H :    0.132911
   6 H :    0.158042
   7 H :    0.146387
Sum of atomic charges:    0.0000000

LOEWDIN ATOMIC CHARGES
----------------------
   0 C :    0.159335
   1 O :   -0.252164
   2 C :   -0.134329
   3 C :   -0.134560
   4 H :    0.074980
   5 H :    0.079979
   6 H :    0.109003
   7 H :    0.097754

  Mayer bond orders larger than 0.100000
B(  0-C ,  1-O ) :   1.9504 B(  0-C ,  2-C ) :   0.9637 B(  0-C ,  4-H ) :   0.8944
B(  2-C ,  3-C ) :   1.9814 B(  2-C ,  5-H ) :   0.9634 B(  3-C ,  6-H ) :   0.9564
B(  3-C ,  7-H ) :   0.9606

-----------------------------------------------------------------------------
         ABSORPTION SPECTRUM VIA TRANSITION ELECTRIC DIPOLE MOMENTS
-----------------------------------------------------------------------------
State   Energy    Wavelength  fosc         T2        TX        TY        TZ
        (cm-1)      (nm)                 (au**2)    (au)      (au)      (au)
-----------------------------------------------------------------------------
   1   35886.8    278.7   0.000131070   0.00120  -0.03460   0.00181   0.00145

Dispersion correction           -0.024852329
FINAL SINGLE POINT ENERGY      -189.305937070083

DIPOLE MOMENT
-------------
                                X             Y             Z
Electronic contribution:     -1.99302      -1.93421      -0.13009
Nuclear contribution   :      2.21013       2.83012       0.27847
                        -----------------------------------------
Total Dipole Moment    :      0.21712       0.89591       0.14839
                        -----------------------------------------
Magnitude (a.u.)       :      0.93371
Magnitude (Debye)      :      2.37331

Rotational constants in cm-1:     0.792298     0.188883     0.154105
Rotational constants in MHz : 23752.495911  5662.566463  4619.936779

                             ****ORCA TERMINATED NORMALLY****
TOTAL RUN TIME: 0 days 0 hours 0 minutes 12 seconds 618 msec
