                         Program Version 5.0.3 -  RELEASE  -
|  1> ! HF-3c
|  2> !TightSCF
|  3> %scf
|  4>  ConvForced true
|  5>  convergence tight
|  6>  MaxIter 500
|  7> end
|  8>
|  9> %tddft
| 10>  nroots 1
| 11> end
| 12>
| 13> # 	5397
| 14> * xyz 0 1
| 15> 		C   -1.170919  -0.377759   0.032073
| 16> 		O   -2.176879  -0.457089   0.640155
| 17> 		C   -0.099565   0.475672   0.389241
| 18> 		C    1.174793   0.060857  -0.272674
| 19> 		H   -1.013722  -0.965047  -0.907100
| 20> 		H   -0.082991   1.339074   1.102786
| 21> 		H    1.329691  -0.661659  -0.974380
| 22> 		H    2.027820   0.579871  -0.009270
| 23> *
| 24>
| 25>                          ****END OF INPUT****

CARTESIAN COORDINATES (ANGSTROEM)
---------------------------------
  C     -1.170919   -0.377759    0.032073
  O     -2.176879   -0.457089    0.640155
  C     -0.099565    0.475672    0.389241
  C      1.174793    0.060857   -0.272674
  H     -1.013722   -0.965047   -0.907100
  H     -0.082991    1.339074    1.102786
  H      1.329691   -0.661659   -0.974380
  H      2.027820    0.579871   -0.009270

 Total Charge           Charge          ....    0
 Multiplicity           Mult            ....    1
 Number of Electrons    NEL             ....   30
 Basis Dimension        Dim             ....   24

ORBITAL ENERGIES
----------------

  NO   OCC          E(Eh)            E(eV)
   0   2.0000     -20.359336      -554.0057
   1   2.0000     -11.301692      -307.5347
   2   2.0000     -11.193679      -304.5955
   3   2.0000     -11.191598      -304.5389
   4   2.0000      -1.420317       -38.6488
   5   2.0000      -1.063559       -28.9409
   6   2.0000      -0.895042       -24.3553
   7   2.0000      -0.780894       -21.2492
   8   2.0000      -0.675307       -18.3760
   9   2.0000      -0.640130       -17.4188
  10   2.0000      -0.582105       -15.8399
  11   2.0000      -0.566617       -15.4184
  12   2.0000      -0.536990       -14.6122
  13   2.0000      -0.409207       -11.1351
  14   2.0000      -0.359763        -9.7896
  15   0.0000       0.105940         2.8828
  16   0.0000       0.293327         7.9818
  17   0.0000       0.557547        15.1716
  18   0.0000       0.579471        15.7682
  19   0.0000       0.686340        18.6762

MULLIKEN ATOMIC CHARGES
-----------------------
   0 C :    0.160117
   1 O :   -0.364428
   2 C :   -0.147173
   3 C :   -0.224754
   4 H :    0.133940
   5 H :    0.164179
   6 H :    0.141089
   7 H :    0.137031
Sum of atomic charges:    0.0000000

LOEWDIN ATOMIC CHARGES
----------------------
   0 C :    0.134801
   1 O :   -0.262165
   2 C :   -0.109655
   3 C :   -0.114914
   4 H :    0.071098
   5 H :    0.111232
   6 H :    0.086022
   7 H :    0.083581

  Mayer bond orders larger than 0.100000
B(  0-C ,  1-O ) :   1.8704 B(  0-C ,  2-C ) :   1.0752 B(  0-C ,  4-H ) :   0.9157
B(  2-C ,  3-C ) :   1.8864 B(  2-C ,  5-H ) :   0.9565 B(  3-C ,  6-H ) :   0.9724
B(  3-C ,  7-H ) :   0.9744

-----------------------------------------------------------------------------
         ABSORPTION SPECTRUM VIA TRANSITION ELECTRIC DIPOLE MOMENTS
-----------------------------------------------------------------------------
State   Energy    Wavelength  fosc         T2        TX        TY        TZ
        (cm-1)      (nm)                 (au**2)    (au)      (au)      (au)
-----------------------------------------------------------------------------
   1   33557.9    298.0   0.000008896   0.00009   0.00367   0.00845  -0.00152

Dispersion correction           -0.025473997
FINAL SINGLE POINT ENERGY      -189.290409822563

DIPOLE MOMENT
-------------
                                X             Y             Z
Electronic contribution:     -3.22466      -0.44757       1.00068
Nuclear contribution   :      4.35336       0.61090      -1.48463
                        -----------------------------------------
Total Dipole Moment    :      1.12869       0.16333      -0.48396
                        -----------------------------------------
Magnitude (a.u.)       :      1.23889
Magnitude (Debye)      :      3.14900

Rotational constants in cm-1:     1.367820     0.160722     0.145296
Rotational constants in MHz : 41006.198851  4818.326881  4355.856156

                             ****ORCA TERMINATED NORMALLY****
TOTAL RUN TIME: 0 days 0 hours 0 minutes 16 seconds 37 msec
