                         Program Version 5.0.3 -  RELEASE  -
|  1> ! B3LYP cc-pVDZ
|  2> !TightSCF
|  3> %scf
|  4>  ConvForced true
|  5>  convergence tight
|  6>  MaxIter 500
|  7> end
|  8>
|  9> %tddft
| 10>  nroots 1
| 11> end
| 12>
| 13> # 	6365
| 14> * xyz 0 1
| 15> 		C   -1.158143  -0.266421   0.012031
| 16> 		O   -1.249337  -1.412114   0.496968
| 17> 		C    0.022189   0.543923   0.074580
| 18> 		C    1.147348  -0.021621  -0.169315
| 19> 		H   -2.139951   0.146146  -0.529440
| 20> 		H   -0.109569   1.619441   0.357267
| 21> 		H    1.415664  -1.181165  -0.257815
| 22> 		H    2.079931   0.572905  -0.009591
| 23> *
| 24>
| 25>                          ****END OF INPUT****

CARTESIAN COORDINATES (ANGSTROEM)
---------------------------------
  C     -1.158143   -0.266421    0.012031
  O     -1.249337   -1.412114    0.496968
  C      0.022189    0.543923    0.074580
  C      1.147348   -0.021621   -0.169315
  H     -2.139951    0.146146   -0.529440
  H     -0.109569    1.619441    0.357267
  H      1.415664   -1.181165   -0.257815
  H      2.079931    0.572905   -0.009591

 Total Charge           Charge          ....    0
 Multiplicity           Mult            ....    1
 Number of Electrons    NEL             ....   30
 Basis Dimension        Dim             ....   76

ORBITAL ENERGIES
----------------

  NO   OCC          E(Eh)            E(eV)
   0   2.0000     -19.137881      -520.7682
   1   2.0000     -10.280498      -279.7466
   2   2.0000     -10.216457      -278.0039
   3   2.0000     -10.207029      -277.7474
   4   2.0000      -1.026902       -27.9434
   5   2.0000      -0.813023       -22.1235
   6   2.0000      -0.653477       -17.7820
   7   2.0000      -0.533510       -14.5175
   8   2.0000      -0.503901       -13.7118
   9   2.0000      -0.454128       -12.3574
  10   2.0000      -0.428934       -11.6719
  11   2.0000      -0.372295       -10.1307
  12   2.0000      -0.367695       -10.0055
  13   2.0000      -0.298033        -8.1099
  14   2.0000      -0.252146        -6.8612
  15   0.0000      -0.058803        -1.6001
  16   0.0000       0.023432         0.6376
  17   0.0000       0.067084         1.8255
  18   0.0000       0.077756         2.1159
  19   0.0000       0.098298         2.6748

MULLIKEN ATOMIC CHARGES
-----------------------
   0 C :    0.140455
   1 O :   -0.216145
   2 C :   -0.045915
   3 C :    0.007729
   4 H :   -0.004735
   5 H :    0.021052
   6 H :    0.066986
   7 H :    0.030572
Sum of atomic charges:    0.0000000

LOEWDIN ATOMIC CHARGES
----------------------
   0 C :   -0.014136
   1 O :   -0.037250
   2 C :   -0.086417
   3 C :   -0.006553
   4 H :    0.003477
   5 H :    0.047224
   6 H :    0.058433
   7 H :    0.035223

  Mayer bond orders larger than 0.100000
B(  0-C ,  1-O ) :   2.1663 B(  0-C ,  2-C ) :   1.0395 B(  0-C ,  4-H ) :   0.9094
B(  2-C ,  3-C ) :   1.9876 B(  2-C ,  5-H ) :   0.9298 B(  3-C ,  6-H ) :   0.9385
B(  3-C ,  7-H ) :   0.9352

-----------------------------------------------------------------------------
         ABSORPTION SPECTRUM VIA TRANSITION ELECTRIC DIPOLE MOMENTS
-----------------------------------------------------------------------------
State   Energy    Wavelength  fosc         T2        TX        TY        TZ
        (cm-1)      (nm)                 (au**2)    (au)      (au)      (au)
-----------------------------------------------------------------------------
   1   28695.2    348.5   0.000067543   0.00077   0.00843  -0.01373  -0.02270

FINAL SINGLE POINT ENERGY      -191.652093064092

DIPOLE MOMENT
-------------
                                X             Y             Z
Electronic contribution:     -1.93695      -1.43255       0.58789
Nuclear contribution   :      2.40016       2.29817      -0.84283
                        -----------------------------------------
Total Dipole Moment    :      0.46321       0.86562      -0.25494
                        -----------------------------------------
Magnitude (a.u.)       :      1.01433
Magnitude (Debye)      :      2.57821

Rotational constants in cm-1:     0.761247     0.209939     0.170920
Rotational constants in MHz : 22821.618616  6293.815896  5124.048405

                             ****ORCA TERMINATED NORMALLY****
TOTAL RUN TIME: 0 days 0 hours 3 minutes 17 seconds 566 msec
