                         Program Version 5.0.3 -  RELEASE  -
|  1> ! B3LYP cc-pVDZ
|  2> !TightSCF
|  3> %scf
|  4>  ConvForced true
|  5>  convergence tight
|  6>  MaxIter 500
|  7> end
|  8>
|  9> %tddft
| 10>  nroots 1
| 11> end
| 12>
| 13> # 	22989
| 14> * xyz 0 1
| 15> 		C   -0.572995  -0.429461  -0.083311
| 16> 		O   -0.592194  -1.670337   0.052724
| 17> 		C    0.648747   0.430767   0.042068
| 18> 		C    1.837097  -0.105468  -0.032897
| 19> 		H   -1.551370   0.218766  -0.147447
| 20> 		H    0.480804   1.514382   0.279810
| 21> 		H    1.943658  -1.163753  -0.192929
| 22> 		H    2.704268   0.447370   0.132391
| 23> *
| 24>
| 25>                          ****END OF INPUT****

CARTESIAN COORDINATES (ANGSTROEM)
---------------------------------
  C     -0.572995   -0.429461   -0.083311
  O     -0.592194   -1.670337    0.052724
  C      0.648747    0.430767    0.042068
  C      1.837097   -0.105468   -0.032897
  H     -1.551370    0.218766   -0.147447
  H      0.480804    1.514382    0.279810
  H      1.943658   -1.163753   -0.192929
  H      2.704268    0.447370    0.132391

 Total Charge           Charge          ....    0
 Multiplicity           Mult            ....    1
 Number of Electrons    NEL             ....   30
 Basis Dimension        Dim             ....   76

ORBITAL ENERGIES
----------------

  NO   OCC          E(Eh)            E(eV)
   0   2.0000     -19.144606      -520.9512
   1   2.0000     -10.285667      -279.8872
   2   2.0000     -10.207345      -277.7560
   3   2.0000     -10.203155      -277.6420
   4   2.0000      -1.028159       -27.9776
   5   2.0000      -0.802407       -21.8346
   6   2.0000      -0.657177       -17.8827
   7   2.0000      -0.539822       -14.6893
   8   2.0000      -0.506527       -13.7833
   9   2.0000      -0.447297       -12.1716
  10   2.0000      -0.423152       -11.5145
  11   2.0000      -0.388286       -10.5658
  12   2.0000      -0.382288       -10.4026
  13   2.0000      -0.293245        -7.9796
  14   2.0000      -0.258072        -7.0225
  15   0.0000      -0.070857        -1.9281
  16   0.0000       0.049616         1.3501
  17   0.0000       0.062989         1.7140
  18   0.0000       0.094115         2.5610
  19   0.0000       0.118334         3.2200

MULLIKEN ATOMIC CHARGES
-----------------------
   0 C :    0.172094
   1 O :   -0.213888
   2 C :   -0.140497
   3 C :    0.138131
   4 H :   -0.002208
   5 H :    0.004883
   6 H :    0.028942
   7 H :    0.012543
Sum of atomic charges:   -0.0000000

LOEWDIN ATOMIC CHARGES
----------------------
   0 C :   -0.008986
   1 O :   -0.036403
   2 C :   -0.082927
   3 C :    0.035366
   4 H :    0.001714
   5 H :    0.037033
   6 H :    0.033026
   7 H :    0.021178

  Mayer bond orders larger than 0.100000
B(  0-C ,  1-O ) :   2.1530 B(  0-C ,  2-C ) :   1.0447 B(  0-C ,  4-H ) :   0.9035
B(  2-C ,  3-C ) :   1.9873 B(  2-C ,  5-H ) :   0.9410 B(  3-C ,  6-H ) :   0.9302
B(  3-C ,  7-H ) :   0.9389

-----------------------------------------------------------------------------
         ABSORPTION SPECTRUM VIA TRANSITION ELECTRIC DIPOLE MOMENTS
-----------------------------------------------------------------------------
State   Energy    Wavelength  fosc         T2        TX        TY        TZ
        (cm-1)      (nm)                 (au**2)    (au)      (au)      (au)
-----------------------------------------------------------------------------
   1   27795.5    359.8   0.000089372   0.00106  -0.00728   0.00827   0.03061

FINAL SINGLE POINT ENERGY      -191.674183173736

DIPOLE MOMENT
-------------
                                X             Y             Z
Electronic contribution:     -1.74969      -1.81393      -0.09425
Nuclear contribution   :      2.19787       2.74023       0.06646
                        -----------------------------------------
Total Dipole Moment    :      0.44818       0.92630      -0.02780
                        -----------------------------------------
Magnitude (a.u.)       :      1.02940
Magnitude (Debye)      :      2.61654

Rotational constants in cm-1:     0.749307     0.205355     0.162168
Rotational constants in MHz : 22463.658149  6156.386853  4861.670920

                             ****ORCA TERMINATED NORMALLY****
TOTAL RUN TIME: 0 days 0 hours 3 minutes 16 seconds 311 msec
