                         Program Version 5.0.3 -  RELEASE  -
|  1> ! HF-3c
|  2> !TightSCF
|  3> %scf
|  4>  ConvForced true
|  5>  convergence tight
|  6>  MaxIter 500
|  7> end
|  8>
|  9> %tddft
| 10>  nroots 1
| 11> end
| 12>
| 13> # 	23510
| 14> * xyz 0 1
| 15> 		C   -0.556005  -0.408311  -0.033715
| 16> 		O   -0.565198  -1.623386   0.025215
| 17> 		C    0.603586   0.438607   0.027649
| 18> 		C    1.829114  -0.157950  -0.047765
| 19> 		H   -1.581152  -0.020199  -0.164597
| 20> 		H    0.443397   1.377083   0.221882
| 21> 		H    1.871553  -1.211146   0.095047
| 22> 		H    2.808606   0.373146   0.105672
| 23> *
| 24>
| 25>                          ****END OF INPUT****

CARTESIAN COORDINATES (ANGSTROEM)
---------------------------------
  C     -0.556005   -0.408311   -0.033715
  O     -0.565198   -1.623386    0.025215
  C      0.603586    0.438607    0.027649
  C      1.829114   -0.157950   -0.047765
  H     -1.581152   -0.020199   -0.164597
  H      0.443397    1.377083    0.221882
  H      1.871553   -1.211146    0.095047
  H      2.808606    0.373146    0.105672

 Total Charge           Charge          ....    0
 Multiplicity           Mult            ....    1
 Number of Electrons    NEL             ....   30
 Basis Dimension        Dim             ....   24

ORBITAL ENERGIES
----------------

  NO   OCC          E(Eh)            E(eV)
   0   2.0000     -20.348233      -553.7036
   1   2.0000     -11.287202      -307.1404
   2   2.0000     -11.202598      -304.8382
   3   2.0000     -11.197257      -304.6929
   4   2.0000      -1.393415       -37.9167
   5   2.0000      -1.087471       -29.5916
   6   2.0000      -0.898435       -24.4477
   7   2.0000      -0.761894       -20.7322
   8   2.0000      -0.718642       -19.5552
   9   2.0000      -0.622878       -16.9494
  10   2.0000      -0.586310       -15.9543
  11   2.0000      -0.551847       -15.0165
  12   2.0000      -0.531681       -14.4678
  13   2.0000      -0.411642       -11.2014
  14   2.0000      -0.387736       -10.5508
  15   0.0000       0.118097         3.2136
  16   0.0000       0.299168         8.1408
  17   0.0000       0.548149        14.9159
  18   0.0000       0.659212        17.9381
  19   0.0000       0.702002        19.1024

MULLIKEN ATOMIC CHARGES
-----------------------
   0 C :    0.153271
   1 O :   -0.358232
   2 C :   -0.204333
   3 C :   -0.191070
   4 H :    0.139392
   5 H :    0.146539
   6 H :    0.163004
   7 H :    0.151429
Sum of atomic charges:    0.0000000

LOEWDIN ATOMIC CHARGES
----------------------
   0 C :    0.138443
   1 O :   -0.268935
   2 C :   -0.148386
   3 C :   -0.088727
   4 H :    0.075486
   5 H :    0.084911
   6 H :    0.105167
   7 H :    0.102040

  Mayer bond orders larger than 0.100000
B(  0-C ,  1-O ) :   1.8840 B(  0-C ,  2-C ) :   1.0516 B(  0-C ,  4-H ) :   0.9325
B(  2-C ,  3-C ) :   1.9171 B(  2-C ,  5-H ) :   0.9634 B(  3-C ,  6-H ) :   0.9593
B(  3-C ,  7-H ) :   0.9640

-----------------------------------------------------------------------------
         ABSORPTION SPECTRUM VIA TRANSITION ELECTRIC DIPOLE MOMENTS
-----------------------------------------------------------------------------
State   Energy    Wavelength  fosc         T2        TX        TY        TZ
        (cm-1)      (nm)                 (au**2)    (au)      (au)      (au)
-----------------------------------------------------------------------------
   1   31012.7    322.4   0.000031996   0.00034   0.00090   0.00315   0.01814

Dispersion correction           -0.026172378
FINAL SINGLE POINT ENERGY      -189.324909536655

DIPOLE MOMENT
-------------
                                X             Y             Z
Electronic contribution:     -1.73685      -1.42701      -0.20143
Nuclear contribution   :      2.16800       2.27604       0.24129
                        -----------------------------------------
Total Dipole Moment    :      0.43115       0.84903       0.03986
                        -----------------------------------------
Magnitude (a.u.)       :      0.95306
Magnitude (Debye)      :      2.42249

Rotational constants in cm-1:     0.757000     0.216805     0.169069
Rotational constants in MHz : 22694.296149  6499.635828  5068.561473

                             ****ORCA TERMINATED NORMALLY****
TOTAL RUN TIME: 0 days 0 hours 0 minutes 10 seconds 941 msec
