                         Program Version 5.0.3 -  RELEASE  -
|  1> ! B3LYP cc-pVDZ
|  2> !TightSCF
|  3> %scf
|  4>  ConvForced true
|  5>  convergence tight
|  6>  MaxIter 500
|  7> end
|  8>
|  9> %tddft
| 10>  nroots 1
| 11> end
| 12>
| 13> # 	2806
| 14> * xyz 0 1
| 15> 		C   -1.205256  -0.283779  -0.037139
| 16> 		O   -1.360331  -1.285727  -0.668815
| 17> 		C    0.011394   0.580093  -0.158450
| 18> 		C    1.255444   0.015047   0.134745
| 19> 		H   -2.004211  -0.134658   0.731229
| 20> 		H   -0.196642   1.448160  -0.507591
| 21> 		H    1.370637  -1.039590   0.513321
| 22> 		H    2.101506   0.663617  -0.042110
| 23> *
| 24>
| 25>                          ****END OF INPUT****

CARTESIAN COORDINATES (ANGSTROEM)
---------------------------------
  C     -1.205256   -0.283779   -0.037139
  O     -1.360331   -1.285727   -0.668815
  C      0.011394    0.580093   -0.158450
  C      1.255444    0.015047    0.134745
  H     -2.004211   -0.134658    0.731229
  H     -0.196642    1.448160   -0.507591
  H      1.370637   -1.039590    0.513321
  H      2.101506    0.663617   -0.042110

 Total Charge           Charge          ....    0
 Multiplicity           Mult            ....    1
 Number of Electrons    NEL             ....   30
 Basis Dimension        Dim             ....   76

ORBITAL ENERGIES
----------------

  NO   OCC          E(Eh)            E(eV)
   0   2.0000     -19.135333      -520.6989
   1   2.0000     -10.272275      -279.5228
   2   2.0000     -10.219109      -278.0761
   3   2.0000     -10.203323      -277.6465
   4   2.0000      -1.054846       -28.7038
   5   2.0000      -0.786494       -21.4016
   6   2.0000      -0.650586       -17.7033
   7   2.0000      -0.561256       -15.2726
   8   2.0000      -0.504683       -13.7331
   9   2.0000      -0.446674       -12.1546
  10   2.0000      -0.439919       -11.9708
  11   2.0000      -0.400272       -10.8919
  12   2.0000      -0.379036       -10.3141
  13   2.0000      -0.279632        -7.6092
  14   2.0000      -0.246432        -6.7058
  15   0.0000      -0.043118        -1.1733
  16   0.0000      -0.001032        -0.0281
  17   0.0000       0.082463         2.2439
  18   0.0000       0.093121         2.5339
  19   0.0000       0.108585         2.9548

MULLIKEN ATOMIC CHARGES
-----------------------
   0 C :    0.130393
   1 O :   -0.174967
   2 C :    0.006610
   3 C :    0.020570
   4 H :   -0.017940
   5 H :   -0.050202
   6 H :    0.050516
   7 H :    0.035020
Sum of atomic charges:   -0.0000000

LOEWDIN ATOMIC CHARGES
----------------------
   0 C :   -0.034810
   1 O :    0.013669
   2 C :   -0.027042
   3 C :   -0.000972
   4 H :   -0.007502
   5 H :   -0.012970
   6 H :    0.041896
   7 H :    0.027731

  Mayer bond orders larger than 0.100000
B(  0-C ,  1-O ) :   2.2293 B(  0-C ,  2-C ) :   0.9871 B(  0-C ,  4-H ) :   0.9241
B(  2-C ,  3-C ) :   1.9960 B(  2-C ,  5-H ) :   0.9504 B(  3-C ,  6-H ) :   0.9461
B(  3-C ,  7-H ) :   0.9498

-----------------------------------------------------------------------------
         ABSORPTION SPECTRUM VIA TRANSITION ELECTRIC DIPOLE MOMENTS
-----------------------------------------------------------------------------
State   Energy    Wavelength  fosc         T2        TX        TY        TZ
        (cm-1)      (nm)                 (au**2)    (au)      (au)      (au)
-----------------------------------------------------------------------------
   1   31470.7    317.8   0.000401126   0.00420   0.04901   0.04225  -0.00309

FINAL SINGLE POINT ENERGY      -191.629546554960

DIPOLE MOMENT
-------------
                                X             Y             Z
Electronic contribution:     -2.12722      -1.19967      -0.97199
Nuclear contribution   :      2.49929       1.92806       1.36311
                        -----------------------------------------
Total Dipole Moment    :      0.37208       0.72839       0.39111
                        -----------------------------------------
Magnitude (a.u.)       :      0.90662
Magnitude (Debye)      :      2.30446

Rotational constants in cm-1:     0.808544     0.188151     0.163433
Rotational constants in MHz : 24239.550196  5640.627508  4899.608701

                             ****ORCA TERMINATED NORMALLY****
TOTAL RUN TIME: 0 days 0 hours 3 minutes 6 seconds 452 msec
