                         Program Version 5.0.3 -  RELEASE  -
|  1> ! B3LYP cc-pVDZ
|  2> !TightSCF
|  3> %scf
|  4>  ConvForced true
|  5>  convergence tight
|  6>  MaxIter 500
|  7> end
|  8>
|  9> %tddft
| 10>  nroots 1
| 11> end
| 12>
| 13> # 	24840
| 14> * xyz 0 1
| 15> 		C   -0.602569  -0.473232  -0.021067
| 16> 		O   -0.593063  -1.646852  -0.010448
| 17> 		C    0.609078   0.437049   0.021699
| 18> 		C    1.869472  -0.095876   0.001565
| 19> 		H   -1.617521   0.129482   0.244732
| 20> 		H    0.693553   1.538233  -0.177118
| 21> 		H    2.085395  -1.188241   0.169176
| 22> 		H    2.883360   0.482878  -0.117078
| 23> *
| 24>
| 25>                          ****END OF INPUT****

CARTESIAN COORDINATES (ANGSTROEM)
---------------------------------
  C     -0.602569   -0.473232   -0.021067
  O     -0.593063   -1.646852   -0.010448
  C      0.609078    0.437049    0.021699
  C      1.869472   -0.095876    0.001565
  H     -1.617521    0.129482    0.244732
  H      0.693553    1.538233   -0.177118
  H      2.085395   -1.188241    0.169176
  H      2.883360    0.482878   -0.117078

 Total Charge           Charge          ....    0
 Multiplicity           Mult            ....    1
 Number of Electrons    NEL             ....   30
 Basis Dimension        Dim             ....   76

ORBITAL ENERGIES
----------------

  NO   OCC          E(Eh)            E(eV)
   0   2.0000     -19.148422      -521.0551
   1   2.0000     -10.289321      -279.9866
   2   2.0000     -10.226173      -278.2683
   3   2.0000     -10.213565      -277.9252
   4   2.0000      -1.074345       -29.2344
   5   2.0000      -0.783417       -21.3178
   6   2.0000      -0.638811       -17.3829
   7   2.0000      -0.538933       -14.6651
   8   2.0000      -0.498091       -13.5537
   9   2.0000      -0.453161       -12.3311
  10   2.0000      -0.422646       -11.5008
  11   2.0000      -0.406642       -11.0653
  12   2.0000      -0.368607       -10.0303
  13   2.0000      -0.286600        -7.7988
  14   2.0000      -0.259307        -7.0561
  15   0.0000      -0.070156        -1.9091
  16   0.0000       0.048609         1.3227
  17   0.0000       0.062202         1.6926
  18   0.0000       0.084562         2.3011
  19   0.0000       0.103704         2.8219

MULLIKEN ATOMIC CHARGES
-----------------------
   0 C :    0.161897
   1 O :   -0.142197
   2 C :   -0.106797
   3 C :   -0.013075
   4 H :   -0.016324
   5 H :    0.015207
   6 H :    0.048586
   7 H :    0.052701
Sum of atomic charges:    0.0000000

LOEWDIN ATOMIC CHARGES
----------------------
   0 C :   -0.060636
   1 O :    0.041064
   2 C :   -0.101505
   3 C :    0.012614
   4 H :   -0.008621
   5 H :    0.040757
   6 H :    0.032316
   7 H :    0.044011

  Mayer bond orders larger than 0.100000
B(  0-C ,  1-O ) :   2.2452 B(  0-C ,  2-C ) :   0.9838 B(  0-C ,  4-H ) :   0.8934
B(  2-C ,  3-C ) :   1.9380 B(  2-C ,  5-H ) :   0.9403 B(  3-C ,  6-H ) :   0.9485
B(  3-C ,  7-H ) :   0.9504

-----------------------------------------------------------------------------
         ABSORPTION SPECTRUM VIA TRANSITION ELECTRIC DIPOLE MOMENTS
-----------------------------------------------------------------------------
State   Energy    Wavelength  fosc         T2        TX        TY        TZ
        (cm-1)      (nm)                 (au**2)    (au)      (au)      (au)
-----------------------------------------------------------------------------
   1   29193.6    342.5   0.000854305   0.00963  -0.08826  -0.00114   0.04292

FINAL SINGLE POINT ENERGY      -191.653144025880

DIPOLE MOMENT
-------------
                                X             Y             Z
Electronic contribution:     -2.15919      -1.92518      -0.14582
Nuclear contribution   :      2.63541       2.69048       0.11351
                        -----------------------------------------
Total Dipole Moment    :      0.47622       0.76530      -0.03232
                        -----------------------------------------
Magnitude (a.u.)       :      0.90195
Magnitude (Debye)      :      2.29259

Rotational constants in cm-1:     0.759635     0.198887     0.158055
Rotational constants in MHz : 22773.292685  5962.494601  4738.371531

                             ****ORCA TERMINATED NORMALLY****
TOTAL RUN TIME: 0 days 0 hours 3 minutes 22 seconds 800 msec
