                         Program Version 5.0.3 -  RELEASE  -
|  1> ! HF-3c
|  2> !TightSCF
|  3> %scf
|  4>  ConvForced true
|  5>  convergence tight
|  6>  MaxIter 500
|  7> end
|  8>
|  9> %tddft
| 10>  nroots 1
| 11> end
| 12>
| 13> # 	8492
| 14> * xyz 0 1
| 15> 		C   -1.167746  -0.293309  -0.055110
| 16> 		O   -1.800867  -0.786788  -0.875281
| 17> 		C    0.009615   0.496477  -0.258362
| 18> 		C    1.187900   0.015413   0.154882
| 19> 		H   -1.513627  -0.458254   1.033807
| 20> 		H   -0.146741   1.382212  -0.807053
| 21> 		H    1.238348  -0.926349   0.806024
| 22> 		H    2.129387   0.593112   0.020861
| 23> *
| 24>
| 25>                          ****END OF INPUT****

CARTESIAN COORDINATES (ANGSTROEM)
---------------------------------
  C     -1.167746   -0.293309   -0.055110
  O     -1.800867   -0.786788   -0.875281
  C      0.009615    0.496477   -0.258362
  C      1.187900    0.015413    0.154882
  H     -1.513627   -0.458254    1.033807
  H     -0.146741    1.382212   -0.807053
  H      1.238348   -0.926349    0.806024
  H      2.129387    0.593112    0.020861

 Total Charge           Charge          ....    0
 Multiplicity           Mult            ....    1
 Number of Electrons    NEL             ....   30
 Basis Dimension        Dim             ....   24

ORBITAL ENERGIES
----------------

  NO   OCC          E(Eh)            E(eV)
   0   2.0000     -20.385057      -554.7056
   1   2.0000     -11.310981      -307.7874
   2   2.0000     -11.190941      -304.5210
   3   2.0000     -11.187769      -304.4347
   4   2.0000      -1.453552       -39.5532
   5   2.0000      -1.088252       -29.6129
   6   2.0000      -0.878207       -23.8972
   7   2.0000      -0.770310       -20.9612
   8   2.0000      -0.687612       -18.7109
   9   2.0000      -0.649594       -17.6764
  10   2.0000      -0.612953       -16.6793
  11   2.0000      -0.549303       -14.9473
  12   2.0000      -0.532544       -14.4913
  13   2.0000      -0.410599       -11.1730
  14   2.0000      -0.394468       -10.7340
  15   0.0000       0.176110         4.7922
  16   0.0000       0.253724         6.9042
  17   0.0000       0.556978        15.1562
  18   0.0000       0.609009        16.5720
  19   0.0000       0.629094        17.1185

MULLIKEN ATOMIC CHARGES
-----------------------
   0 C :    0.190634
   1 O :   -0.358674
   2 C :   -0.186751
   3 C :   -0.216003
   4 H :    0.126696
   5 H :    0.156825
   6 H :    0.142722
   7 H :    0.144551
Sum of atomic charges:   -0.0000000

LOEWDIN ATOMIC CHARGES
----------------------
   0 C :    0.151944
   1 O :   -0.242712
   2 C :   -0.138921
   3 C :   -0.128770
   4 H :    0.065277
   5 H :    0.100523
   6 H :    0.097068
   7 H :    0.095591

  Mayer bond orders larger than 0.100000
B(  0-C ,  1-O ) :   1.9380 B(  0-C ,  2-C ) :   1.0004 B(  0-C ,  4-H ) :   0.9061
B(  2-C ,  3-C ) :   1.9790 B(  2-C ,  5-H ) :   0.9501 B(  3-C ,  6-H ) :   0.9630
B(  3-C ,  7-H ) :   0.9630

-----------------------------------------------------------------------------
         ABSORPTION SPECTRUM VIA TRANSITION ELECTRIC DIPOLE MOMENTS
-----------------------------------------------------------------------------
State   Energy    Wavelength  fosc         T2        TX        TY        TZ
        (cm-1)      (nm)                 (au**2)    (au)      (au)      (au)
-----------------------------------------------------------------------------
   1   37851.7    264.2   0.000019285   0.00017   0.00074  -0.01022   0.00792

Dispersion correction           -0.025619234
FINAL SINGLE POINT ENERGY      -189.295136412373

DIPOLE MOMENT
-------------
                                X             Y             Z
Electronic contribution:     -2.66444      -0.78220      -1.30582
Nuclear contribution   :      3.37167       1.17203       1.97323
                        -----------------------------------------
Total Dipole Moment    :      0.70723       0.38983       0.66741
                        -----------------------------------------
Magnitude (a.u.)       :      1.04765
Magnitude (Debye)      :      2.66292

Rotational constants in cm-1:     1.151388     0.169821     0.163683
Rotational constants in MHz : 34517.744279  5091.101346  4907.098118

                             ****ORCA TERMINATED NORMALLY****
TOTAL RUN TIME: 0 days 0 hours 0 minutes 12 seconds 809 msec
