                         Program Version 5.0.3 -  RELEASE  -
|  1> ! B3LYP cc-pVDZ
|  2> !TightSCF
|  3> %scf
|  4>  ConvForced true
|  5>  convergence tight
|  6>  MaxIter 500
|  7> end
|  8>
|  9> %tddft
| 10>  nroots 1
| 11> end
| 12>
| 13> # 	31789
| 14> * xyz 0 1
| 15> 		C   -0.592039  -0.401641   0.031232
| 16> 		O   -0.537860  -1.611696  -0.016432
| 17> 		C    0.639341   0.406083  -0.060011
| 18> 		C    1.783879  -0.172625  -0.012112
| 19> 		H   -1.491473   0.084521   0.225263
| 20> 		H    0.447962   1.602399   0.074436
| 21> 		H    1.984672  -1.190933   0.222086
| 22> 		H    2.735663   0.371280   0.235166
| 23> *
| 24>
| 25>                          ****END OF INPUT****

CARTESIAN COORDINATES (ANGSTROEM)
---------------------------------
  C     -0.592039   -0.401641    0.031232
  O     -0.537860   -1.611696   -0.016432
  C      0.639341    0.406083   -0.060011
  C      1.783879   -0.172625   -0.012112
  H     -1.491473    0.084521    0.225263
  H      0.447962    1.602399    0.074436
  H      1.984672   -1.190933    0.222086
  H      2.735663    0.371280    0.235166

 Total Charge           Charge          ....    0
 Multiplicity           Mult            ....    1
 Number of Electrons    NEL             ....   30
 Basis Dimension        Dim             ....   76

ORBITAL ENERGIES
----------------

  NO   OCC          E(Eh)            E(eV)
   0   2.0000     -19.134180      -520.6675
   1   2.0000     -10.267147      -279.3833
   2   2.0000     -10.209085      -277.8033
   3   2.0000     -10.204104      -277.6678
   4   2.0000      -1.044722       -28.4283
   5   2.0000      -0.800620       -21.7860
   6   2.0000      -0.660637       -17.9769
   7   2.0000      -0.552176       -15.0255
   8   2.0000      -0.499503       -13.5922
   9   2.0000      -0.454424       -12.3655
  10   2.0000      -0.422660       -11.5012
  11   2.0000      -0.399384       -10.8678
  12   2.0000      -0.359001        -9.7689
  13   2.0000      -0.293260        -7.9800
  14   2.0000      -0.254911        -6.9365
  15   0.0000      -0.066997        -1.8231
  16   0.0000       0.051396         1.3986
  17   0.0000       0.059237         1.6119
  18   0.0000       0.097812         2.6616
  19   0.0000       0.123986         3.3738

MULLIKEN ATOMIC CHARGES
-----------------------
   0 C :    0.227776
   1 O :   -0.197491
   2 C :   -0.161080
   3 C :    0.086866
   4 H :   -0.036028
   5 H :    0.020451
   6 H :    0.028740
   7 H :    0.030766
Sum of atomic charges:    0.0000000

LOEWDIN ATOMIC CHARGES
----------------------
   0 C :   -0.022424
   1 O :   -0.004256
   2 C :   -0.089862
   3 C :    0.013843
   4 H :   -0.013875
   5 H :    0.046411
   6 H :    0.029867
   7 H :    0.040296

  Mayer bond orders larger than 0.100000
B(  0-C ,  1-O ) :   2.1942 B(  0-C ,  2-C ) :   1.0560 B(  0-C ,  4-H ) :   0.9318
B(  2-C ,  3-C ) :   1.9721 B(  2-C ,  5-H ) :   0.9270 B(  3-C ,  6-H ) :   0.9384
B(  3-C ,  7-H ) :   0.9426

-----------------------------------------------------------------------------
         ABSORPTION SPECTRUM VIA TRANSITION ELECTRIC DIPOLE MOMENTS
-----------------------------------------------------------------------------
State   Energy    Wavelength  fosc         T2        TX        TY        TZ
        (cm-1)      (nm)                 (au**2)    (au)      (au)      (au)
-----------------------------------------------------------------------------
   1   27959.3    357.7   0.000126650   0.00149  -0.01204  -0.02973  -0.02150

FINAL SINGLE POINT ENERGY      -191.655415139547

DIPOLE MOMENT
-------------
                                X             Y             Z
Electronic contribution:     -1.99977      -1.76131      -0.52837
Nuclear contribution   :      2.29275       2.59960       0.70931
                        -----------------------------------------
Total Dipole Moment    :      0.29298       0.83829       0.18094
                        -----------------------------------------
Magnitude (a.u.)       :      0.90626
Magnitude (Debye)      :      2.30352

Rotational constants in cm-1:     0.742006     0.223266     0.172409
Rotational constants in MHz : 22244.777694  6693.353963  5168.682374

                             ****ORCA TERMINATED NORMALLY****
TOTAL RUN TIME: 0 days 0 hours 3 minutes 18 seconds 621 msec
