                         Program Version 5.0.3 -  RELEASE  -
|  1> ! B3LYP cc-pVDZ
|  2> !TightSCF
|  3> %scf
|  4>  ConvForced true
|  5>  convergence tight
|  6>  MaxIter 500
|  7> end
|  8>
|  9> %tddft
| 10>  nroots 1
| 11> end
| 12>
| 13> # 	32553
| 14> * xyz 0 1
| 15> 		C   -0.565432  -0.452597   0.004756
| 16> 		O   -0.596388  -1.631828  -0.002229
| 17> 		C    0.624110   0.400249   0.007280
| 18> 		C    1.858333  -0.082697  -0.010845
| 19> 		H   -1.533360   0.031348  -0.018860
| 20> 		H    0.541779   1.524676  -0.038991
| 21> 		H    1.707075  -1.263830   0.038690
| 22> 		H    2.870979   0.421275   0.040530
| 23> *
| 24>
| 25>                          ****END OF INPUT****

CARTESIAN COORDINATES (ANGSTROEM)
---------------------------------
  C     -0.565432   -0.452597    0.004756
  O     -0.596388   -1.631828   -0.002229
  C      0.624110    0.400249    0.007280
  C      1.858333   -0.082697   -0.010845
  H     -1.533360    0.031348   -0.018860
  H      0.541779    1.524676   -0.038991
  H      1.707075   -1.263830    0.038690
  H      2.870979    0.421275    0.040530

 Total Charge           Charge          ....    0
 Multiplicity           Mult            ....    1
 Number of Electrons    NEL             ....   30
 Basis Dimension        Dim             ....   76

ORBITAL ENERGIES
----------------

  NO   OCC          E(Eh)            E(eV)
   0   2.0000     -19.138931      -520.7968
   1   2.0000     -10.270921      -279.4860
   2   2.0000     -10.220869      -278.1240
   3   2.0000     -10.204050      -277.6663
   4   2.0000      -1.066945       -29.0330
   5   2.0000      -0.797008       -21.6877
   6   2.0000      -0.651739       -17.7347
   7   2.0000      -0.536424       -14.5968
   8   2.0000      -0.512199       -13.9377
   9   2.0000      -0.447923       -12.1886
  10   2.0000      -0.434739       -11.8299
  11   2.0000      -0.411142       -11.1877
  12   2.0000      -0.352081        -9.5806
  13   2.0000      -0.291736        -7.9385
  14   2.0000      -0.258738        -7.0406
  15   0.0000      -0.066214        -1.8018
  16   0.0000       0.063258         1.7213
  17   0.0000       0.072260         1.9663
  18   0.0000       0.086936         2.3656
  19   0.0000       0.122846         3.3428

MULLIKEN ATOMIC CHARGES
-----------------------
   0 C :    0.203869
   1 O :   -0.168639
   2 C :   -0.127936
   3 C :    0.021826
   4 H :   -0.031625
   5 H :   -0.004912
   6 H :    0.053437
   7 H :    0.053981
Sum of atomic charges:   -0.0000000

LOEWDIN ATOMIC CHARGES
----------------------
   0 C :   -0.054855
   1 O :    0.028753
   2 C :   -0.098262
   3 C :    0.006606
   4 H :   -0.008130
   5 H :    0.031701
   6 H :    0.051029
   7 H :    0.043157

  Mayer bond orders larger than 0.100000
B(  0-C ,  1-O ) :   2.2033 B(  0-C ,  2-C ) :   1.0383 B(  0-C ,  4-H ) :   0.9291
B(  2-C ,  3-C ) :   1.9507 B(  2-C ,  5-H ) :   0.9481 B(  3-C ,  6-H ) :   0.9073
B(  3-C ,  7-H ) :   0.9440

-----------------------------------------------------------------------------
         ABSORPTION SPECTRUM VIA TRANSITION ELECTRIC DIPOLE MOMENTS
-----------------------------------------------------------------------------
State   Energy    Wavelength  fosc         T2        TX        TY        TZ
        (cm-1)      (nm)                 (au**2)    (au)      (au)      (au)
-----------------------------------------------------------------------------
   1   29394.2    340.2   0.000151225   0.00169  -0.01192  -0.00138   0.03937

FINAL SINGLE POINT ENERGY      -191.656600829582

DIPOLE MOMENT
-------------
                                X             Y             Z
Electronic contribution:     -1.81661      -1.60216      -0.00919
Nuclear contribution   :      2.20689       2.46033       0.02000
                        -----------------------------------------
Total Dipole Moment    :      0.39028       0.85816       0.01081
                        -----------------------------------------
Magnitude (a.u.)       :      0.94280
Magnitude (Debye)      :      2.39642

Rotational constants in cm-1:     0.822118     0.205370     0.164345
Rotational constants in MHz : 24646.486302  6156.830550  4926.946149

                             ****ORCA TERMINATED NORMALLY****
TOTAL RUN TIME: 0 days 0 hours 3 minutes 14 seconds 469 msec
