                         Program Version 5.0.3 -  RELEASE  -
|  1> ! HF-3c
|  2> !TightSCF
|  3> %scf
|  4>  ConvForced true
|  5>  convergence tight
|  6>  MaxIter 500
|  7> end
|  8>
|  9> %tddft
| 10>  nroots 1
| 11> end
| 12>
| 13> # 	4493
| 14> * xyz 0 1
| 15> 		C   -1.117481  -0.405003   0.116259
| 16> 		O   -1.832532  -1.017253   0.916141
| 17> 		C    0.056585   0.364762   0.321868
| 18> 		C    1.212280   0.053466  -0.157338
| 19> 		H   -1.619590  -0.317285  -1.070298
| 20> 		H   -0.158319   1.269019   0.850661
| 21> 		H    1.292933  -0.725829  -0.883143
| 22> 		H    2.103195   0.769814  -0.070674
| 23> *
| 24>
| 25>                          ****END OF INPUT****

CARTESIAN COORDINATES (ANGSTROEM)
---------------------------------
  C     -1.117481   -0.405003    0.116259
  O     -1.832532   -1.017253    0.916141
  C      0.056585    0.364762    0.321868
  C      1.212280    0.053466   -0.157338
  H     -1.619590   -0.317285   -1.070298
  H     -0.158319    1.269019    0.850661
  H      1.292933   -0.725829   -0.883143
  H      2.103195    0.769814   -0.070674

 Total Charge           Charge          ....    0
 Multiplicity           Mult            ....    1
 Number of Electrons    NEL             ....   30
 Basis Dimension        Dim             ....   24

ORBITAL ENERGIES
----------------

  NO   OCC          E(Eh)            E(eV)
   0   2.0000     -20.360570      -554.0393
   1   2.0000     -11.288825      -307.1846
   2   2.0000     -11.205906      -304.9282
   3   2.0000     -11.193961      -304.6032
   4   2.0000      -1.381092       -37.5814
   5   2.0000      -1.109567       -30.1929
   6   2.0000      -0.891102       -24.2481
   7   2.0000      -0.750004       -20.4086
   8   2.0000      -0.665639       -18.1130
   9   2.0000      -0.644504       -17.5379
  10   2.0000      -0.601630       -16.3712
  11   2.0000      -0.542157       -14.7528
  12   2.0000      -0.488470       -13.2919
  13   2.0000      -0.428749       -11.6669
  14   2.0000      -0.384687       -10.4679
  15   0.0000       0.169206         4.6043
  16   0.0000       0.230681         6.2772
  17   0.0000       0.492394        13.3987
  18   0.0000       0.563698        15.3390
  19   0.0000       0.656139        17.8545

MULLIKEN ATOMIC CHARGES
-----------------------
   0 C :    0.183331
   1 O :   -0.346613
   2 C :   -0.190353
   3 C :   -0.229069
   4 H :    0.125335
   5 H :    0.162288
   6 H :    0.144078
   7 H :    0.151003
Sum of atomic charges:    0.0000000

LOEWDIN ATOMIC CHARGES
----------------------
   0 C :    0.154474
   1 O :   -0.259844
   2 C :   -0.134240
   3 C :   -0.140613
   4 H :    0.077975
   5 H :    0.106378
   6 H :    0.092065
   7 H :    0.103806

  Mayer bond orders larger than 0.100000
B(  0-C ,  1-O ) :   1.9379 B(  0-C ,  2-C ) :   1.0196 B(  0-C ,  4-H ) :   0.8959
B(  2-C ,  3-C ) :   1.9811 B(  2-C ,  5-H ) :   0.9392 B(  3-C ,  6-H ) :   0.9631
B(  3-C ,  7-H ) :   0.9583

-----------------------------------------------------------------------------
         ABSORPTION SPECTRUM VIA TRANSITION ELECTRIC DIPOLE MOMENTS
-----------------------------------------------------------------------------
State   Energy    Wavelength  fosc         T2        TX        TY        TZ
        (cm-1)      (nm)                 (au**2)    (au)      (au)      (au)
-----------------------------------------------------------------------------
   1   32459.5    308.1   0.000015229   0.00015  -0.00134  -0.01146   0.00462

Dispersion correction           -0.025369936
FINAL SINGLE POINT ENERGY      -189.302035520569

DIPOLE MOMENT
-------------
                                X             Y             Z
Electronic contribution:     -2.51679      -1.30411       1.50449
Nuclear contribution   :      3.22948       1.93467      -2.21948
                        -----------------------------------------
Total Dipole Moment    :      0.71269       0.63056      -0.71498
                        -----------------------------------------
Magnitude (a.u.)       :      1.19027
Magnitude (Debye)      :      3.02543

Rotational constants in cm-1:     1.261255     0.157381     0.153990
Rotational constants in MHz : 37811.464069  4718.171889  4616.499673

                             ****ORCA TERMINATED NORMALLY****
TOTAL RUN TIME: 0 days 0 hours 0 minutes 12 seconds 82 msec
