                         Program Version 5.0.3 -  RELEASE  -
|  1> ! HF-3c
|  2> !TightSCF
|  3> %scf
|  4>  ConvForced true
|  5>  convergence tight
|  6>  MaxIter 500
|  7> end
|  8>
|  9> %tddft
| 10>  nroots 1
| 11> end
| 12>
| 13> # 	23946
| 14> * xyz 0 1
| 15> 		C   -0.552385  -0.411126   0.029463
| 16> 		O   -0.551332  -1.616844  -0.021568
| 17> 		C    0.645833   0.407365   0.005874
| 18> 		C    1.755959  -0.182417  -0.013938
| 19> 		H   -1.653319   0.142135   0.056924
| 20> 		H    0.562413   1.707866  -0.188968
| 21> 		H    2.112186  -1.151751   0.174750
| 22> 		H    2.699982   0.487319   0.034615
| 23> *
| 24>
| 25>                          ****END OF INPUT****

CARTESIAN COORDINATES (ANGSTROEM)
---------------------------------
  C     -0.552385   -0.411126    0.029463
  O     -0.551332   -1.616844   -0.021568
  C      0.645833    0.407365    0.005874
  C      1.755959   -0.182417   -0.013938
  H     -1.653319    0.142135    0.056924
  H      0.562413    1.707866   -0.188968
  H      2.112186   -1.151751    0.174750
  H      2.699982    0.487319    0.034615

 Total Charge           Charge          ....    0
 Multiplicity           Mult            ....    1
 Number of Electrons    NEL             ....   30
 Basis Dimension        Dim             ....   24

ORBITAL ENERGIES
----------------

  NO   OCC          E(Eh)            E(eV)
   0   2.0000     -20.354359      -553.8703
   1   2.0000     -11.286991      -307.1346
   2   2.0000     -11.194885      -304.6283
   3   2.0000     -11.187478      -304.4268
   4   2.0000      -1.397895       -38.0387
   5   2.0000      -1.095828       -29.8190
   6   2.0000      -0.874800       -23.8045
   7   2.0000      -0.727396       -19.7935
   8   2.0000      -0.685094       -18.6424
   9   2.0000      -0.614792       -16.7293
  10   2.0000      -0.564823       -15.3696
  11   2.0000      -0.542914       -14.7735
  12   2.0000      -0.488208       -13.2848
  13   2.0000      -0.408632       -11.1194
  14   2.0000      -0.395017       -10.7490
  15   0.0000       0.147409         4.0112
  16   0.0000       0.332043         9.0353
  17   0.0000       0.403361        10.9760
  18   0.0000       0.526398        14.3240
  19   0.0000       0.616951        16.7881

MULLIKEN ATOMIC CHARGES
-----------------------
   0 C :    0.178770
   1 O :   -0.362629
   2 C :   -0.169371
   3 C :   -0.226739
   4 H :    0.124975
   5 H :    0.156951
   6 H :    0.160845
   7 H :    0.137198
Sum of atomic charges:    0.0000000

LOEWDIN ATOMIC CHARGES
----------------------
   0 C :    0.147743
   1 O :   -0.267638
   2 C :   -0.137519
   3 C :   -0.130008
   4 H :    0.072427
   5 H :    0.119797
   6 H :    0.102319
   7 H :    0.092879

  Mayer bond orders larger than 0.100000
B(  0-C ,  1-O ) :   1.9077 B(  0-C ,  2-C ) :   1.0226 B(  0-C ,  4-H ) :   0.9134
B(  2-C ,  3-C ) :   1.9671 B(  2-C ,  5-H ) :   0.9390 B(  3-C ,  6-H ) :   0.9574
B(  3-C ,  7-H ) :   0.9556

-----------------------------------------------------------------------------
         ABSORPTION SPECTRUM VIA TRANSITION ELECTRIC DIPOLE MOMENTS
-----------------------------------------------------------------------------
State   Energy    Wavelength  fosc         T2        TX        TY        TZ
        (cm-1)      (nm)                 (au**2)    (au)      (au)      (au)
-----------------------------------------------------------------------------
   1   32762.9    305.2   0.000054725   0.00055  -0.01263   0.00278   0.01956

Dispersion correction           -0.025641508
FINAL SINGLE POINT ENERGY      -189.279092144993

DIPOLE MOMENT
-------------
                                X             Y             Z
Electronic contribution:     -1.98513      -1.82826      -0.03751
Nuclear contribution   :      2.33101       2.89664       0.07290
                        -----------------------------------------
Total Dipole Moment    :      0.34588       1.06839       0.03540
                        -----------------------------------------
Magnitude (a.u.)       :      1.12354
Magnitude (Debye)      :      2.85580

Rotational constants in cm-1:     0.747660     0.222528     0.171809
Rotational constants in MHz : 22414.272173  6671.236138  5150.699260

                             ****ORCA TERMINATED NORMALLY****
TOTAL RUN TIME: 0 days 0 hours 0 minutes 11 seconds 48 msec
