                         Program Version 5.0.3 -  RELEASE  -
|  1> ! HF-3c
|  2> !TightSCF
|  3> %scf
|  4>  ConvForced true
|  5>  convergence tight
|  6>  MaxIter 500
|  7> end
|  8>
|  9> %tddft
| 10>  nroots 1
| 11> end
| 12>
| 13> # 	7034
| 14> * xyz 0 1
| 15> 		C   -1.201129  -0.344687   0.064251
| 16> 		O   -1.863763  -0.892193   1.005901
| 17> 		C   -0.010698   0.471146   0.166501
| 18> 		C    1.160193   0.123954  -0.298716
| 19> 		H   -1.468166  -0.567113  -1.053130
| 20> 		H    0.176826   1.219358   1.038791
| 21> 		H    1.128909  -0.700694  -0.835457
| 22> 		H    2.101025   0.625285  -0.063929
| 23> *
| 24>
| 25>                          ****END OF INPUT****

CARTESIAN COORDINATES (ANGSTROEM)
---------------------------------
  C     -1.201129   -0.344687    0.064251
  O     -1.863763   -0.892193    1.005901
  C     -0.010698    0.471146    0.166501
  C      1.160193    0.123954   -0.298716
  H     -1.468166   -0.567113   -1.053130
  H      0.176826    1.219358    1.038791
  H      1.128909   -0.700694   -0.835457
  H      2.101025    0.625285   -0.063929

 Total Charge           Charge          ....    0
 Multiplicity           Mult            ....    1
 Number of Electrons    NEL             ....   30
 Basis Dimension        Dim             ....   24

ORBITAL ENERGIES
----------------

  NO   OCC          E(Eh)            E(eV)
   0   2.0000     -20.358531      -553.9838
   1   2.0000     -11.292357      -307.2806
   2   2.0000     -11.197648      -304.7035
   3   2.0000     -11.194873      -304.6280
   4   2.0000      -1.358545       -36.9679
   5   2.0000      -1.109004       -30.1775
   6   2.0000      -0.896100       -24.3841
   7   2.0000      -0.766209       -20.8496
   8   2.0000      -0.672873       -18.3098
   9   2.0000      -0.647276       -17.6133
  10   2.0000      -0.583319       -15.8729
  11   2.0000      -0.537417       -14.6239
  12   2.0000      -0.494168       -13.4470
  13   2.0000      -0.415364       -11.3026
  14   2.0000      -0.403721       -10.9858
  15   0.0000       0.133875         3.6429
  16   0.0000       0.251219         6.8360
  17   0.0000       0.534932        14.5562
  18   0.0000       0.564066        15.3490
  19   0.0000       0.664447        18.0805

MULLIKEN ATOMIC CHARGES
-----------------------
   0 C :    0.157627
   1 O :   -0.335462
   2 C :   -0.166167
   3 C :   -0.251715
   4 H :    0.139598
   5 H :    0.163117
   6 H :    0.137044
   7 H :    0.155958
Sum of atomic charges:   -0.0000000

LOEWDIN ATOMIC CHARGES
----------------------
   0 C :    0.150588
   1 O :   -0.260660
   2 C :   -0.122552
   3 C :   -0.148594
   4 H :    0.082754
   5 H :    0.114616
   6 H :    0.079951
   7 H :    0.103898

  Mayer bond orders larger than 0.100000
B(  0-C ,  1-O ) :   1.9165 B(  0-C ,  2-C ) :   1.0336 B(  0-C ,  4-H ) :   0.9188
B(  2-C ,  3-C ) :   1.9599 B(  2-C ,  5-H ) :   0.9380 B(  3-C ,  6-H ) :   0.9672
B(  3-C ,  7-H ) :   0.9615

-----------------------------------------------------------------------------
         ABSORPTION SPECTRUM VIA TRANSITION ELECTRIC DIPOLE MOMENTS
-----------------------------------------------------------------------------
State   Energy    Wavelength  fosc         T2        TX        TY        TZ
        (cm-1)      (nm)                 (au**2)    (au)      (au)      (au)
-----------------------------------------------------------------------------
   1   30692.8    325.8   0.000055693   0.00060  -0.02388  -0.00296   0.00426

Dispersion correction           -0.025554726
FINAL SINGLE POINT ENERGY      -189.307913583998

DIPOLE MOMENT
-------------
                                X             Y             Z
Electronic contribution:     -2.92500      -0.80093       1.18785
Nuclear contribution   :      3.70533       1.24601      -1.80708
                        -----------------------------------------
Total Dipole Moment    :      0.78033       0.44508      -0.61923
                        -----------------------------------------
Magnitude (a.u.)       :      1.09108
Magnitude (Debye)      :      2.77331

Rotational constants in cm-1:     1.222697     0.154995     0.150969
Rotational constants in MHz : 36655.526786  4646.624918  4525.934146

                             ****ORCA TERMINATED NORMALLY****
TOTAL RUN TIME: 0 days 0 hours 0 minutes 15 seconds 711 msec
