                         Program Version 5.0.3 -  RELEASE  -
|  1> ! B3LYP cc-pVDZ
|  2> !TightSCF
|  3> %scf
|  4>  ConvForced true
|  5>  convergence tight
|  6>  MaxIter 500
|  7> end
|  8>
|  9> %tddft
| 10>  nroots 1
| 11> end
| 12>
| 13> # 	3315
| 14> * xyz 0 1
| 15> 		C   -1.108274  -0.357406  -0.017386
| 16> 		O   -2.037087  -0.650534  -0.872075
| 17> 		C    0.007013   0.401107  -0.287908
| 18> 		C    1.160118   0.073187   0.243830
| 19> 		H   -1.288799  -0.809835   1.002575
| 20> 		H   -0.059845   1.349425  -1.152482
| 21> 		H    1.344167  -0.707264   0.907062
| 22> 		H    2.027284   0.620279   0.187417
| 23> *
| 24>
| 25>                          ****END OF INPUT****

CARTESIAN COORDINATES (ANGSTROEM)
---------------------------------
  C     -1.108274   -0.357406   -0.017386
  O     -2.037087   -0.650534   -0.872075
  C      0.007013    0.401107   -0.287908
  C      1.160118    0.073187    0.243830
  H     -1.288799   -0.809835    1.002575
  H     -0.059845    1.349425   -1.152482
  H      1.344167   -0.707264    0.907062
  H      2.027284    0.620279    0.187417

 Total Charge           Charge          ....    0
 Multiplicity           Mult            ....    1
 Number of Electrons    NEL             ....   30
 Basis Dimension        Dim             ....   76

ORBITAL ENERGIES
----------------

  NO   OCC          E(Eh)            E(eV)
   0   2.0000     -19.131914      -520.6058
   1   2.0000     -10.274031      -279.5706
   2   2.0000     -10.224124      -278.2126
   3   2.0000     -10.210373      -277.8384
   4   2.0000      -0.998681       -27.1755
   5   2.0000      -0.824178       -22.4270
   6   2.0000      -0.673157       -18.3175
   7   2.0000      -0.561416       -15.2769
   8   2.0000      -0.491178       -13.3656
   9   2.0000      -0.476320       -12.9613
  10   2.0000      -0.413006       -11.2385
  11   2.0000      -0.383093       -10.4245
  12   2.0000      -0.361368        -9.8333
  13   2.0000      -0.293116        -7.9761
  14   2.0000      -0.250153        -6.8070
  15   0.0000      -0.077891        -2.1195
  16   0.0000       0.022979         0.6253
  17   0.0000       0.057483         1.5642
  18   0.0000       0.084856         2.3090
  19   0.0000       0.115463         3.1419

MULLIKEN ATOMIC CHARGES
-----------------------
   0 C :    0.175374
   1 O :   -0.261003
   2 C :   -0.114867
   3 C :    0.121615
   4 H :    0.002015
   5 H :    0.060721
   6 H :    0.006307
   7 H :    0.009838
Sum of atomic charges:    0.0000000

LOEWDIN ATOMIC CHARGES
----------------------
   0 C :   -0.007812
   1 O :   -0.078628
   2 C :   -0.068054
   3 C :    0.025768
   4 H :    0.012771
   5 H :    0.073984
   6 H :    0.021723
   7 H :    0.020248

  Mayer bond orders larger than 0.100000
B(  0-C ,  1-O ) :   2.0639 B(  0-C ,  2-C ) :   1.1153 B(  0-C ,  4-H ) :   0.9397
B(  1-O ,  3-C ) :   0.1079 B(  2-C ,  3-C ) :   1.9282 B(  2-C ,  5-H ) :   0.9140
B(  3-C ,  6-H ) :   0.9510 B(  3-C ,  7-H ) :   0.9421

-----------------------------------------------------------------------------
         ABSORPTION SPECTRUM VIA TRANSITION ELECTRIC DIPOLE MOMENTS
-----------------------------------------------------------------------------
State   Energy    Wavelength  fosc         T2        TX        TY        TZ
        (cm-1)      (nm)                 (au**2)    (au)      (au)      (au)
-----------------------------------------------------------------------------
   1   24502.6    408.1   0.000524338   0.00704  -0.08297  -0.01253   0.00210

FINAL SINGLE POINT ENERGY      -191.652950206825

DIPOLE MOMENT
-------------
                                X             Y             Z
Electronic contribution:     -2.75680      -0.63188      -1.14629
Nuclear contribution   :      3.87323       0.98941       1.79650
                        -----------------------------------------
Total Dipole Moment    :      1.11644       0.35753       0.65021
                        -----------------------------------------
Magnitude (a.u.)       :      1.34053
Magnitude (Debye)      :      3.40736

Rotational constants in cm-1:     1.363543     0.160403     0.149308
Rotational constants in MHz : 40877.979076  4808.757846  4476.137798

                             ****ORCA TERMINATED NORMALLY****
TOTAL RUN TIME: 0 days 0 hours 3 minutes 11 seconds 649 msec
