                         Program Version 5.0.3 -  RELEASE  -
|  1> ! B3LYP cc-pVDZ
|  2> !TightSCF
|  3> %scf
|  4>  ConvForced true
|  5>  convergence tight
|  6>  MaxIter 500
|  7> end
|  8>
|  9> %tddft
| 10>  nroots 1
| 11> end
| 12>
| 13> # 	1157
| 14> * xyz 0 1
| 15> 		C   -1.128205  -0.353629  -0.082732
| 16> 		O   -2.070810  -0.542046  -0.858404
| 17> 		C    0.061534   0.339435  -0.430250
| 18> 		C    1.155910   0.101218   0.278557
| 19> 		H   -1.387629  -0.885309   1.080352
| 20> 		H    0.061120   1.279395  -1.292766
| 21> 		H    1.183213  -0.623082   1.176903
| 22> 		H    2.077234   0.685006   0.097174
| 23> *
| 24>
| 25>                          ****END OF INPUT****

CARTESIAN COORDINATES (ANGSTROEM)
---------------------------------
  C     -1.128205   -0.353629   -0.082732
  O     -2.070810   -0.542046   -0.858404
  C      0.061534    0.339435   -0.430250
  C      1.155910    0.101218    0.278557
  H     -1.387629   -0.885309    1.080352
  H      0.061120    1.279395   -1.292766
  H      1.183213   -0.623082    1.176903
  H      2.077234    0.685006    0.097174

 Total Charge           Charge          ....    0
 Multiplicity           Mult            ....    1
 Number of Electrons    NEL             ....   30
 Basis Dimension        Dim             ....   76

ORBITAL ENERGIES
----------------

  NO   OCC          E(Eh)            E(eV)
   0   2.0000     -19.135445      -520.7019
   1   2.0000     -10.286191      -279.9015
   2   2.0000     -10.227872      -278.3145
   3   2.0000     -10.227006      -278.2910
   4   2.0000      -1.032113       -28.0852
   5   2.0000      -0.812374       -22.1058
   6   2.0000      -0.645777       -17.5725
   7   2.0000      -0.537278       -14.6201
   8   2.0000      -0.471011       -12.8169
   9   2.0000      -0.469267       -12.7694
  10   2.0000      -0.412919       -11.2361
  11   2.0000      -0.388984       -10.5848
  12   2.0000      -0.373079       -10.1520
  13   2.0000      -0.296822        -8.0769
  14   2.0000      -0.249575        -6.7913
  15   0.0000      -0.068282        -1.8581
  16   0.0000       0.011249         0.3061
  17   0.0000       0.061028         1.6607
  18   0.0000       0.071445         1.9441
  19   0.0000       0.086263         2.3473

MULLIKEN ATOMIC CHARGES
-----------------------
   0 C :    0.120292
   1 O :   -0.208901
   2 C :   -0.098636
   3 C :    0.031629
   4 H :   -0.000822
   5 H :    0.066193
   6 H :    0.050488
   7 H :    0.039758
Sum of atomic charges:   -0.0000000

LOEWDIN ATOMIC CHARGES
----------------------
   0 C :   -0.050770
   1 O :   -0.027512
   2 C :   -0.084183
   3 C :    0.000112
   4 H :    0.008247
   5 H :    0.073968
   6 H :    0.044865
   7 H :    0.035274

  Mayer bond orders larger than 0.100000
B(  0-C ,  1-O ) :   2.1207 B(  0-C ,  2-C ) :   1.0607 B(  0-C ,  4-H ) :   0.8996
B(  2-C ,  3-C ) :   1.9203 B(  2-C ,  5-H ) :   0.9227 B(  3-C ,  6-H ) :   0.9409
B(  3-C ,  7-H ) :   0.9354

-----------------------------------------------------------------------------
         ABSORPTION SPECTRUM VIA TRANSITION ELECTRIC DIPOLE MOMENTS
-----------------------------------------------------------------------------
State   Energy    Wavelength  fosc         T2        TX        TY        TZ
        (cm-1)      (nm)                 (au**2)    (au)      (au)      (au)
-----------------------------------------------------------------------------
   1   27013.2    370.2   0.000267079   0.00325   0.04679  -0.03262   0.00107

FINAL SINGLE POINT ENERGY      -191.646538993572

DIPOLE MOMENT
-------------
                                X             Y             Z
Electronic contribution:     -2.74679      -0.54549      -1.52774
Nuclear contribution   :      3.80711       0.90144       2.02353
                        -----------------------------------------
Total Dipole Moment    :      1.06032       0.35595       0.49579
                        -----------------------------------------
Magnitude (a.u.)       :      1.22343
Magnitude (Debye)      :      3.10972

Rotational constants in cm-1:     1.334940     0.160631     0.145690
Rotational constants in MHz : 40020.490851  4815.587942  4367.685959

                             ****ORCA TERMINATED NORMALLY****
TOTAL RUN TIME: 0 days 0 hours 3 minutes 17 seconds 835 msec
