                         Program Version 5.0.3 -  RELEASE  -
|  1> ! HF-3c
|  2> !TightSCF
|  3> %scf
|  4>  ConvForced true
|  5>  convergence tight
|  6>  MaxIter 500
|  7> end
|  8>
|  9> %tddft
| 10>  nroots 1
| 11> end
| 12>
| 13> # 	28542
| 14> * xyz 0 1
| 15> 		C   -0.543931  -0.452375   0.032178
| 16> 		O   -0.603856  -1.680403  -0.010660
| 17> 		C    0.612612   0.500900   0.013161
| 18> 		C    1.848267  -0.122423  -0.012075
| 19> 		H   -1.572279   0.054739  -0.144046
| 20> 		H    0.484437   1.553846  -0.134071
| 21> 		H    1.951562  -1.196440  -0.004323
| 22> 		H    2.859338   0.376634   0.054354
| 23> *
| 24>
| 25>                          ****END OF INPUT****

CARTESIAN COORDINATES (ANGSTROEM)
---------------------------------
  C     -0.543931   -0.452375    0.032178
  O     -0.603856   -1.680403   -0.010660
  C      0.612612    0.500900    0.013161
  C      1.848267   -0.122423   -0.012075
  H     -1.572279    0.054739   -0.144046
  H      0.484437    1.553846   -0.134071
  H      1.951562   -1.196440   -0.004323
  H      2.859338    0.376634    0.054354

 Total Charge           Charge          ....    0
 Multiplicity           Mult            ....    1
 Number of Electrons    NEL             ....   30
 Basis Dimension        Dim             ....   24

ORBITAL ENERGIES
----------------

  NO   OCC          E(Eh)            E(eV)
   0   2.0000     -20.349394      -553.7352
   1   2.0000     -11.283878      -307.0499
   2   2.0000     -11.196434      -304.6705
   3   2.0000     -11.191195      -304.5279
   4   2.0000      -1.378684       -37.5159
   5   2.0000      -1.066185       -29.0124
   6   2.0000      -0.877038       -23.8654
   7   2.0000      -0.745945       -20.2982
   8   2.0000      -0.689984       -18.7754
   9   2.0000      -0.607016       -16.5177
  10   2.0000      -0.574597       -15.6356
  11   2.0000      -0.539334       -14.6760
  12   2.0000      -0.524424       -14.2703
  13   2.0000      -0.399725       -10.8771
  14   2.0000      -0.381161       -10.3719
  15   0.0000       0.123735         3.3670
  16   0.0000       0.290827         7.9138
  17   0.0000       0.531813        14.4714
  18   0.0000       0.570546        15.5253
  19   0.0000       0.639370        17.3981

MULLIKEN ATOMIC CHARGES
-----------------------
   0 C :    0.167715
   1 O :   -0.361636
   2 C :   -0.187874
   3 C :   -0.193362
   4 H :    0.123780
   5 H :    0.151714
   6 H :    0.155192
   7 H :    0.144471
Sum of atomic charges:    0.0000000

LOEWDIN ATOMIC CHARGES
----------------------
   0 C :    0.150169
   1 O :   -0.274424
   2 C :   -0.143986
   3 C :   -0.091634
   4 H :    0.066346
   5 H :    0.097565
   6 H :    0.099755
   7 H :    0.096210

  Mayer bond orders larger than 0.100000
B(  0-C ,  1-O ) :   1.9005 B(  0-C ,  2-C ) :   1.0295 B(  0-C ,  4-H ) :   0.9252
B(  2-C ,  3-C ) :   1.9248 B(  2-C ,  5-H ) :   0.9607 B(  3-C ,  6-H ) :   0.9622
B(  3-C ,  7-H ) :   0.9653

-----------------------------------------------------------------------------
         ABSORPTION SPECTRUM VIA TRANSITION ELECTRIC DIPOLE MOMENTS
-----------------------------------------------------------------------------
State   Energy    Wavelength  fosc         T2        TX        TY        TZ
        (cm-1)      (nm)                 (au**2)    (au)      (au)      (au)
-----------------------------------------------------------------------------
   1   31196.5    320.5   0.000031818   0.00034  -0.00558  -0.00444  -0.01688

Dispersion correction           -0.025185704
FINAL SINGLE POINT ENERGY      -189.335613880935

DIPOLE MOMENT
-------------
                                X             Y             Z
Electronic contribution:     -1.83309      -1.57949       0.18342
Nuclear contribution   :      2.33375       2.52803      -0.21408
                        -----------------------------------------
Total Dipole Moment    :      0.50066       0.94854      -0.03066
                        -----------------------------------------
Magnitude (a.u.)       :      1.07300
Magnitude (Debye)      :      2.72735

Rotational constants in cm-1:     0.725510     0.202460     0.158467
Rotational constants in MHz : 21750.250450  6069.606371  4750.729921

                             ****ORCA TERMINATED NORMALLY****
TOTAL RUN TIME: 0 days 0 hours 0 minutes 9 seconds 269 msec
