                         Program Version 5.0.3 -  RELEASE  -
|  1> ! HF-3c
|  2> !TightSCF
|  3> %scf
|  4>  ConvForced true
|  5>  convergence tight
|  6>  MaxIter 500
|  7> end
|  8>
|  9> %tddft
| 10>  nroots 1
| 11> end
| 12>
| 13> # 	32466
| 14> * xyz 0 1
| 15> 		C   -0.564575  -0.411354   0.012104
| 16> 		O   -0.579574  -1.688277  -0.003010
| 17> 		C    0.601769   0.455030  -0.022724
| 18> 		C    1.846231  -0.121292   0.013774
| 19> 		H   -1.501118   0.136314   0.018630
| 20> 		H    0.576459   1.581878   0.031654
| 21> 		H    1.792788  -1.194761  -0.053819
| 22> 		H    2.869651   0.433657   0.016349
| 23> *
| 24>
| 25>                          ****END OF INPUT****

CARTESIAN COORDINATES (ANGSTROEM)
---------------------------------
  C     -0.564575   -0.411354    0.012104
  O     -0.579574   -1.688277   -0.003010
  C      0.601769    0.455030   -0.022724
  C      1.846231   -0.121292    0.013774
  H     -1.501118    0.136314    0.018630
  H      0.576459    1.581878    0.031654
  H      1.792788   -1.194761   -0.053819
  H      2.869651    0.433657    0.016349

 Total Charge           Charge          ....    0
 Multiplicity           Mult            ....    1
 Number of Electrons    NEL             ....   30
 Basis Dimension        Dim             ....   24

ORBITAL ENERGIES
----------------

  NO   OCC          E(Eh)            E(eV)
   0   2.0000     -20.340862      -553.5030
   1   2.0000     -11.282119      -307.0021
   2   2.0000     -11.191166      -304.5271
   3   2.0000     -11.182767      -304.2986
   4   2.0000      -1.350229       -36.7416
   5   2.0000      -1.071055       -29.1449
   6   2.0000      -0.891610       -24.2619
   7   2.0000      -0.737428       -20.0664
   8   2.0000      -0.693266       -18.8647
   9   2.0000      -0.593817       -16.1586
  10   2.0000      -0.573349       -15.6016
  11   2.0000      -0.519299       -14.1308
  12   2.0000      -0.515949       -14.0397
  13   2.0000      -0.416048       -11.3212
  14   2.0000      -0.374924       -10.2022
  15   0.0000       0.113741         3.0951
  16   0.0000       0.299953         8.1621
  17   0.0000       0.530205        14.4276
  18   0.0000       0.569931        15.5086
  19   0.0000       0.636595        17.3226

MULLIKEN ATOMIC CHARGES
-----------------------
   0 C :    0.139372
   1 O :   -0.350168
   2 C :   -0.186889
   3 C :   -0.196120
   4 H :    0.136792
   5 H :    0.145720
   6 H :    0.158441
   7 H :    0.152852
Sum of atomic charges:    0.0000000

LOEWDIN ATOMIC CHARGES
----------------------
   0 C :    0.142239
   1 O :   -0.277732
   2 C :   -0.147923
   3 C :   -0.096486
   4 H :    0.073515
   5 H :    0.096931
   6 H :    0.102596
   7 H :    0.106860

  Mayer bond orders larger than 0.100000
B(  0-C ,  1-O ) :   1.8755 B(  0-C ,  2-C ) :   1.0664 B(  0-C ,  4-H ) :   0.9342
B(  2-C ,  3-C ) :   1.9038 B(  2-C ,  5-H ) :   0.9587 B(  3-C ,  6-H ) :   0.9585
B(  3-C ,  7-H ) :   0.9629

-----------------------------------------------------------------------------
         ABSORPTION SPECTRUM VIA TRANSITION ELECTRIC DIPOLE MOMENTS
-----------------------------------------------------------------------------
State   Energy    Wavelength  fosc         T2        TX        TY        TZ
        (cm-1)      (nm)                 (au**2)    (au)      (au)      (au)
-----------------------------------------------------------------------------
   1   29507.4    338.9   0.000042237   0.00047  -0.01623  -0.00039  -0.01441

Dispersion correction           -0.025663711
FINAL SINGLE POINT ENERGY      -189.341175201300

DIPOLE MOMENT
-------------
                                X             Y             Z
Electronic contribution:     -1.86759      -1.66386       0.00368
Nuclear contribution   :      2.34787       2.68588       0.01180
                        -----------------------------------------
Total Dipole Moment    :      0.48029       1.02202       0.01548
                        -----------------------------------------
Magnitude (a.u.)       :      1.12935
Magnitude (Debye)      :      2.87059

Rotational constants in cm-1:     0.725339     0.206368     0.160704
Rotational constants in MHz : 21745.124061  6186.757167  4817.794914

                             ****ORCA TERMINATED NORMALLY****
TOTAL RUN TIME: 0 days 0 hours 0 minutes 12 seconds 848 msec
