                         Program Version 5.0.3 -  RELEASE  -
|  1> ! HF-3c
|  2> !TightSCF
|  3> %scf
|  4>  ConvForced true
|  5>  convergence tight
|  6>  MaxIter 500
|  7> end
|  8>
|  9> %tddft
| 10>  nroots 1
| 11> end
| 12>
| 13> # 	23109
| 14> * xyz 0 1
| 15> 		C   -0.562572  -0.406463   0.012614
| 16> 		O   -0.576694  -1.665669   0.001638
| 17> 		C    0.597179   0.452693   0.033889
| 18> 		C    1.859344  -0.158337  -0.033314
| 19> 		H   -1.563613   0.166613  -0.169160
| 20> 		H    0.358338   1.614788  -0.145275
| 21> 		H    2.100189  -1.197223  -0.047200
| 22> 		H    2.658550   0.482150   0.185381
| 23> *
| 24>
| 25>                          ****END OF INPUT****

CARTESIAN COORDINATES (ANGSTROEM)
---------------------------------
  C     -0.562572   -0.406463    0.012614
  O     -0.576694   -1.665669    0.001638
  C      0.597179    0.452693    0.033889
  C      1.859344   -0.158337   -0.033314
  H     -1.563613    0.166613   -0.169160
  H      0.358338    1.614788   -0.145275
  H      2.100189   -1.197223   -0.047200
  H      2.658550    0.482150    0.185381

 Total Charge           Charge          ....    0
 Multiplicity           Mult            ....    1
 Number of Electrons    NEL             ....   30
 Basis Dimension        Dim             ....   24

ORBITAL ENERGIES
----------------

  NO   OCC          E(Eh)            E(eV)
   0   2.0000     -20.338698      -553.4441
   1   2.0000     -11.274117      -306.7843
   2   2.0000     -11.195060      -304.6331
   3   2.0000     -11.189372      -304.4783
   4   2.0000      -1.355931       -36.8968
   5   2.0000      -1.062962       -28.9247
   6   2.0000      -0.897523       -24.4228
   7   2.0000      -0.729645       -19.8546
   8   2.0000      -0.678859       -18.4727
   9   2.0000      -0.607015       -16.5177
  10   2.0000      -0.570528       -15.5248
  11   2.0000      -0.528663       -14.3857
  12   2.0000      -0.513243       -13.9660
  13   2.0000      -0.404286       -11.0012
  14   2.0000      -0.367316        -9.9952
  15   0.0000       0.107091         2.9141
  16   0.0000       0.295077         8.0295
  17   0.0000       0.495363        13.4795
  18   0.0000       0.589856        16.0508
  19   0.0000       0.633126        17.2282

MULLIKEN ATOMIC CHARGES
-----------------------
   0 C :    0.147463
   1 O :   -0.354631
   2 C :   -0.160134
   3 C :   -0.214862
   4 H :    0.126023
   5 H :    0.151807
   6 H :    0.163328
   7 H :    0.141005
Sum of atomic charges:    0.0000000

LOEWDIN ATOMIC CHARGES
----------------------
   0 C :    0.136274
   1 O :   -0.275988
   2 C :   -0.125750
   3 C :   -0.107730
   4 H :    0.070622
   5 H :    0.107904
   6 H :    0.106430
   7 H :    0.088237

  Mayer bond orders larger than 0.100000
B(  0-C ,  1-O ) :   1.8733 B(  0-C ,  2-C ) :   1.0697 B(  0-C ,  4-H ) :   0.9256
B(  2-C ,  3-C ) :   1.9012 B(  2-C ,  5-H ) :   0.9552 B(  3-C ,  6-H ) :   0.9618
B(  3-C ,  7-H ) :   0.9693

-----------------------------------------------------------------------------
         ABSORPTION SPECTRUM VIA TRANSITION ELECTRIC DIPOLE MOMENTS
-----------------------------------------------------------------------------
State   Energy    Wavelength  fosc         T2        TX        TY        TZ
        (cm-1)      (nm)                 (au**2)    (au)      (au)      (au)
-----------------------------------------------------------------------------
   1   28711.9    348.3   0.000091555   0.00105   0.02726   0.00650  -0.01626

Dispersion correction           -0.025188121
FINAL SINGLE POINT ENERGY      -189.325911381539

DIPOLE MOMENT
-------------
                                X             Y             Z
Electronic contribution:     -1.79357      -1.73311       0.12653
Nuclear contribution   :      2.17589       2.78484      -0.16580
                        -----------------------------------------
Total Dipole Moment    :      0.38231       1.05172      -0.03928
                        -----------------------------------------
Magnitude (a.u.)       :      1.11974
Magnitude (Debye)      :      2.84616

Rotational constants in cm-1:     0.684369     0.210668     0.161440
Rotational constants in MHz : 20516.872828  6315.661292  4839.858349

                             ****ORCA TERMINATED NORMALLY****
TOTAL RUN TIME: 0 days 0 hours 0 minutes 11 seconds 173 msec
