                         Program Version 5.0.3 -  RELEASE  -
|  1> ! HF-3c
|  2> !TightSCF
|  3> %scf
|  4>  ConvForced true
|  5>  convergence tight
|  6>  MaxIter 500
|  7> end
|  8>
|  9> %tddft
| 10>  nroots 1
| 11> end
| 12>
| 13> # 	3294
| 14> * xyz 0 1
| 15> 		C   -1.129815  -0.274347   0.101786
| 16> 		O   -2.027285  -0.523859   0.928236
| 17> 		C    0.078936   0.442021   0.308510
| 18> 		C    1.260501   0.106767  -0.284393
| 19> 		H   -1.411743  -0.838045  -0.999868
| 20> 		H   -0.059257   1.092038   1.011447
| 21> 		H    1.211053  -0.644802  -1.049026
| 22> 		H    2.043704   0.623384   0.037207
| 23> *
| 24>
| 25>                          ****END OF INPUT****

CARTESIAN COORDINATES (ANGSTROEM)
---------------------------------
  C     -1.129815   -0.274347    0.101786
  O     -2.027285   -0.523859    0.928236
  C      0.078936    0.442021    0.308510
  C      1.260501    0.106767   -0.284393
  H     -1.411743   -0.838045   -0.999868
  H     -0.059257    1.092038    1.011447
  H      1.211053   -0.644802   -1.049026
  H      2.043704    0.623384    0.037207

 Total Charge           Charge          ....    0
 Multiplicity           Mult            ....    1
 Number of Electrons    NEL             ....   30
 Basis Dimension        Dim             ....   24

ORBITAL ENERGIES
----------------

  NO   OCC          E(Eh)            E(eV)
   0   2.0000     -20.345969      -553.6420
   1   2.0000     -11.280942      -306.9700
   2   2.0000     -11.213692      -305.1401
   3   2.0000     -11.209504      -305.0261
   4   2.0000      -1.371057       -37.3083
   5   2.0000      -1.105646       -30.0862
   6   2.0000      -0.909860       -24.7585
   7   2.0000      -0.774856       -21.0849
   8   2.0000      -0.676178       -18.3997
   9   2.0000      -0.652007       -17.7420
  10   2.0000      -0.588083       -16.0026
  11   2.0000      -0.566477       -15.4146
  12   2.0000      -0.515195       -14.0192
  13   2.0000      -0.402070       -10.9409
  14   2.0000      -0.391366       -10.6496
  15   0.0000       0.115637         3.1466
  16   0.0000       0.280570         7.6347
  17   0.0000       0.491515        13.3748
  18   0.0000       0.617279        16.7970
  19   0.0000       0.668209        18.1829

MULLIKEN ATOMIC CHARGES
-----------------------
   0 C :    0.167773
   1 O :   -0.352485
   2 C :   -0.188919
   3 C :   -0.228706
   4 H :    0.127251
   5 H :    0.158436
   6 H :    0.159949
   7 H :    0.156701
Sum of atomic charges:    0.0000000

LOEWDIN ATOMIC CHARGES
----------------------
   0 C :    0.142370
   1 O :   -0.270183
   2 C :   -0.126201
   3 C :   -0.118497
   4 H :    0.078308
   5 H :    0.092448
   6 H :    0.105910
   7 H :    0.095844

  Mayer bond orders larger than 0.100000
B(  0-C ,  1-O ) :   1.8929 B(  0-C ,  2-C ) :   1.0561 B(  0-C ,  4-H ) :   0.9152
B(  2-C ,  3-C ) :   1.9271 B(  2-C ,  5-H ) :   0.9560 B(  3-C ,  6-H ) :   0.9631
B(  3-C ,  7-H ) :   0.9661

-----------------------------------------------------------------------------
         ABSORPTION SPECTRUM VIA TRANSITION ELECTRIC DIPOLE MOMENTS
-----------------------------------------------------------------------------
State   Energy    Wavelength  fosc         T2        TX        TY        TZ
        (cm-1)      (nm)                 (au**2)    (au)      (au)      (au)
-----------------------------------------------------------------------------
   1   29587.7    338.0   0.000093198   0.00104  -0.01022  -0.02952  -0.00781

Dispersion correction           -0.025661107
FINAL SINGLE POINT ENERGY      -189.300591576009

DIPOLE MOMENT
-------------
                                X             Y             Z
Electronic contribution:     -2.58353      -0.36277       1.25895
Nuclear contribution   :      3.53307       0.53640      -1.95652
                        -----------------------------------------
Total Dipole Moment    :      0.94954       0.17363      -0.69757
                        -----------------------------------------
Magnitude (a.u.)       :      1.19096
Magnitude (Debye)      :      3.02717

Rotational constants in cm-1:     1.472929     0.154173     0.144090
Rotational constants in MHz : 44157.287703  4621.995461  4319.712904

                             ****ORCA TERMINATED NORMALLY****
TOTAL RUN TIME: 0 days 0 hours 0 minutes 16 seconds 117 msec
