                         Program Version 5.0.3 -  RELEASE  -
|  1> ! B3LYP cc-pVDZ
|  2> !TightSCF
|  3> %scf
|  4>  ConvForced true
|  5>  convergence tight
|  6>  MaxIter 500
|  7> end
|  8>
|  9> %tddft
| 10>  nroots 1
| 11> end
| 12>
| 13> # 	24375
| 14> * xyz 0 1
| 15> 		C   -0.584792  -0.412742  -0.010549
| 16> 		O   -0.583879  -1.661817   0.007742
| 17> 		C    0.654704   0.436381  -0.020263
| 18> 		C    1.846784  -0.123607   0.005683
| 19> 		H   -1.586574   0.166637   0.007329
| 20> 		H    0.302274   1.352394   0.193568
| 21> 		H    1.920471  -1.266189   0.025261
| 22> 		H    2.736567   0.574643  -0.044011
| 23> *
| 24>
| 25>                          ****END OF INPUT****

CARTESIAN COORDINATES (ANGSTROEM)
---------------------------------
  C     -0.584792   -0.412742   -0.010549
  O     -0.583879   -1.661817    0.007742
  C      0.654704    0.436381   -0.020263
  C      1.846784   -0.123607    0.005683
  H     -1.586574    0.166637    0.007329
  H      0.302274    1.352394    0.193568
  H      1.920471   -1.266189    0.025261
  H      2.736567    0.574643   -0.044011

 Total Charge           Charge          ....    0
 Multiplicity           Mult            ....    1
 Number of Electrons    NEL             ....   30
 Basis Dimension        Dim             ....   76

ORBITAL ENERGIES
----------------

  NO   OCC          E(Eh)            E(eV)
   0   2.0000     -19.138574      -520.7871
   1   2.0000     -10.278259      -279.6857
   2   2.0000     -10.222622      -278.1717
   3   2.0000     -10.198622      -277.5186
   4   2.0000      -1.023697       -27.8562
   5   2.0000      -0.801213       -21.8021
   6   2.0000      -0.660193       -17.9648
   7   2.0000      -0.536470       -14.5981
   8   2.0000      -0.502290       -13.6680
   9   2.0000      -0.449544       -12.2327
  10   2.0000      -0.418741       -11.3945
  11   2.0000      -0.390589       -10.6285
  12   2.0000      -0.375191       -10.2095
  13   2.0000      -0.290419        -7.9027
  14   2.0000      -0.253482        -6.8976
  15   0.0000      -0.073544        -2.0012
  16   0.0000       0.051806         1.4097
  17   0.0000       0.066812         1.8180
  18   0.0000       0.079118         2.1529
  19   0.0000       0.124621         3.3911

MULLIKEN ATOMIC CHARGES
-----------------------
   0 C :    0.136483
   1 O :   -0.221114
   2 C :   -0.027086
   3 C :    0.051841
   4 H :   -0.005129
   5 H :   -0.047002
   6 H :    0.064827
   7 H :    0.047180
Sum of atomic charges:   -0.0000000

LOEWDIN ATOMIC CHARGES
----------------------
   0 C :   -0.008992
   1 O :   -0.043720
   2 C :   -0.074166
   3 C :    0.021516
   4 H :    0.002798
   5 H :    0.005843
   6 H :    0.052733
   7 H :    0.043989

  Mayer bond orders larger than 0.100000
B(  0-C ,  1-O ) :   2.1463 B(  0-C ,  2-C ) :   1.0657 B(  0-C ,  4-H ) :   0.9083
B(  2-C ,  3-C ) :   1.9534 B(  2-C ,  5-H ) :   0.9561 B(  3-C ,  6-H ) :   0.9180
B(  3-C ,  7-H ) :   0.9362

-----------------------------------------------------------------------------
         ABSORPTION SPECTRUM VIA TRANSITION ELECTRIC DIPOLE MOMENTS
-----------------------------------------------------------------------------
State   Energy    Wavelength  fosc         T2        TX        TY        TZ
        (cm-1)      (nm)                 (au**2)    (au)      (au)      (au)
-----------------------------------------------------------------------------
   1   26486.9    377.5   0.000242384   0.00301   0.03279   0.01148   0.04249

FINAL SINGLE POINT ENERGY      -191.667017538780

DIPOLE MOMENT
-------------
                                X             Y             Z
Electronic contribution:     -1.61374      -1.63281      -0.13180
Nuclear contribution   :      2.00784       2.56306       0.17062
                        -----------------------------------------
Total Dipole Moment    :      0.39409       0.93024       0.03882
                        -----------------------------------------
Magnitude (a.u.)       :      1.01102
Magnitude (Debye)      :      2.56982

Rotational constants in cm-1:     0.743936     0.207184     0.162202
Rotational constants in MHz : 22302.626626  6211.216446  4862.698991

                             ****ORCA TERMINATED NORMALLY****
TOTAL RUN TIME: 0 days 0 hours 2 minutes 55 seconds 124 msec
