                         Program Version 5.0.3 -  RELEASE  -
|  1> ! HF-3c
|  2> !TightSCF
|  3> %scf
|  4>  ConvForced true
|  5>  convergence tight
|  6>  MaxIter 500
|  7> end
|  8>
|  9> %tddft
| 10>  nroots 1
| 11> end
| 12>
| 13> # 	7337
| 14> * xyz 0 1
| 15> 		C   -1.156847  -0.449830  -0.047283
| 16> 		O   -2.120158  -0.470510  -0.695207
| 17> 		C    0.046100   0.425733  -0.332388
| 18> 		C    1.245172   0.109620   0.214500
| 19> 		H   -1.133282  -1.051255   0.737028
| 20> 		H   -0.023560   1.533342  -0.862436
| 21> 		H    1.233021  -0.814666   0.995097
| 22> 		H    1.881279   0.718101   0.059284
| 23> *
| 24>
| 25>                          ****END OF INPUT****

CARTESIAN COORDINATES (ANGSTROEM)
---------------------------------
  C     -1.156847   -0.449830   -0.047283
  O     -2.120158   -0.470510   -0.695207
  C      0.046100    0.425733   -0.332388
  C      1.245172    0.109620    0.214500
  H     -1.133282   -1.051255    0.737028
  H     -0.023560    1.533342   -0.862436
  H      1.233021   -0.814666    0.995097
  H      1.881279    0.718101    0.059284

 Total Charge           Charge          ....    0
 Multiplicity           Mult            ....    1
 Number of Electrons    NEL             ....   30
 Basis Dimension        Dim             ....   24

ORBITAL ENERGIES
----------------

  NO   OCC          E(Eh)            E(eV)
   0   2.0000     -20.390918      -554.8651
   1   2.0000     -11.317686      -307.9699
   2   2.0000     -11.187001      -304.4138
   3   2.0000     -11.183074      -304.3069
   4   2.0000      -1.449810       -39.4513
   5   2.0000      -1.079649       -29.3787
   6   2.0000      -0.895714       -24.3736
   7   2.0000      -0.793195       -21.5839
   8   2.0000      -0.669795       -18.2261
   9   2.0000      -0.662556       -18.0291
  10   2.0000      -0.597019       -16.2457
  11   2.0000      -0.566903       -15.4262
  12   2.0000      -0.515929       -14.0391
  13   2.0000      -0.421341       -11.4653
  14   2.0000      -0.393863       -10.7176
  15   0.0000       0.141219         3.8428
  16   0.0000       0.285251         7.7621
  17   0.0000       0.498369        13.5613
  18   0.0000       0.511705        13.9242
  19   0.0000       0.662602        18.0303

MULLIKEN ATOMIC CHARGES
-----------------------
   0 C :    0.155244
   1 O :   -0.344308
   2 C :   -0.125712
   3 C :   -0.273632
   4 H :    0.138826
   5 H :    0.157756
   6 H :    0.155665
   7 H :    0.136161
Sum of atomic charges:    0.0000000

LOEWDIN ATOMIC CHARGES
----------------------
   0 C :    0.135046
   1 O :   -0.232168
   2 C :   -0.095937
   3 C :   -0.173510
   4 H :    0.063842
   5 H :    0.114552
   6 H :    0.114742
   7 H :    0.073434

  Mayer bond orders larger than 0.100000
B(  0-C ,  1-O ) :   1.9230 B(  0-C ,  2-C ) :   0.9982 B(  0-C ,  4-H ) :   0.9314
B(  2-C ,  3-C ) :   1.9639 B(  2-C ,  5-H ) :   0.9502 B(  3-C ,  6-H ) :   0.9584
B(  3-C ,  7-H ) :   0.9731

-----------------------------------------------------------------------------
         ABSORPTION SPECTRUM VIA TRANSITION ELECTRIC DIPOLE MOMENTS
-----------------------------------------------------------------------------
State   Energy    Wavelength  fosc         T2        TX        TY        TZ
        (cm-1)      (nm)                 (au**2)    (au)      (au)      (au)
-----------------------------------------------------------------------------
   1   35079.3    285.1   0.000009946   0.00009  -0.00747   0.00555   0.00259

Dispersion correction           -0.025514773
FINAL SINGLE POINT ENERGY      -189.237652257036

DIPOLE MOMENT
-------------
                                X             Y             Z
Electronic contribution:     -3.07594      -0.64211      -1.13898
Nuclear contribution   :      3.84344       0.76545       1.67909
                        -----------------------------------------
Total Dipole Moment    :      0.76750       0.12334       0.54011
                        -----------------------------------------
Magnitude (a.u.)       :      0.94657
Magnitude (Debye)      :      2.40598

Rotational constants in cm-1:     1.439581     0.157322     0.143378
Rotational constants in MHz : 43157.565527  4716.406920  4298.372355

                             ****ORCA TERMINATED NORMALLY****
TOTAL RUN TIME: 0 days 0 hours 0 minutes 9 seconds 476 msec
