                         Program Version 5.0.3 -  RELEASE  -
|  1> ! B3LYP cc-pVDZ
|  2> !TightSCF
|  3> %scf
|  4>  ConvForced true
|  5>  convergence tight
|  6>  MaxIter 500
|  7> end
|  8>
|  9> %tddft
| 10>  nroots 1
| 11> end
| 12>
| 13> # 	25568
| 14> * xyz 0 1
| 15> 		C   -0.598294  -0.449893   0.026111
| 16> 		O   -0.548721  -1.604545  -0.030476
| 17> 		C    0.633412   0.448021  -0.002122
| 18> 		C    1.823075  -0.147139   0.037313
| 19> 		H   -1.497016   0.074003   0.165697
| 20> 		H    0.422063   1.405504  -0.266052
| 21> 		H    1.778381  -1.401401   0.075372
| 22> 		H    2.805691   0.397165  -0.250704
| 23> *
| 24>
| 25>                          ****END OF INPUT****

CARTESIAN COORDINATES (ANGSTROEM)
---------------------------------
  C     -0.598294   -0.449893    0.026111
  O     -0.548721   -1.604545   -0.030476
  C      0.633412    0.448021   -0.002122
  C      1.823075   -0.147139    0.037313
  H     -1.497016    0.074003    0.165697
  H      0.422063    1.405504   -0.266052
  H      1.778381   -1.401401    0.075372
  H      2.805691    0.397165   -0.250704

 Total Charge           Charge          ....    0
 Multiplicity           Mult            ....    1
 Number of Electrons    NEL             ....   30
 Basis Dimension        Dim             ....   76

ORBITAL ENERGIES
----------------

  NO   OCC          E(Eh)            E(eV)
   0   2.0000     -19.140145      -520.8298
   1   2.0000     -10.266738      -279.3721
   2   2.0000     -10.221919      -278.1526
   3   2.0000     -10.190983      -277.3107
   4   2.0000      -1.079316       -29.3697
   5   2.0000      -0.785895       -21.3853
   6   2.0000      -0.646364       -17.5884
   7   2.0000      -0.541969       -14.7477
   8   2.0000      -0.508408       -13.8345
   9   2.0000      -0.448537       -12.2053
  10   2.0000      -0.432179       -11.7602
  11   2.0000      -0.410611       -11.1733
  12   2.0000      -0.362370        -9.8606
  13   2.0000      -0.285515        -7.7693
  14   2.0000      -0.255987        -6.9658
  15   0.0000      -0.058317        -1.5869
  16   0.0000       0.056380         1.5342
  17   0.0000       0.074203         2.0192
  18   0.0000       0.077340         2.1045
  19   0.0000       0.128590         3.4991

MULLIKEN ATOMIC CHARGES
-----------------------
   0 C :    0.196401
   1 O :   -0.146824
   2 C :   -0.066306
   3 C :   -0.027966
   4 H :   -0.041141
   5 H :   -0.040538
   6 H :    0.074614
   7 H :    0.051760
Sum of atomic charges:   -0.0000000

LOEWDIN ATOMIC CHARGES
----------------------
   0 C :   -0.049675
   1 O :    0.054603
   2 C :   -0.081778
   3 C :   -0.012258
   4 H :   -0.018215
   5 H :    0.003437
   6 H :    0.061515
   7 H :    0.042372

  Mayer bond orders larger than 0.100000
B(  0-C ,  1-O ) :   2.2502 B(  0-C ,  2-C ) :   1.0244 B(  0-C ,  4-H ) :   0.9210
B(  2-C ,  3-C ) :   1.9675 B(  2-C ,  5-H ) :   0.9545 B(  3-C ,  6-H ) :   0.9068
B(  3-C ,  7-H ) :   0.9407

-----------------------------------------------------------------------------
         ABSORPTION SPECTRUM VIA TRANSITION ELECTRIC DIPOLE MOMENTS
-----------------------------------------------------------------------------
State   Energy    Wavelength  fosc         T2        TX        TY        TZ
        (cm-1)      (nm)                 (au**2)    (au)      (au)      (au)
-----------------------------------------------------------------------------
   1   30633.1    326.4   0.000361389   0.00388  -0.04986  -0.02038   0.03134

FINAL SINGLE POINT ENERGY      -191.636105183284

DIPOLE MOMENT
-------------
                                X             Y             Z
Electronic contribution:     -1.95208      -1.45078       0.17797
Nuclear contribution   :      2.13649       2.23533      -0.25713
                        -----------------------------------------
Total Dipole Moment    :      0.18441       0.78455      -0.07916
                        -----------------------------------------
Magnitude (a.u.)       :      0.80981
Magnitude (Debye)      :      2.05837

Rotational constants in cm-1:     0.756086     0.216742     0.169156
Rotational constants in MHz : 22666.879500  6497.773099  5071.162535

                             ****ORCA TERMINATED NORMALLY****
TOTAL RUN TIME: 0 days 0 hours 3 minutes 21 seconds 230 msec
