                         Program Version 5.0.3 -  RELEASE  -
|  1> ! HF-3c
|  2> !TightSCF
|  3> %scf
|  4>  ConvForced true
|  5>  convergence tight
|  6>  MaxIter 500
|  7> end
|  8>
|  9> %tddft
| 10>  nroots 1
| 11> end
| 12>
| 13> # 	27284
| 14> * xyz 0 1
| 15> 		C   -0.591160  -0.396717   0.065138
| 16> 		O   -0.577815  -1.638415  -0.027544
| 17> 		C    0.596210   0.417368  -0.012367
| 18> 		C    1.869136  -0.128546  -0.015177
| 19> 		H   -1.489379  -0.090791  -0.133541
| 20> 		H    0.584567   1.414417  -0.094547
| 21> 		H    2.054458  -1.223139   0.183345
| 22> 		H    2.648654   0.425048   0.030151
| 23> *
| 24>
| 25>                          ****END OF INPUT****

CARTESIAN COORDINATES (ANGSTROEM)
---------------------------------
  C     -0.591160   -0.396717    0.065138
  O     -0.577815   -1.638415   -0.027544
  C      0.596210    0.417368   -0.012367
  C      1.869136   -0.128546   -0.015177
  H     -1.489379   -0.090791   -0.133541
  H      0.584567    1.414417   -0.094547
  H      2.054458   -1.223139    0.183345
  H      2.648654    0.425048    0.030151

 Total Charge           Charge          ....    0
 Multiplicity           Mult            ....    1
 Number of Electrons    NEL             ....   30
 Basis Dimension        Dim             ....   24

ORBITAL ENERGIES
----------------

  NO   OCC          E(Eh)            E(eV)
   0   2.0000     -20.356427      -553.9265
   1   2.0000     -11.293417      -307.3095
   2   2.0000     -11.202834      -304.8446
   3   2.0000     -11.200971      -304.7939
   4   2.0000      -1.385421       -37.6992
   5   2.0000      -1.083594       -29.4861
   6   2.0000      -0.920059       -25.0361
   7   2.0000      -0.794538       -21.6205
   8   2.0000      -0.727335       -19.7918
   9   2.0000      -0.623519       -16.9668
  10   2.0000      -0.598353       -16.2820
  11   2.0000      -0.544922       -14.8281
  12   2.0000      -0.533336       -14.5128
  13   2.0000      -0.430697       -11.7199
  14   2.0000      -0.383241       -10.4285
  15   0.0000       0.103956         2.8288
  16   0.0000       0.285014         7.7556
  17   0.0000       0.593097        16.1390
  18   0.0000       0.642778        17.4909
  19   0.0000       0.668653        18.1950

MULLIKEN ATOMIC CHARGES
-----------------------
   0 C :    0.112227
   1 O :   -0.329010
   2 C :   -0.180223
   3 C :   -0.208176
   4 H :    0.151355
   5 H :    0.148912
   6 H :    0.164734
   7 H :    0.140181
Sum of atomic charges:   -0.0000000

LOEWDIN ATOMIC CHARGES
----------------------
   0 C :    0.119268
   1 O :   -0.247895
   2 C :   -0.126873
   3 C :   -0.101123
   4 H :    0.075331
   5 H :    0.088828
   6 H :    0.112593
   7 H :    0.079873

  Mayer bond orders larger than 0.100000
B(  0-C ,  1-O ) :   1.8742 B(  0-C ,  2-C ) :   1.0651 B(  0-C ,  4-H ) :   0.9478
B(  2-C ,  3-C ) :   1.9122 B(  2-C ,  5-H ) :   0.9626 B(  3-C ,  6-H ) :   0.9609
B(  3-C ,  7-H ) :   0.9725

-----------------------------------------------------------------------------
         ABSORPTION SPECTRUM VIA TRANSITION ELECTRIC DIPOLE MOMENTS
-----------------------------------------------------------------------------
State   Energy    Wavelength  fosc         T2        TX        TY        TZ
        (cm-1)      (nm)                 (au**2)    (au)      (au)      (au)
-----------------------------------------------------------------------------
   1   27715.5    360.8   0.000021952   0.00026   0.00122   0.00693   0.01454

Dispersion correction           -0.025925724
FINAL SINGLE POINT ENERGY      -189.304451319710

DIPOLE MOMENT
-------------
                                X             Y             Z
Electronic contribution:     -2.02415      -1.47750       0.06053
Nuclear contribution   :      2.40614       2.28181      -0.01384
                        -----------------------------------------
Total Dipole Moment    :      0.38200       0.80431       0.04669
                        -----------------------------------------
Magnitude (a.u.)       :      0.89163
Magnitude (Debye)      :      2.26635

Rotational constants in cm-1:     0.759075     0.209733     0.164745
Rotational constants in MHz : 22756.508825  6287.644702  4938.918415

                             ****ORCA TERMINATED NORMALLY****
TOTAL RUN TIME: 0 days 0 hours 0 minutes 12 seconds 931 msec
