                         Program Version 5.0.3 -  RELEASE  -
|  1> ! HF-3c
|  2> !TightSCF
|  3> %scf
|  4>  ConvForced true
|  5>  convergence tight
|  6>  MaxIter 500
|  7> end
|  8>
|  9> %tddft
| 10>  nroots 1
| 11> end
| 12>
| 13> # 	22074
| 14> * xyz 0 1
| 15> 		C   -0.569039  -0.432750   0.027421
| 16> 		O   -0.641759  -1.704371  -0.005422
| 17> 		C    0.641174   0.422187  -0.055020
| 18> 		C    1.894313  -0.028483   0.041611
| 19> 		H   -1.621176  -0.001269  -0.015426
| 20> 		H    0.540650   1.478072   0.145326
| 21> 		H    1.974655  -1.143286  -0.132690
| 22> 		H    2.833189   0.400582  -0.073996
| 23> *
| 24>
| 25>                          ****END OF INPUT****

CARTESIAN COORDINATES (ANGSTROEM)
---------------------------------
  C     -0.569039   -0.432750    0.027421
  O     -0.641759   -1.704371   -0.005422
  C      0.641174    0.422187   -0.055020
  C      1.894313   -0.028483    0.041611
  H     -1.621176   -0.001269   -0.015426
  H      0.540650    1.478072    0.145326
  H      1.974655   -1.143286   -0.132690
  H      2.833189    0.400582   -0.073996

 Total Charge           Charge          ....    0
 Multiplicity           Mult            ....    1
 Number of Electrons    NEL             ....   30
 Basis Dimension        Dim             ....   24

ORBITAL ENERGIES
----------------

  NO   OCC          E(Eh)            E(eV)
   0   2.0000     -20.344322      -553.5972
   1   2.0000     -11.280935      -306.9699
   2   2.0000     -11.199312      -304.7488
   3   2.0000     -11.196054      -304.6601
   4   2.0000      -1.354130       -36.8478
   5   2.0000      -1.081866       -29.4391
   6   2.0000      -0.890416       -24.2295
   7   2.0000      -0.753672       -20.5085
   8   2.0000      -0.695066       -18.9137
   9   2.0000      -0.622920       -16.9505
  10   2.0000      -0.576125       -15.6771
  11   2.0000      -0.517029       -14.0691
  12   2.0000      -0.504770       -13.7355
  13   2.0000      -0.414373       -11.2757
  14   2.0000      -0.391726       -10.6594
  15   0.0000       0.114807         3.1241
  16   0.0000       0.291623         7.9355
  17   0.0000       0.502336        13.6693
  18   0.0000       0.592608        16.1257
  19   0.0000       0.644553        17.5392

MULLIKEN ATOMIC CHARGES
-----------------------
   0 C :    0.141618
   1 O :   -0.342495
   2 C :   -0.181619
   3 C :   -0.213269
   4 H :    0.144949
   5 H :    0.146200
   6 H :    0.152528
   7 H :    0.152087
Sum of atomic charges:    0.0000000

LOEWDIN ATOMIC CHARGES
----------------------
   0 C :    0.135860
   1 O :   -0.267305
   2 C :   -0.133600
   3 C :   -0.111280
   4 H :    0.085257
   5 H :    0.092904
   6 H :    0.102405
   7 H :    0.095760

  Mayer bond orders larger than 0.100000
B(  0-C ,  1-O ) :   1.8926 B(  0-C ,  2-C ) :   1.0400 B(  0-C ,  4-H ) :   0.9351
B(  2-C ,  3-C ) :   1.9345 B(  2-C ,  5-H ) :   0.9560 B(  3-C ,  6-H ) :   0.9580
B(  3-C ,  7-H ) :   0.9657

-----------------------------------------------------------------------------
         ABSORPTION SPECTRUM VIA TRANSITION ELECTRIC DIPOLE MOMENTS
-----------------------------------------------------------------------------
State   Energy    Wavelength  fosc         T2        TX        TY        TZ
        (cm-1)      (nm)                 (au**2)    (au)      (au)      (au)
-----------------------------------------------------------------------------
   1   28294.9    353.4   0.000238526   0.00278  -0.04961  -0.00695  -0.01630

Dispersion correction           -0.025124838
FINAL SINGLE POINT ENERGY      -189.337371937130

DIPOLE MOMENT
-------------
                                X             Y             Z
Electronic contribution:     -1.94320      -1.55261       0.07982
Nuclear contribution   :      2.33769       2.47772      -0.07240
                        -----------------------------------------
Total Dipole Moment    :      0.39449       0.92511       0.00742
                        -----------------------------------------
Magnitude (a.u.)       :      1.00574
Magnitude (Debye)      :      2.55639

Rotational constants in cm-1:     0.791820     0.189944     0.153506
Rotational constants in MHz : 23738.176062  5694.369013  4601.984356

                             ****ORCA TERMINATED NORMALLY****
TOTAL RUN TIME: 0 days 0 hours 0 minutes 15 seconds 973 msec
