                         Program Version 5.0.3 -  RELEASE  -
|  1> ! HF-3c
|  2> !TightSCF
|  3> %scf
|  4>  ConvForced true
|  5>  convergence tight
|  6>  MaxIter 500
|  7> end
|  8>
|  9> %tddft
| 10>  nroots 1
| 11> end
| 12>
| 13> # 	10453
| 14> * xyz 0 1
| 15> 		C   -1.215156  -0.401211   0.028580
| 16> 		O   -1.802171  -1.025421   0.874838
| 17> 		C   -0.002409   0.464431   0.216893
| 18> 		C    1.223250   0.071641  -0.106164
| 19> 		H   -1.527151  -0.318574  -0.997198
| 20> 		H   -0.104833   1.576573   0.614118
| 21> 		H    1.372664  -1.004301  -0.588655
| 22> 		H    2.028340   0.657371  -0.044165
| 23> *
| 24>
| 25>                          ****END OF INPUT****

CARTESIAN COORDINATES (ANGSTROEM)
---------------------------------
  C     -1.215156   -0.401211    0.028580
  O     -1.802171   -1.025421    0.874838
  C     -0.002409    0.464431    0.216893
  C      1.223250    0.071641   -0.106164
  H     -1.527151   -0.318574   -0.997198
  H     -0.104833    1.576573    0.614118
  H      1.372664   -1.004301   -0.588655
  H      2.028340    0.657371   -0.044165

 Total Charge           Charge          ....    0
 Multiplicity           Mult            ....    1
 Number of Electrons    NEL             ....   30
 Basis Dimension        Dim             ....   24

ORBITAL ENERGIES
----------------

  NO   OCC          E(Eh)            E(eV)
   0   2.0000     -20.390824      -554.8625
   1   2.0000     -11.310163      -307.7652
   2   2.0000     -11.187541      -304.4285
   3   2.0000     -11.175235      -304.0936
   4   2.0000      -1.416539       -38.5460
   5   2.0000      -1.075269       -29.2596
   6   2.0000      -0.892322       -24.2813
   7   2.0000      -0.758388       -20.6368
   8   2.0000      -0.671618       -18.2757
   9   2.0000      -0.648716       -17.6525
  10   2.0000      -0.611945       -16.6519
  11   2.0000      -0.537176       -14.6173
  12   2.0000      -0.499843       -13.6014
  13   2.0000      -0.420116       -11.4319
  14   2.0000      -0.398622       -10.8471
  15   0.0000       0.179515         4.8849
  16   0.0000       0.224289         6.1032
  17   0.0000       0.523059        14.2332
  18   0.0000       0.557606        15.1732
  19   0.0000       0.668878        18.2011

MULLIKEN ATOMIC CHARGES
-----------------------
   0 C :    0.170837
   1 O :   -0.335432
   2 C :   -0.152752
   3 C :   -0.253654
   4 H :    0.141045
   5 H :    0.155381
   6 H :    0.138224
   7 H :    0.136350
Sum of atomic charges:   -0.0000000

LOEWDIN ATOMIC CHARGES
----------------------
   0 C :    0.155331
   1 O :   -0.236346
   2 C :   -0.115527
   3 C :   -0.165232
   4 H :    0.073709
   5 H :    0.110484
   6 H :    0.096807
   7 H :    0.080775

  Mayer bond orders larger than 0.100000
B(  0-C ,  1-O ) :   1.9559 B(  0-C ,  2-C ) :   0.9820 B(  0-C ,  4-H ) :   0.9188
B(  2-C ,  3-C ) :   2.0030 B(  2-C ,  5-H ) :   0.9410 B(  3-C ,  6-H ) :   0.9616
B(  3-C ,  7-H ) :   0.9679

-----------------------------------------------------------------------------
         ABSORPTION SPECTRUM VIA TRANSITION ELECTRIC DIPOLE MOMENTS
-----------------------------------------------------------------------------
State   Energy    Wavelength  fosc         T2        TX        TY        TZ
        (cm-1)      (nm)                 (au**2)    (au)      (au)      (au)
-----------------------------------------------------------------------------
   1   34685.6    288.3   0.000126221   0.00120  -0.02249  -0.02515  -0.00774

Dispersion correction           -0.024933645
FINAL SINGLE POINT ENERGY      -189.305761859741

DIPOLE MOMENT
-------------
                                X             Y             Z
Electronic contribution:     -2.93444      -1.22700       1.24709
Nuclear contribution   :      3.44615       1.77148      -1.92435
                        -----------------------------------------
Total Dipole Moment    :      0.51171       0.54447      -0.67726
                        -----------------------------------------
Magnitude (a.u.)       :      1.00845
Magnitude (Debye)      :      2.56328

Rotational constants in cm-1:     1.080649     0.158629     0.153087
Rotational constants in MHz : 32397.050000  4755.580660  4589.428536

                             ****ORCA TERMINATED NORMALLY****
TOTAL RUN TIME: 0 days 0 hours 0 minutes 11 seconds 655 msec
