                         Program Version 5.0.3 -  RELEASE  -
|  1> ! B3LYP cc-pVDZ
|  2> !TightSCF
|  3> %scf
|  4>  ConvForced true
|  5>  convergence tight
|  6>  MaxIter 500
|  7> end
|  8>
|  9> %tddft
| 10>  nroots 1
| 11> end
| 12>
| 13> # 	27889
| 14> * xyz 0 1
| 15> 		C   -0.496781  -0.396076  -0.075703
| 16> 		O   -0.585064  -1.670782   0.049361
| 17> 		C    0.640093   0.475084   0.061747
| 18> 		C    1.781234  -0.147008  -0.031138
| 19> 		H   -1.508600   0.122373  -0.251241
| 20> 		H    0.183459   1.510713   0.197910
| 21> 		H    1.869184  -1.365619  -0.224240
| 22> 		H    2.771635   0.329738   0.050678
| 23> *
| 24>
| 25>                          ****END OF INPUT****

CARTESIAN COORDINATES (ANGSTROEM)
---------------------------------
  C     -0.496781   -0.396076   -0.075703
  O     -0.585064   -1.670782    0.049361
  C      0.640093    0.475084    0.061747
  C      1.781234   -0.147008   -0.031138
  H     -1.508600    0.122373   -0.251241
  H      0.183459    1.510713    0.197910
  H      1.869184   -1.365619   -0.224240
  H      2.771635    0.329738    0.050678

 Total Charge           Charge          ....    0
 Multiplicity           Mult            ....    1
 Number of Electrons    NEL             ....   30
 Basis Dimension        Dim             ....   76

ORBITAL ENERGIES
----------------

  NO   OCC          E(Eh)            E(eV)
   0   2.0000     -19.132395      -520.6189
   1   2.0000     -10.273388      -279.5531
   2   2.0000     -10.231702      -278.4188
   3   2.0000     -10.215518      -277.9784
   4   2.0000      -1.002386       -27.2763
   5   2.0000      -0.814200       -22.1555
   6   2.0000      -0.663147       -18.0452
   7   2.0000      -0.527629       -14.3575
   8   2.0000      -0.504274       -13.7220
   9   2.0000      -0.452344       -12.3089
  10   2.0000      -0.407965       -11.1013
  11   2.0000      -0.378496       -10.2994
  12   2.0000      -0.363460        -9.8903
  13   2.0000      -0.293469        -7.9857
  14   2.0000      -0.249071        -6.7776
  15   0.0000      -0.075396        -2.0516
  16   0.0000       0.042013         1.1432
  17   0.0000       0.052677         1.4334
  18   0.0000       0.075769         2.0618
  19   0.0000       0.121712         3.3119

MULLIKEN ATOMIC CHARGES
-----------------------
   0 C :    0.152190
   1 O :   -0.252179
   2 C :   -0.063671
   3 C :    0.035732
   4 H :   -0.013535
   5 H :    0.017009
   6 H :    0.089092
   7 H :    0.035362
Sum of atomic charges:   -0.0000000

LOEWDIN ATOMIC CHARGES
----------------------
   0 C :   -0.003283
   1 O :   -0.080647
   2 C :   -0.095502
   3 C :    0.024237
   4 H :    0.001305
   5 H :    0.052434
   6 H :    0.071875
   7 H :    0.029580

  Mayer bond orders larger than 0.100000
B(  0-C ,  1-O ) :   2.1035 B(  0-C ,  2-C ) :   1.0958 B(  0-C ,  4-H ) :   0.9214
B(  1-O ,  3-C ) :   0.1021 B(  2-C ,  3-C ) :   1.9096 B(  2-C ,  5-H ) :   0.9510
B(  3-C ,  6-H ) :   0.9146 B(  3-C ,  7-H ) :   0.9422

-----------------------------------------------------------------------------
         ABSORPTION SPECTRUM VIA TRANSITION ELECTRIC DIPOLE MOMENTS
-----------------------------------------------------------------------------
State   Energy    Wavelength  fosc         T2        TX        TY        TZ
        (cm-1)      (nm)                 (au**2)    (au)      (au)      (au)
-----------------------------------------------------------------------------
   1   25011.5    399.8   0.000180362   0.00237  -0.02412  -0.00680   0.04178

FINAL SINGLE POINT ENERGY      -191.659877761329

DIPOLE MOMENT
-------------
                                X             Y             Z
Electronic contribution:     -1.42161      -1.35497       0.14594
Nuclear contribution   :      1.95309       2.34632      -0.21344
                        -----------------------------------------
Total Dipole Moment    :      0.53148       0.99135      -0.06750
                        -----------------------------------------
Magnitude (a.u.)       :      1.12685
Magnitude (Debye)      :      2.86423

Rotational constants in cm-1:     0.708804     0.217295     0.167371
Rotational constants in MHz : 21249.409104  6514.333094  5017.657522

                             ****ORCA TERMINATED NORMALLY****
TOTAL RUN TIME: 0 days 0 hours 3 minutes 22 seconds 824 msec
