                         Program Version 5.0.3 -  RELEASE  -
|  1> ! HF-3c
|  2> !TightSCF
|  3> %scf
|  4>  ConvForced true
|  5>  convergence tight
|  6>  MaxIter 500
|  7> end
|  8>
|  9> %tddft
| 10>  nroots 1
| 11> end
| 12>
| 13> # 	9025
| 14> * xyz 0 1
| 15> 		C   -1.187160  -0.287930   0.016315
| 16> 		O   -1.265584  -1.475656   0.359118
| 17> 		C    0.013321   0.529967   0.156866
| 18> 		C    1.208217  -0.061951  -0.061053
| 19> 		H   -2.088758   0.326325  -0.287994
| 20> 		H   -0.138731   1.632695   0.128288
| 21> 		H    1.268767  -1.229916  -0.244059
| 22> 		H    2.170652   0.577356  -0.041818
| 23> *
| 24>
| 25>                          ****END OF INPUT****

CARTESIAN COORDINATES (ANGSTROEM)
---------------------------------
  C     -1.187160   -0.287930    0.016315
  O     -1.265584   -1.475656    0.359118
  C      0.013321    0.529967    0.156866
  C      1.208217   -0.061951   -0.061053
  H     -2.088758    0.326325   -0.287994
  H     -0.138731    1.632695    0.128288
  H      1.268767   -1.229916   -0.244059
  H      2.170652    0.577356   -0.041818

 Total Charge           Charge          ....    0
 Multiplicity           Mult            ....    1
 Number of Electrons    NEL             ....   30
 Basis Dimension        Dim             ....   24

ORBITAL ENERGIES
----------------

  NO   OCC          E(Eh)            E(eV)
   0   2.0000     -20.347024      -553.6707
   1   2.0000     -11.282455      -307.0112
   2   2.0000     -11.188608      -304.4575
   3   2.0000     -11.178564      -304.1842
   4   2.0000      -1.373584       -37.3771
   5   2.0000      -1.068896       -29.0861
   6   2.0000      -0.879485       -23.9320
   7   2.0000      -0.723795       -19.6955
   8   2.0000      -0.687097       -18.6969
   9   2.0000      -0.596291       -16.2259
  10   2.0000      -0.578657       -15.7460
  11   2.0000      -0.519103       -14.1255
  12   2.0000      -0.516102       -14.0438
  13   2.0000      -0.405432       -11.0324
  14   2.0000      -0.381493       -10.3810
  15   0.0000       0.134743         3.6665
  16   0.0000       0.293145         7.9769
  17   0.0000       0.525496        14.2995
  18   0.0000       0.553187        15.0530
  19   0.0000       0.627553        17.0766

MULLIKEN ATOMIC CHARGES
-----------------------
   0 C :    0.159395
   1 O :   -0.358236
   2 C :   -0.191530
   3 C :   -0.189595
   4 H :    0.132069
   5 H :    0.142885
   6 H :    0.161545
   7 H :    0.143467
Sum of atomic charges:   -0.0000000

LOEWDIN ATOMIC CHARGES
----------------------
   0 C :    0.147274
   1 O :   -0.273645
   2 C :   -0.152050
   3 C :   -0.101032
   4 H :    0.072710
   5 H :    0.094128
   6 H :    0.114642
   7 H :    0.097973

  Mayer bond orders larger than 0.100000
B(  0-C ,  1-O ) :   1.8947 B(  0-C ,  2-C ) :   1.0422 B(  0-C ,  4-H ) :   0.9232
B(  2-C ,  3-C ) :   1.9273 B(  2-C ,  5-H ) :   0.9564 B(  3-C ,  6-H ) :   0.9545
B(  3-C ,  7-H ) :   0.9622

-----------------------------------------------------------------------------
         ABSORPTION SPECTRUM VIA TRANSITION ELECTRIC DIPOLE MOMENTS
-----------------------------------------------------------------------------
State   Energy    Wavelength  fosc         T2        TX        TY        TZ
        (cm-1)      (nm)                 (au**2)    (au)      (au)      (au)
-----------------------------------------------------------------------------
   1   31853.4    313.9   0.000195617   0.00202   0.04471  -0.00318  -0.00358

Dispersion correction           -0.025541247
FINAL SINGLE POINT ENERGY      -189.330977549786

DIPOLE MOMENT
-------------
                                X             Y             Z
Electronic contribution:     -1.91342      -1.63583       0.49983
Nuclear contribution   :      2.36911       2.55654      -0.85914
                        -----------------------------------------
Total Dipole Moment    :      0.45570       0.92071      -0.35931
                        -----------------------------------------
Magnitude (a.u.)       :      1.08833
Magnitude (Debye)      :      2.76633

Rotational constants in cm-1:     0.737378     0.207330     0.165021
Rotational constants in MHz : 22106.021864  6215.599293  4947.193458

                             ****ORCA TERMINATED NORMALLY****
TOTAL RUN TIME: 0 days 0 hours 0 minutes 11 seconds 448 msec
