                         Program Version 5.0.3 -  RELEASE  -
|  1> ! B3LYP cc-pVDZ
|  2> !TightSCF
|  3> %scf
|  4>  ConvForced true
|  5>  convergence tight
|  6>  MaxIter 500
|  7> end
|  8>
|  9> %tddft
| 10>  nroots 1
| 11> end
| 12>
| 13> # 	15689
| 14> * xyz 0 1
| 15> 		C   -1.182921  -0.322975  -0.010930
| 16> 		O   -1.687251  -1.002269  -0.843078
| 17> 		C   -0.000519   0.521533  -0.162400
| 18> 		C    1.225158   0.026228   0.145173
| 19> 		H   -1.722471  -0.420276   0.914713
| 20> 		H   -0.134743   1.535030  -0.693803
| 21> 		H    1.255469  -1.069192   0.600061
| 22> 		H    2.178536   0.699914   0.017690
| 23> *
| 24>
| 25>                          ****END OF INPUT****

CARTESIAN COORDINATES (ANGSTROEM)
---------------------------------
  C     -1.182921   -0.322975   -0.010930
  O     -1.687251   -1.002269   -0.843078
  C     -0.000519    0.521533   -0.162400
  C      1.225158    0.026228    0.145173
  H     -1.722471   -0.420276    0.914713
  H     -0.134743    1.535030   -0.693803
  H      1.255469   -1.069192    0.600061
  H      2.178536    0.699914    0.017690

 Total Charge           Charge          ....    0
 Multiplicity           Mult            ....    1
 Number of Electrons    NEL             ....   30
 Basis Dimension        Dim             ....   76

ORBITAL ENERGIES
----------------

  NO   OCC          E(Eh)            E(eV)
   0   2.0000     -19.137299      -520.7524
   1   2.0000     -10.271407      -279.4992
   2   2.0000     -10.226224      -278.2697
   3   2.0000     -10.214432      -277.9488
   4   2.0000      -1.062545       -28.9133
   5   2.0000      -0.792081       -21.5536
   6   2.0000      -0.640795       -17.4369
   7   2.0000      -0.554893       -15.0994
   8   2.0000      -0.493834       -13.4379
   9   2.0000      -0.454227       -12.3601
  10   2.0000      -0.436065       -11.8659
  11   2.0000      -0.387766       -10.5516
  12   2.0000      -0.374608       -10.1936
  13   2.0000      -0.285399        -7.7661
  14   2.0000      -0.249654        -6.7934
  15   0.0000      -0.034683        -0.9438
  16   0.0000      -0.011178        -0.3042
  17   0.0000       0.070582         1.9206
  18   0.0000       0.075238         2.0473
  19   0.0000       0.108612         2.9555

MULLIKEN ATOMIC CHARGES
-----------------------
   0 C :    0.172576
   1 O :   -0.167082
   2 C :   -0.089432
   3 C :   -0.042214
   4 H :   -0.027626
   5 H :    0.043619
   6 H :    0.051602
   7 H :    0.058557
Sum of atomic charges:    0.0000000

LOEWDIN ATOMIC CHARGES
----------------------
   0 C :   -0.045502
   1 O :    0.028081
   2 C :   -0.073197
   3 C :   -0.045292
   4 H :   -0.011504
   5 H :    0.051352
   6 H :    0.047117
   7 H :    0.048944

  Mayer bond orders larger than 0.100000
B(  0-C ,  1-O ) :   2.2498 B(  0-C ,  2-C ) :   0.9768 B(  0-C ,  4-H ) :   0.9363
B(  2-C ,  3-C ) :   2.0124 B(  2-C ,  5-H ) :   0.9307 B(  3-C ,  6-H ) :   0.9369
B(  3-C ,  7-H ) :   0.9389

-----------------------------------------------------------------------------
         ABSORPTION SPECTRUM VIA TRANSITION ELECTRIC DIPOLE MOMENTS
-----------------------------------------------------------------------------
State   Energy    Wavelength  fosc         T2        TX        TY        TZ
        (cm-1)      (nm)                 (au**2)    (au)      (au)      (au)
-----------------------------------------------------------------------------
   1   32669.9    306.1   0.000225604   0.00227  -0.04455  -0.00134  -0.01694

FINAL SINGLE POINT ENERGY      -191.628923154727

DIPOLE MOMENT
-------------
                                X             Y             Z
Electronic contribution:     -2.58890      -0.97471      -1.15112
Nuclear contribution   :      3.12789       1.53021       1.64668
                        -----------------------------------------
Total Dipole Moment    :      0.53899       0.55549       0.49556
                        -----------------------------------------
Magnitude (a.u.)       :      0.91906
Magnitude (Debye)      :      2.33605

Rotational constants in cm-1:     0.997567     0.168201     0.159806
Rotational constants in MHz : 29906.293016  5042.551182  4790.851124

                             ****ORCA TERMINATED NORMALLY****
TOTAL RUN TIME: 0 days 0 hours 3 minutes 23 seconds 217 msec
