                         Program Version 5.0.3 -  RELEASE  -
|  1> ! B3LYP cc-pVDZ
|  2> !TightSCF
|  3> %scf
|  4>  ConvForced true
|  5>  convergence tight
|  6>  MaxIter 500
|  7> end
|  8>
|  9> %tddft
| 10>  nroots 1
| 11> end
| 12>
| 13> # 	5765
| 14> * xyz 0 1
| 15> 		C   -1.189707  -0.351309  -0.016643
| 16> 		O   -1.377030  -1.474496  -0.535565
| 17> 		C    0.006903   0.484844  -0.181284
| 18> 		C    1.222939  -0.057762   0.099867
| 19> 		H   -2.045170   0.175463   0.628710
| 20> 		H   -0.092591   1.641997  -0.398960
| 21> 		H    1.327310  -1.124682   0.331852
| 22> 		H    2.150004   0.692895   0.070116
| 23> *
| 24>
| 25>                          ****END OF INPUT****

CARTESIAN COORDINATES (ANGSTROEM)
---------------------------------
  C     -1.189707   -0.351309   -0.016643
  O     -1.377030   -1.474496   -0.535565
  C      0.006903    0.484844   -0.181284
  C      1.222939   -0.057762    0.099867
  H     -2.045170    0.175463    0.628710
  H     -0.092591    1.641997   -0.398960
  H      1.327310   -1.124682    0.331852
  H      2.150004    0.692895    0.070116

 Total Charge           Charge          ....    0
 Multiplicity           Mult            ....    1
 Number of Electrons    NEL             ....   30
 Basis Dimension        Dim             ....   76

ORBITAL ENERGIES
----------------

  NO   OCC          E(Eh)            E(eV)
   0   2.0000     -19.144715      -520.9542
   1   2.0000     -10.288856      -279.9740
   2   2.0000     -10.226426      -278.2752
   3   2.0000     -10.221235      -278.1339
   4   2.0000      -1.027493       -27.9595
   5   2.0000      -0.793953       -21.6046
   6   2.0000      -0.649849       -17.6833
   7   2.0000      -0.535054       -14.5596
   8   2.0000      -0.492794       -13.4096
   9   2.0000      -0.441410       -12.0114
  10   2.0000      -0.427381       -11.6296
  11   2.0000      -0.385971       -10.5028
  12   2.0000      -0.370658       -10.0861
  13   2.0000      -0.287383        -7.8201
  14   2.0000      -0.256838        -6.9889
  15   0.0000      -0.061888        -1.6841
  16   0.0000       0.008521         0.2319
  17   0.0000       0.056135         1.5275
  18   0.0000       0.080502         2.1906
  19   0.0000       0.096795         2.6339

MULLIKEN ATOMIC CHARGES
-----------------------
   0 C :    0.161328
   1 O :   -0.215099
   2 C :   -0.097322
   3 C :    0.006704
   4 H :    0.002454
   5 H :    0.040175
   6 H :    0.045861
   7 H :    0.055899
Sum of atomic charges:    0.0000000

LOEWDIN ATOMIC CHARGES
----------------------
   0 C :   -0.015848
   1 O :   -0.037761
   2 C :   -0.082115
   3 C :   -0.007733
   4 H :    0.004652
   5 H :    0.053059
   6 H :    0.033863
   7 H :    0.051883

  Mayer bond orders larger than 0.100000
B(  0-C ,  1-O ) :   2.1580 B(  0-C ,  2-C ) :   1.0278 B(  0-C ,  4-H ) :   0.8969
B(  2-C ,  3-C ) :   1.9648 B(  2-C ,  5-H ) :   0.9286 B(  3-C ,  6-H ) :   0.9414
B(  3-C ,  7-H ) :   0.9415

-----------------------------------------------------------------------------
         ABSORPTION SPECTRUM VIA TRANSITION ELECTRIC DIPOLE MOMENTS
-----------------------------------------------------------------------------
State   Energy    Wavelength  fosc         T2        TX        TY        TZ
        (cm-1)      (nm)                 (au**2)    (au)      (au)      (au)
-----------------------------------------------------------------------------
   1   29302.8    341.3   0.000180876   0.00203  -0.04485  -0.00249  -0.00382

FINAL SINGLE POINT ENERGY      -191.654787711741

DIPOLE MOMENT
-------------
                                X             Y             Z
Electronic contribution:     -2.08855      -1.83071      -0.83158
Nuclear contribution   :      2.59373       2.70845       1.19690
                        -----------------------------------------
Total Dipole Moment    :      0.50518       0.87774       0.36532
                        -----------------------------------------
Magnitude (a.u.)       :      1.07661
Magnitude (Debye)      :      2.73653

Rotational constants in cm-1:     0.775519     0.188858     0.158899
Rotational constants in MHz : 23249.469259  5661.825456  4763.680121

                             ****ORCA TERMINATED NORMALLY****
TOTAL RUN TIME: 0 days 0 hours 3 minutes 25 seconds 221 msec
