                         Program Version 5.0.3 -  RELEASE  -
|  1> ! B3LYP cc-pVDZ
|  2> !TightSCF
|  3> %scf
|  4>  ConvForced true
|  5>  convergence tight
|  6>  MaxIter 500
|  7> end
|  8>
|  9> %tddft
| 10>  nroots 1
| 11> end
| 12>
| 13> # 	16044
| 14> * xyz 0 1
| 15> 		C   -1.158733  -0.346898  -0.072187
| 16> 		O   -1.221962  -1.521696  -0.247885
| 17> 		C    0.051599   0.553561  -0.047619
| 18> 		C    1.289002  -0.020998   0.064234
| 19> 		H   -2.166320   0.133327   0.157907
| 20> 		H   -0.147416   1.503647  -0.022710
| 21> 		H    1.188588  -1.039714   0.220975
| 22> 		H    2.114066   0.717531  -0.081067
| 23> *
| 24>
| 25>                          ****END OF INPUT****

CARTESIAN COORDINATES (ANGSTROEM)
---------------------------------
  C     -1.158733   -0.346898   -0.072187
  O     -1.221962   -1.521696   -0.247885
  C      0.051599    0.553561   -0.047619
  C      1.289002   -0.020998    0.064234
  H     -2.166320    0.133327    0.157907
  H     -0.147416    1.503647   -0.022710
  H      1.188588   -1.039714    0.220975
  H      2.114066    0.717531   -0.081067

 Total Charge           Charge          ....    0
 Multiplicity           Mult            ....    1
 Number of Electrons    NEL             ....   30
 Basis Dimension        Dim             ....   76

ORBITAL ENERGIES
----------------

  NO   OCC          E(Eh)            E(eV)
   0   2.0000     -19.138127      -520.7749
   1   2.0000     -10.272999      -279.5425
   2   2.0000     -10.215971      -277.9907
   3   2.0000     -10.198435      -277.5135
   4   2.0000      -1.057701       -28.7815
   5   2.0000      -0.797943       -21.7131
   6   2.0000      -0.653214       -17.7749
   7   2.0000      -0.551145       -14.9974
   8   2.0000      -0.513953       -13.9854
   9   2.0000      -0.448077       -12.1928
  10   2.0000      -0.420267       -11.4360
  11   2.0000      -0.406450       -11.0601
  12   2.0000      -0.398172       -10.8348
  13   2.0000      -0.286012        -7.7828
  14   2.0000      -0.250401        -6.8138
  15   0.0000      -0.068405        -1.8614
  16   0.0000       0.053935         1.4676
  17   0.0000       0.069761         1.8983
  18   0.0000       0.094032         2.5587
  19   0.0000       0.132042         3.5931

MULLIKEN ATOMIC CHARGES
-----------------------
   0 C :    0.149038
   1 O :   -0.174500
   2 C :   -0.051975
   3 C :    0.115112
   4 H :   -0.030392
   5 H :   -0.066409
   6 H :    0.012723
   7 H :    0.046402
Sum of atomic charges:   -0.0000000

LOEWDIN ATOMIC CHARGES
----------------------
   0 C :   -0.047409
   1 O :    0.011940
   2 C :   -0.047519
   3 C :    0.039159
   4 H :   -0.010846
   5 H :   -0.011182
   6 H :    0.019612
   7 H :    0.046245

  Mayer bond orders larger than 0.100000
B(  0-C ,  1-O ) :   2.2018 B(  0-C ,  2-C ) :   1.0426 B(  0-C ,  4-H ) :   0.9128
B(  2-C ,  3-C ) :   1.9536 B(  2-C ,  5-H ) :   0.9574 B(  3-C ,  6-H ) :   0.9234
B(  3-C ,  7-H ) :   0.9440

-----------------------------------------------------------------------------
         ABSORPTION SPECTRUM VIA TRANSITION ELECTRIC DIPOLE MOMENTS
-----------------------------------------------------------------------------
State   Energy    Wavelength  fosc         T2        TX        TY        TZ
        (cm-1)      (nm)                 (au**2)    (au)      (au)      (au)
-----------------------------------------------------------------------------
   1   27596.0    362.4   0.000264698   0.00316  -0.03322   0.00193  -0.04528

FINAL SINGLE POINT ENERGY      -191.653483234832

DIPOLE MOMENT
-------------
                                X             Y             Z
Electronic contribution:     -1.57426      -1.72011      -0.40658
Nuclear contribution   :      2.00970       2.60811       0.54716
                        -----------------------------------------
Total Dipole Moment    :      0.43544       0.88799       0.14058
                        -----------------------------------------
Magnitude (a.u.)       :      0.99895
Magnitude (Debye)      :      2.53913

Rotational constants in cm-1:     0.802415     0.199616     0.160804
Rotational constants in MHz : 24055.790962  5984.327555  4820.780669

                             ****ORCA TERMINATED NORMALLY****
TOTAL RUN TIME: 0 days 0 hours 3 minutes 21 seconds 987 msec
