                         Program Version 5.0.3 -  RELEASE  -
|  1> ! HF-3c
|  2> !TightSCF
|  3> %scf
|  4>  ConvForced true
|  5>  convergence tight
|  6>  MaxIter 500
|  7> end
|  8>
|  9> %tddft
| 10>  nroots 1
| 11> end
| 12>
| 13> # 	28215
| 14> * xyz 0 1
| 15> 		C   -0.598281  -0.442985   0.018128
| 16> 		O   -0.562486  -1.575449  -0.015994
| 17> 		C    0.640189   0.392079  -0.082433
| 18> 		C    1.818319  -0.156518   0.041024
| 19> 		H   -1.486169  -0.009471   0.472406
| 20> 		H    0.382584   1.383854  -0.087165
| 21> 		H    1.909736  -1.137715  -0.105596
| 22> 		H    2.876128   0.480456   0.255823
| 23> *
| 24>
| 25>                          ****END OF INPUT****

CARTESIAN COORDINATES (ANGSTROEM)
---------------------------------
  C     -0.598281   -0.442985    0.018128
  O     -0.562486   -1.575449   -0.015994
  C      0.640189    0.392079   -0.082433
  C      1.818319   -0.156518    0.041024
  H     -1.486169   -0.009471    0.472406
  H      0.382584    1.383854   -0.087165
  H      1.909736   -1.137715   -0.105596
  H      2.876128    0.480456    0.255823

 Total Charge           Charge          ....    0
 Multiplicity           Mult            ....    1
 Number of Electrons    NEL             ....   30
 Basis Dimension        Dim             ....   24

ORBITAL ENERGIES
----------------

  NO   OCC          E(Eh)            E(eV)
   0   2.0000     -20.383502      -554.6633
   1   2.0000     -11.312467      -307.8279
   2   2.0000     -11.193244      -304.5836
   3   2.0000     -11.186104      -304.3894
   4   2.0000      -1.465183       -39.8697
   5   2.0000      -1.086026       -29.5523
   6   2.0000      -0.888734       -24.1837
   7   2.0000      -0.761866       -20.7314
   8   2.0000      -0.719482       -19.5781
   9   2.0000      -0.634836       -17.2748
  10   2.0000      -0.605222       -16.4689
  11   2.0000      -0.569806       -15.5052
  12   2.0000      -0.534969       -14.5573
  13   2.0000      -0.407435       -11.0869
  14   2.0000      -0.400964       -10.9108
  15   0.0000       0.155400         4.2287
  16   0.0000       0.298956         8.1350
  17   0.0000       0.473216        12.8769
  18   0.0000       0.635377        17.2895
  19   0.0000       0.725693        19.7471

MULLIKEN ATOMIC CHARGES
-----------------------
   0 C :    0.183493
   1 O :   -0.365220
   2 C :   -0.187144
   3 C :   -0.217144
   4 H :    0.136498
   5 H :    0.139673
   6 H :    0.152547
   7 H :    0.157297
Sum of atomic charges:   -0.0000000

LOEWDIN ATOMIC CHARGES
----------------------
   0 C :    0.143528
   1 O :   -0.243832
   2 C :   -0.139516
   3 C :   -0.121866
   4 H :    0.069235
   5 H :    0.083530
   6 H :    0.091431
   7 H :    0.117489

  Mayer bond orders larger than 0.100000
B(  0-C ,  1-O ) :   1.9226 B(  0-C ,  2-C ) :   0.9888 B(  0-C ,  4-H ) :   0.9189
B(  2-C ,  3-C ) :   1.9695 B(  2-C ,  5-H ) :   0.9622 B(  3-C ,  6-H ) :   0.9610
B(  3-C ,  7-H ) :   0.9547

-----------------------------------------------------------------------------
         ABSORPTION SPECTRUM VIA TRANSITION ELECTRIC DIPOLE MOMENTS
-----------------------------------------------------------------------------
State   Energy    Wavelength  fosc         T2        TX        TY        TZ
        (cm-1)      (nm)                 (au**2)    (au)      (au)      (au)
-----------------------------------------------------------------------------
   1   36318.9    275.3   0.000209677   0.00190  -0.03932  -0.00765   0.01720

Dispersion correction           -0.026219998
FINAL SINGLE POINT ENERGY      -189.275808327832

DIPOLE MOMENT
-------------
                                X             Y             Z
Electronic contribution:     -1.98208      -1.60784      -0.36750
Nuclear contribution   :      2.30017       2.46215       0.50184
                        -----------------------------------------
Total Dipole Moment    :      0.31808       0.85431       0.13434
                        -----------------------------------------
Magnitude (a.u.)       :      0.92145
Magnitude (Debye)      :      2.34214

Rotational constants in cm-1:     0.815754     0.215938     0.172204
Rotational constants in MHz : 24455.702777  6473.665925  5162.559239

                             ****ORCA TERMINATED NORMALLY****
TOTAL RUN TIME: 0 days 0 hours 0 minutes 16 seconds 119 msec
