                         Program Version 5.0.3 -  RELEASE  -
|  1> ! B3LYP cc-pVDZ
|  2> !TightSCF
|  3> %scf
|  4>  ConvForced true
|  5>  convergence tight
|  6>  MaxIter 500
|  7> end
|  8>
|  9> %tddft
| 10>  nroots 1
| 11> end
| 12>
| 13> # 	871
| 14> * xyz 0 1
| 15> 		C   -1.240074  -0.384563   0.009821
| 16> 		O   -1.876029  -0.986617   0.788254
| 17> 		C    0.013813   0.382068   0.322115
| 18> 		C    1.252093   0.116214  -0.171415
| 19> 		H   -1.385153  -0.380518  -1.054669
| 20> 		H   -0.071399   1.231430   0.915126
| 21> 		H    1.236038  -0.672393  -0.822921
| 22> 		H    2.108756   0.649292  -0.051767
| 23> *
| 24>
| 25>                          ****END OF INPUT****

CARTESIAN COORDINATES (ANGSTROEM)
---------------------------------
  C     -1.240074   -0.384563    0.009821
  O     -1.876029   -0.986617    0.788254
  C      0.013813    0.382068    0.322115
  C      1.252093    0.116214   -0.171415
  H     -1.385153   -0.380518   -1.054669
  H     -0.071399    1.231430    0.915126
  H      1.236038   -0.672393   -0.822921
  H      2.108756    0.649292   -0.051767

 Total Charge           Charge          ....    0
 Multiplicity           Mult            ....    1
 Number of Electrons    NEL             ....   30
 Basis Dimension        Dim             ....   76

ORBITAL ENERGIES
----------------

  NO   OCC          E(Eh)            E(eV)
   0   2.0000     -19.149645      -521.0883
   1   2.0000     -10.279637      -279.7231
   2   2.0000     -10.198907      -277.5264
   3   2.0000     -10.194166      -277.3974
   4   2.0000      -1.076790       -29.3009
   5   2.0000      -0.794770       -21.6268
   6   2.0000      -0.658027       -17.9058
   7   2.0000      -0.575248       -15.6533
   8   2.0000      -0.494150       -13.4465
   9   2.0000      -0.476385       -12.9631
  10   2.0000      -0.446991       -12.1632
  11   2.0000      -0.411785       -11.2052
  12   2.0000      -0.378409       -10.2970
  13   2.0000      -0.281571        -7.6619
  14   2.0000      -0.260012        -7.0753
  15   0.0000      -0.047206        -1.2845
  16   0.0000       0.010676         0.2905
  17   0.0000       0.092723         2.5231
  18   0.0000       0.101518         2.7624
  19   0.0000       0.126106         3.4315

MULLIKEN ATOMIC CHARGES
-----------------------
   0 C :    0.194385
   1 O :   -0.145487
   2 C :   -0.122359
   3 C :    0.114442
   4 H :   -0.022387
   5 H :   -0.008220
   6 H :   -0.013961
   7 H :    0.003585
Sum of atomic charges:   -0.0000000

LOEWDIN ATOMIC CHARGES
----------------------
   0 C :   -0.043098
   1 O :    0.055158
   2 C :   -0.038900
   3 C :    0.001801
   4 H :   -0.012316
   5 H :    0.016833
   6 H :    0.009226
   7 H :    0.011295

  Mayer bond orders larger than 0.100000
B(  0-C ,  1-O ) :   2.2695 B(  0-C ,  2-C ) :   0.9798 B(  0-C ,  4-H ) :   0.9125
B(  2-C ,  3-C ) :   2.0294 B(  2-C ,  5-H ) :   0.9508 B(  3-C ,  6-H ) :   0.9418
B(  3-C ,  7-H ) :   0.9497

-----------------------------------------------------------------------------
         ABSORPTION SPECTRUM VIA TRANSITION ELECTRIC DIPOLE MOMENTS
-----------------------------------------------------------------------------
State   Energy    Wavelength  fosc         T2        TX        TY        TZ
        (cm-1)      (nm)                 (au**2)    (au)      (au)      (au)
-----------------------------------------------------------------------------
   1   33035.6    302.7   0.000262432   0.00262  -0.01514   0.00117   0.04883

FINAL SINGLE POINT ENERGY      -191.629096060432

DIPOLE MOMENT
-------------
                                X             Y             Z
Electronic contribution:     -3.02947      -1.17469       1.33600
Nuclear contribution   :      3.61198       1.67492      -1.84821
                        -----------------------------------------
Total Dipole Moment    :      0.58251       0.50024      -0.51221
                        -----------------------------------------
Magnitude (a.u.)       :      0.92299
Magnitude (Debye)      :      2.34606

Rotational constants in cm-1:     1.298858     0.154184     0.150269
Rotational constants in MHz : 38938.787251  4622.305462  4504.937050

                             ****ORCA TERMINATED NORMALLY****
TOTAL RUN TIME: 0 days 0 hours 3 minutes 22 seconds 985 msec
