                         Program Version 5.0.3 -  RELEASE  -
|  1> ! B3LYP cc-pVDZ
|  2> !TightSCF
|  3> %scf
|  4>  ConvForced true
|  5>  convergence tight
|  6>  MaxIter 500
|  7> end
|  8>
|  9> %tddft
| 10>  nroots 1
| 11> end
| 12>
| 13> # 	25222
| 14> * xyz 0 1
| 15> 		C   -0.585966  -0.459599   0.056183
| 16> 		O   -0.639415  -1.681207  -0.037125
| 17> 		C    0.679856   0.433827   0.005308
| 18> 		C    1.861996  -0.049833  -0.032250
| 19> 		H   -1.490646   0.040163   0.102589
| 20> 		H    0.458300   1.492478  -0.333239
| 21> 		H    2.123440  -1.261552   0.296862
| 22> 		H    2.751395   0.560188   0.162520
| 23> *
| 24>
| 25>                          ****END OF INPUT****

CARTESIAN COORDINATES (ANGSTROEM)
---------------------------------
  C     -0.585966   -0.459599    0.056183
  O     -0.639415   -1.681207   -0.037125
  C      0.679856    0.433827    0.005308
  C      1.861996   -0.049833   -0.032250
  H     -1.490646    0.040163    0.102589
  H      0.458300    1.492478   -0.333239
  H      2.123440   -1.261552    0.296862
  H      2.751395    0.560188    0.162520

 Total Charge           Charge          ....    0
 Multiplicity           Mult            ....    1
 Number of Electrons    NEL             ....   30
 Basis Dimension        Dim             ....   76

ORBITAL ENERGIES
----------------

  NO   OCC          E(Eh)            E(eV)
   0   2.0000     -19.142154      -520.8845
   1   2.0000     -10.275179      -279.6018
   2   2.0000     -10.218106      -278.0488
   3   2.0000     -10.209677      -277.8194
   4   2.0000      -1.038752       -28.2659
   5   2.0000      -0.799117       -21.7451
   6   2.0000      -0.652408       -17.7529
   7   2.0000      -0.544094       -14.8056
   8   2.0000      -0.495605       -13.4861
   9   2.0000      -0.446086       -12.1386
  10   2.0000      -0.428847       -11.6695
  11   2.0000      -0.392685       -10.6855
  12   2.0000      -0.353738        -9.6257
  13   2.0000      -0.299452        -8.1485
  14   2.0000      -0.255006        -6.9391
  15   0.0000      -0.066907        -1.8206
  16   0.0000       0.041977         1.1423
  17   0.0000       0.055760         1.5173
  18   0.0000       0.079592         2.1658
  19   0.0000       0.122642         3.3373

MULLIKEN ATOMIC CHARGES
-----------------------
   0 C :    0.219092
   1 O :   -0.197681
   2 C :   -0.127046
   3 C :    0.008449
   4 H :   -0.028155
   5 H :    0.020472
   6 H :    0.063566
   7 H :    0.041304
Sum of atomic charges:   -0.0000000

LOEWDIN ATOMIC CHARGES
----------------------
   0 C :    0.000749
   1 O :   -0.010858
   2 C :   -0.093859
   3 C :   -0.015376
   4 H :   -0.016499
   5 H :    0.041765
   6 H :    0.059654
   7 H :    0.034425

  Mayer bond orders larger than 0.100000
B(  0-C ,  1-O ) :   2.1998 B(  0-C ,  2-C ) :   1.0096 B(  0-C ,  4-H ) :   0.9311
B(  2-C ,  3-C ) :   1.9941 B(  2-C ,  5-H ) :   0.9314 B(  3-C ,  6-H ) :   0.9252
B(  3-C ,  7-H ) :   0.9326

-----------------------------------------------------------------------------
         ABSORPTION SPECTRUM VIA TRANSITION ELECTRIC DIPOLE MOMENTS
-----------------------------------------------------------------------------
State   Energy    Wavelength  fosc         T2        TX        TY        TZ
        (cm-1)      (nm)                 (au**2)    (au)      (au)      (au)
-----------------------------------------------------------------------------
   1   28094.4    355.9   0.000397397   0.00466  -0.06402  -0.00293   0.02343

FINAL SINGLE POINT ENERGY      -191.643165019919

DIPOLE MOMENT
-------------
                                X             Y             Z
Electronic contribution:     -2.12725      -1.62903      -0.13521
Nuclear contribution   :      2.44398       2.56725       0.21486
                        -----------------------------------------
Total Dipole Moment    :      0.31673       0.93823       0.07965
                        -----------------------------------------
Magnitude (a.u.)       :      0.99345
Magnitude (Debye)      :      2.52514

Rotational constants in cm-1:     0.790637     0.192017     0.155380
Rotational constants in MHz : 23702.689914  5756.531415  4658.164483

                             ****ORCA TERMINATED NORMALLY****
TOTAL RUN TIME: 0 days 0 hours 3 minutes 17 seconds 177 msec
