                         Program Version 5.0.3 -  RELEASE  -
|  1> ! HF-3c
|  2> !TightSCF
|  3> %scf
|  4>  ConvForced true
|  5>  convergence tight
|  6>  MaxIter 500
|  7> end
|  8>
|  9> %tddft
| 10>  nroots 1
| 11> end
| 12>
| 13> # 	7016
| 14> * xyz 0 1
| 15> 		C   -1.177570  -0.423689  -0.065680
| 16> 		O   -1.917287  -0.774199  -0.870245
| 17> 		C    0.029465   0.405741  -0.268397
| 18> 		C    1.202743   0.088659   0.260139
| 19> 		H   -1.259029  -0.697582   0.878618
| 20> 		H   -0.118515   1.464245  -0.871975
| 21> 		H    1.397045  -0.907643   0.879987
| 22> 		H    1.857625   0.830411   0.028734
| 23> *
| 24>
| 25>                          ****END OF INPUT****

CARTESIAN COORDINATES (ANGSTROEM)
---------------------------------
  C     -1.177570   -0.423689   -0.065680
  O     -1.917287   -0.774199   -0.870245
  C      0.029465    0.405741   -0.268397
  C      1.202743    0.088659    0.260139
  H     -1.259029   -0.697582    0.878618
  H     -0.118515    1.464245   -0.871975
  H      1.397045   -0.907643    0.879987
  H      1.857625    0.830411    0.028734

 Total Charge           Charge          ....    0
 Multiplicity           Mult            ....    1
 Number of Electrons    NEL             ....   30
 Basis Dimension        Dim             ....   24

ORBITAL ENERGIES
----------------

  NO   OCC          E(Eh)            E(eV)
   0   2.0000     -20.397622      -555.0475
   1   2.0000     -11.318903      -308.0030
   2   2.0000     -11.181660      -304.2684
   3   2.0000     -11.177684      -304.1602
   4   2.0000      -1.458805       -39.6961
   5   2.0000      -1.083773       -29.4910
   6   2.0000      -0.898446       -24.4479
   7   2.0000      -0.781180       -21.2570
   8   2.0000      -0.669030       -18.2052
   9   2.0000      -0.654605       -17.8127
  10   2.0000      -0.604594       -16.4518
  11   2.0000      -0.563420       -15.3314
  12   2.0000      -0.521116       -14.1803
  13   2.0000      -0.413284       -11.2460
  14   2.0000      -0.400002       -10.8846
  15   0.0000       0.163298         4.4436
  16   0.0000       0.278898         7.5892
  17   0.0000       0.494412        13.4536
  18   0.0000       0.565461        15.3870
  19   0.0000       0.659425        17.9439

MULLIKEN ATOMIC CHARGES
-----------------------
   0 C :    0.163557
   1 O :   -0.346864
   2 C :   -0.141726
   3 C :   -0.261138
   4 H :    0.135080
   5 H :    0.151611
   6 H :    0.154234
   7 H :    0.145246
Sum of atomic charges:    0.0000000

LOEWDIN ATOMIC CHARGES
----------------------
   0 C :    0.140686
   1 O :   -0.229057
   2 C :   -0.113058
   3 C :   -0.168307
   4 H :    0.059076
   5 H :    0.109143
   6 H :    0.111248
   7 H :    0.090269

  Mayer bond orders larger than 0.100000
B(  0-C ,  1-O ) :   1.9343 B(  0-C ,  2-C ) :   0.9907 B(  0-C ,  4-H ) :   0.9250
B(  2-C ,  3-C ) :   1.9842 B(  2-C ,  5-H ) :   0.9461 B(  3-C ,  6-H ) :   0.9580
B(  3-C ,  7-H ) :   0.9646

-----------------------------------------------------------------------------
         ABSORPTION SPECTRUM VIA TRANSITION ELECTRIC DIPOLE MOMENTS
-----------------------------------------------------------------------------
State   Energy    Wavelength  fosc         T2        TX        TY        TZ
        (cm-1)      (nm)                 (au**2)    (au)      (au)      (au)
-----------------------------------------------------------------------------
   1   36474.2    274.2   0.000045929   0.00041   0.01514  -0.01357  -0.00101

Dispersion correction           -0.025546432
FINAL SINGLE POINT ENERGY      -189.269289396898

DIPOLE MOMENT
-------------
                                X             Y             Z
Electronic contribution:     -2.92067      -1.01328      -1.18811
Nuclear contribution   :      3.62280       1.36395       1.77920
                        -----------------------------------------
Total Dipole Moment    :      0.70213       0.35067       0.59109
                        -----------------------------------------
Magnitude (a.u.)       :      0.98252
Magnitude (Debye)      :      2.49737

Rotational constants in cm-1:     1.331006     0.160918     0.151278
Rotational constants in MHz : 39902.554836  4824.191304  4535.201584

                             ****ORCA TERMINATED NORMALLY****
TOTAL RUN TIME: 0 days 0 hours 0 minutes 11 seconds 545 msec
