                         Program Version 5.0.3 -  RELEASE  -
|  1> ! B3LYP cc-pVDZ
|  2> !TightSCF
|  3> %scf
|  4>  ConvForced true
|  5>  convergence tight
|  6>  MaxIter 500
|  7> end
|  8>
|  9> %tddft
| 10>  nroots 1
| 11> end
| 12>
| 13> # 	2366
| 14> * xyz 0 1
| 15> 		C   -1.246422  -0.338456   0.046923
| 16> 		O   -1.396618  -1.360496   0.673378
| 17> 		C    0.020474   0.540701   0.225756
| 18> 		C    1.234376  -0.010852  -0.018404
| 19> 		H   -1.875322  -0.064130  -0.707064
| 20> 		H   -0.223478   1.658126   0.331831
| 21> 		H    1.425060  -1.008069  -0.403204
| 22> 		H    2.119664   0.650945  -0.110448
| 23> *
| 24>
| 25>                          ****END OF INPUT****

CARTESIAN COORDINATES (ANGSTROEM)
---------------------------------
  C     -1.246422   -0.338456    0.046923
  O     -1.396618   -1.360496    0.673378
  C      0.020474    0.540701    0.225756
  C      1.234376   -0.010852   -0.018404
  H     -1.875322   -0.064130   -0.707064
  H     -0.223478    1.658126    0.331831
  H      1.425060   -1.008069   -0.403204
  H      2.119664    0.650945   -0.110448

 Total Charge           Charge          ....    0
 Multiplicity           Mult            ....    1
 Number of Electrons    NEL             ....   30
 Basis Dimension        Dim             ....   76

ORBITAL ENERGIES
----------------

  NO   OCC          E(Eh)            E(eV)
   0   2.0000     -19.139859      -520.8220
   1   2.0000     -10.273107      -279.5455
   2   2.0000     -10.215811      -277.9863
   3   2.0000     -10.211250      -277.8622
   4   2.0000      -1.048169       -28.5221
   5   2.0000      -0.780797       -21.2466
   6   2.0000      -0.652197       -17.7472
   7   2.0000      -0.561326       -15.2744
   8   2.0000      -0.490409       -13.3447
   9   2.0000      -0.447699       -12.1825
  10   2.0000      -0.441093       -12.0027
  11   2.0000      -0.381074       -10.3695
  12   2.0000      -0.379947       -10.3389
  13   2.0000      -0.284612        -7.7447
  14   2.0000      -0.250783        -6.8241
  15   0.0000      -0.044926        -1.2225
  16   0.0000       0.004286         0.1166
  17   0.0000       0.070162         1.9092
  18   0.0000       0.093607         2.5472
  19   0.0000       0.112544         3.0625

MULLIKEN ATOMIC CHARGES
-----------------------
   0 C :    0.209802
   1 O :   -0.188326
   2 C :   -0.126180
   3 C :    0.029979
   4 H :   -0.024313
   5 H :    0.028116
   6 H :    0.035593
   7 H :    0.035328
Sum of atomic charges:   -0.0000000

LOEWDIN ATOMIC CHARGES
----------------------
   0 C :   -0.008202
   1 O :    0.005990
   2 C :   -0.062641
   3 C :   -0.018794
   4 H :   -0.020054
   5 H :    0.039665
   6 H :    0.030345
   7 H :    0.033691

  Mayer bond orders larger than 0.100000
B(  0-C ,  1-O ) :   2.2193 B(  0-C ,  2-C ) :   0.9861 B(  0-C ,  4-H ) :   0.9278
B(  2-C ,  3-C ) :   1.9964 B(  2-C ,  5-H ) :   0.9331 B(  3-C ,  6-H ) :   0.9514
B(  3-C ,  7-H ) :   0.9512

-----------------------------------------------------------------------------
         ABSORPTION SPECTRUM VIA TRANSITION ELECTRIC DIPOLE MOMENTS
-----------------------------------------------------------------------------
State   Energy    Wavelength  fosc         T2        TX        TY        TZ
        (cm-1)      (nm)                 (au**2)    (au)      (au)      (au)
-----------------------------------------------------------------------------
   1   31361.2    318.9   0.000257513   0.00270   0.04775  -0.02048  -0.00197

FINAL SINGLE POINT ENERGY      -191.643923349263

DIPOLE MOMENT
-------------
                                X             Y             Z
Electronic contribution:     -2.42825      -1.59812       1.12091
Nuclear contribution   :      2.73268       2.36473      -1.69297
                        -----------------------------------------
Total Dipole Moment    :      0.30442       0.76661      -0.57205
                        -----------------------------------------
Magnitude (a.u.)       :      1.00380
Magnitude (Debye)      :      2.55145

Rotational constants in cm-1:     0.796610     0.184839     0.159129
Rotational constants in MHz : 23881.777503  5541.320652  4770.562197

                             ****ORCA TERMINATED NORMALLY****
TOTAL RUN TIME: 0 days 0 hours 3 minutes 20 seconds 254 msec
