                         Program Version 5.0.3 -  RELEASE  -
|  1> ! HF-3c
|  2> !TightSCF
|  3> %scf
|  4>  ConvForced true
|  5>  convergence tight
|  6>  MaxIter 500
|  7> end
|  8>
|  9> %tddft
| 10>  nroots 1
| 11> end
| 12>
| 13> # 	31839
| 14> * xyz 0 1
| 15> 		C   -0.556566  -0.444065  -0.043857
| 16> 		O   -0.620214  -1.686794   0.008072
| 17> 		C    0.659094   0.479505   0.072871
| 18> 		C    1.840793  -0.101224  -0.027745
| 19> 		H   -1.378531   0.026014  -0.029183
| 20> 		H    0.490811   1.531885  -0.110209
| 21> 		H    1.958227  -1.223248   0.151902
| 22> 		H    2.621015   0.454708  -0.171031
| 23> *
| 24>
| 25>                          ****END OF INPUT****

CARTESIAN COORDINATES (ANGSTROEM)
---------------------------------
  C     -0.556566   -0.444065   -0.043857
  O     -0.620214   -1.686794    0.008072
  C      0.659094    0.479505    0.072871
  C      1.840793   -0.101224   -0.027745
  H     -1.378531    0.026014   -0.029183
  H      0.490811    1.531885   -0.110209
  H      1.958227   -1.223248    0.151902
  H      2.621015    0.454708   -0.171031

 Total Charge           Charge          ....    0
 Multiplicity           Mult            ....    1
 Number of Electrons    NEL             ....   30
 Basis Dimension        Dim             ....   24

ORBITAL ENERGIES
----------------

  NO   OCC          E(Eh)            E(eV)
   0   2.0000     -20.367125      -554.2177
   1   2.0000     -11.294476      -307.3383
   2   2.0000     -11.198056      -304.7146
   3   2.0000     -11.195278      -304.6390
   4   2.0000      -1.382432       -37.6179
   5   2.0000      -1.091392       -29.6983
   6   2.0000      -0.915818       -24.9207
   7   2.0000      -0.778454       -21.1828
   8   2.0000      -0.710796       -19.3417
   9   2.0000      -0.616093       -16.7647
  10   2.0000      -0.604219       -16.4416
  11   2.0000      -0.544216       -14.8089
  12   2.0000      -0.529715       -14.4143
  13   2.0000      -0.423731       -11.5303
  14   2.0000      -0.400968       -10.9109
  15   0.0000       0.123563         3.3623
  16   0.0000       0.281813         7.6685
  17   0.0000       0.531926        14.4745
  18   0.0000       0.589824        16.0499
  19   0.0000       0.699337        19.0299

MULLIKEN ATOMIC CHARGES
-----------------------
   0 C :    0.137388
   1 O :   -0.336081
   2 C :   -0.166140
   3 C :   -0.231533
   4 H :    0.135152
   5 H :    0.148932
   6 H :    0.171028
   7 H :    0.141254
Sum of atomic charges:    0.0000000

LOEWDIN ATOMIC CHARGES
----------------------
   0 C :    0.141249
   1 O :   -0.251943
   2 C :   -0.121411
   3 C :   -0.124289
   4 H :    0.059528
   5 H :    0.095441
   6 H :    0.119528
   7 H :    0.081897

  Mayer bond orders larger than 0.100000
B(  0-C ,  1-O ) :   1.9152 B(  0-C ,  2-C ) :   1.0093 B(  0-C ,  4-H ) :   0.9462
B(  2-C ,  3-C ) :   1.9532 B(  2-C ,  5-H ) :   0.9586 B(  3-C ,  6-H ) :   0.9537
B(  3-C ,  7-H ) :   0.9684

-----------------------------------------------------------------------------
         ABSORPTION SPECTRUM VIA TRANSITION ELECTRIC DIPOLE MOMENTS
-----------------------------------------------------------------------------
State   Energy    Wavelength  fosc         T2        TX        TY        TZ
        (cm-1)      (nm)                 (au**2)    (au)      (au)      (au)
-----------------------------------------------------------------------------
   1   30544.0    327.4   0.000206929   0.00223  -0.04603  -0.01042   0.00167

Dispersion correction           -0.025865197
FINAL SINGLE POINT ENERGY      -189.305338224491

DIPOLE MOMENT
-------------
                                X             Y             Z
Electronic contribution:     -1.93792      -1.65163       0.08086
Nuclear contribution   :      2.30236       2.52876      -0.14757
                        -----------------------------------------
Total Dipole Moment    :      0.36443       0.87713      -0.06670
                        -----------------------------------------
Magnitude (a.u.)       :      0.95217
Magnitude (Debye)      :      2.42022

Rotational constants in cm-1:     0.770497     0.201117     0.159981
Rotational constants in MHz : 23098.914104  6029.333812  4796.097942

                             ****ORCA TERMINATED NORMALLY****
TOTAL RUN TIME: 0 days 0 hours 0 minutes 10 seconds 807 msec
