                         Program Version 5.0.3 -  RELEASE  -
|  1> ! B3LYP cc-pVDZ
|  2> !TightSCF
|  3> %scf
|  4>  ConvForced true
|  5>  convergence tight
|  6>  MaxIter 500
|  7> end
|  8>
|  9> %tddft
| 10>  nroots 1
| 11> end
| 12>
| 13> # 	14504
| 14> * xyz 0 1
| 15> 		C   -1.199971  -0.244583   0.026552
| 16> 		O   -1.243249  -1.442729   0.351191
| 17> 		C    0.006817   0.497998   0.098262
| 18> 		C    1.167846  -0.011588  -0.054135
| 19> 		H   -2.070063   0.277902  -0.338929
| 20> 		H   -0.093582   1.592793   0.135058
| 21> 		H    1.388874  -1.157843  -0.138828
| 22> 		H    2.097791   0.518416  -0.060303
| 23> *
| 24>
| 25>                          ****END OF INPUT****

CARTESIAN COORDINATES (ANGSTROEM)
---------------------------------
  C     -1.199971   -0.244583    0.026552
  O     -1.243249   -1.442729    0.351191
  C      0.006817    0.497998    0.098262
  C      1.167846   -0.011588   -0.054135
  H     -2.070063    0.277902   -0.338929
  H     -0.093582    1.592793    0.135058
  H      1.388874   -1.157843   -0.138828
  H      2.097791    0.518416   -0.060303

 Total Charge           Charge          ....    0
 Multiplicity           Mult            ....    1
 Number of Electrons    NEL             ....   30
 Basis Dimension        Dim             ....   76

ORBITAL ENERGIES
----------------

  NO   OCC          E(Eh)            E(eV)
   0   2.0000     -19.133537      -520.6500
   1   2.0000     -10.269082      -279.4359
   2   2.0000     -10.210456      -277.8406
   3   2.0000     -10.196407      -277.4583
   4   2.0000      -1.027400       -27.9570
   5   2.0000      -0.810938       -22.0667
   6   2.0000      -0.668888       -18.2014
   7   2.0000      -0.546687       -14.8761
   8   2.0000      -0.510891       -13.9021
   9   2.0000      -0.455166       -12.3857
  10   2.0000      -0.427760       -11.6399
  11   2.0000      -0.385310       -10.4848
  12   2.0000      -0.363543        -9.8925
  13   2.0000      -0.295066        -8.0292
  14   2.0000      -0.254087        -6.9140
  15   0.0000      -0.066251        -1.8028
  16   0.0000       0.053510         1.4561
  17   0.0000       0.070315         1.9134
  18   0.0000       0.086700         2.3592
  19   0.0000       0.120798         3.2871

MULLIKEN ATOMIC CHARGES
-----------------------
   0 C :    0.199141
   1 O :   -0.220790
   2 C :   -0.071964
   3 C :    0.053399
   4 H :   -0.020037
   5 H :   -0.010545
   6 H :    0.048596
   7 H :    0.022199
Sum of atomic charges:   -0.0000000

LOEWDIN ATOMIC CHARGES
----------------------
   0 C :   -0.013227
   1 O :   -0.031522
   2 C :   -0.088368
   3 C :    0.022176
   4 H :   -0.002412
   5 H :    0.036769
   6 H :    0.049290
   7 H :    0.027294

  Mayer bond orders larger than 0.100000
B(  0-C ,  1-O ) :   2.1609 B(  0-C ,  2-C ) :   1.0875 B(  0-C ,  4-H ) :   0.9252
B(  2-C ,  3-C ) :   1.9883 B(  2-C ,  5-H ) :   0.9265 B(  3-C ,  6-H ) :   0.9333
B(  3-C ,  7-H ) :   0.9372

-----------------------------------------------------------------------------
         ABSORPTION SPECTRUM VIA TRANSITION ELECTRIC DIPOLE MOMENTS
-----------------------------------------------------------------------------
State   Energy    Wavelength  fosc         T2        TX        TY        TZ
        (cm-1)      (nm)                 (au**2)    (au)      (au)      (au)
-----------------------------------------------------------------------------
   1   27585.0    362.5   0.000046437   0.00055  -0.00871   0.00464  -0.02137

FINAL SINGLE POINT ENERGY      -191.667821399984

DIPOLE MOMENT
-------------
                                X             Y             Z
Electronic contribution:     -2.05463      -1.48089       0.51640
Nuclear contribution   :      2.49030       2.40634      -0.78022
                        -----------------------------------------
Total Dipole Moment    :      0.43568       0.92545      -0.26382
                        -----------------------------------------
Magnitude (a.u.)       :      1.05635
Magnitude (Debye)      :      2.68502

Rotational constants in cm-1:     0.783376     0.214804     0.171086
Rotational constants in MHz : 23485.016519  6439.661323  5129.035615

                             ****ORCA TERMINATED NORMALLY****
TOTAL RUN TIME: 0 days 0 hours 3 minutes 21 seconds 931 msec
