                         Program Version 5.0.3 -  RELEASE  -
|  1> ! HF-3c
|  2> !TightSCF
|  3> %scf
|  4>  ConvForced true
|  5>  convergence tight
|  6>  MaxIter 500
|  7> end
|  8>
|  9> %tddft
| 10>  nroots 1
| 11> end
| 12>
| 13> # 	32465
| 14> * xyz 0 1
| 15> 		C   -0.625257  -0.428113   0.027475
| 16> 		O   -0.530651  -1.629844  -0.016007
| 17> 		C    0.617325   0.441491  -0.050420
| 18> 		C    1.825472  -0.144300   0.024163
| 19> 		H   -1.667081   0.028682   0.168139
| 20> 		H    0.671993   1.618751   0.010469
| 21> 		H    1.890761  -1.309296   0.034271
| 22> 		H    2.846842   0.336413   0.025104
| 23> *
| 24>
| 25>                          ****END OF INPUT****

CARTESIAN COORDINATES (ANGSTROEM)
---------------------------------
  C     -0.625257   -0.428113    0.027475
  O     -0.530651   -1.629844   -0.016007
  C      0.617325    0.441491   -0.050420
  C      1.825472   -0.144300    0.024163
  H     -1.667081    0.028682    0.168139
  H      0.671993    1.618751    0.010469
  H      1.890761   -1.309296    0.034271
  H      2.846842    0.336413    0.025104

 Total Charge           Charge          ....    0
 Multiplicity           Mult            ....    1
 Number of Electrons    NEL             ....   30
 Basis Dimension        Dim             ....   24

ORBITAL ENERGIES
----------------

  NO   OCC          E(Eh)            E(eV)
   0   2.0000     -20.360373      -554.0339
   1   2.0000     -11.296714      -307.3992
   2   2.0000     -11.177030      -304.1424
   3   2.0000     -11.175545      -304.1020
   4   2.0000      -1.403557       -38.1927
   5   2.0000      -1.052689       -28.6451
   6   2.0000      -0.860471       -23.4146
   7   2.0000      -0.731589       -19.9076
   8   2.0000      -0.684968       -18.6389
   9   2.0000      -0.599059       -16.3012
  10   2.0000      -0.578908       -15.7529
  11   2.0000      -0.537123       -14.6159
  12   2.0000      -0.493514       -13.4292
  13   2.0000      -0.410311       -11.1651
  14   2.0000      -0.382790       -10.4162
  15   0.0000       0.143378         3.9015
  16   0.0000       0.306660         8.3446
  17   0.0000       0.498210        13.5570
  18   0.0000       0.531282        14.4569
  19   0.0000       0.605710        16.4822

MULLIKEN ATOMIC CHARGES
-----------------------
   0 C :    0.170218
   1 O :   -0.361499
   2 C :   -0.180105
   3 C :   -0.205400
   4 H :    0.141188
   5 H :    0.143706
   6 H :    0.150962
   7 H :    0.140930
Sum of atomic charges:    0.0000000

LOEWDIN ATOMIC CHARGES
----------------------
   0 C :    0.149025
   1 O :   -0.265658
   2 C :   -0.146441
   3 C :   -0.115049
   4 H :    0.080650
   5 H :    0.099804
   6 H :    0.103551
   7 H :    0.094118

  Mayer bond orders larger than 0.100000
B(  0-C ,  1-O ) :   1.9132 B(  0-C ,  2-C ) :   1.0084 B(  0-C ,  4-H ) :   0.9213
B(  2-C ,  3-C ) :   1.9515 B(  2-C ,  5-H ) :   0.9550 B(  3-C ,  6-H ) :   0.9557
B(  3-C ,  7-H ) :   0.9648

-----------------------------------------------------------------------------
         ABSORPTION SPECTRUM VIA TRANSITION ELECTRIC DIPOLE MOMENTS
-----------------------------------------------------------------------------
State   Energy    Wavelength  fosc         T2        TX        TY        TZ
        (cm-1)      (nm)                 (au**2)    (au)      (au)      (au)
-----------------------------------------------------------------------------
   1   33940.3    294.6   0.000042051   0.00041   0.01445   0.00083   0.01408

Dispersion correction           -0.025204599
FINAL SINGLE POINT ENERGY      -189.322969695255

DIPOLE MOMENT
-------------
                                X             Y             Z
Electronic contribution:     -2.07610      -1.52187      -0.14041
Nuclear contribution   :      2.35330       2.42102       0.22314
                        -----------------------------------------
Total Dipole Moment    :      0.27720       0.89915       0.08273
                        -----------------------------------------
Magnitude (a.u.)       :      0.94454
Magnitude (Debye)      :      2.40083

Rotational constants in cm-1:     0.718609     0.213075     0.164605
Rotational constants in MHz : 21543.369214  6387.818905  4934.734986

                             ****ORCA TERMINATED NORMALLY****
TOTAL RUN TIME: 0 days 0 hours 0 minutes 11 seconds 362 msec
