                         Program Version 5.0.3 -  RELEASE  -
|  1> ! B3LYP cc-pVDZ
|  2> !TightSCF
|  3> %scf
|  4>  ConvForced true
|  5>  convergence tight
|  6>  MaxIter 500
|  7> end
|  8>
|  9> %tddft
| 10>  nroots 1
| 11> end
| 12>
| 13> # 	12276
| 14> * xyz 0 1
| 15> 		C   -1.202367  -0.361286  -0.036122
| 16> 		O   -2.053823  -0.538839  -0.833280
| 17> 		C   -0.013090   0.411405  -0.317181
| 18> 		C    1.257436   0.079244   0.211864
| 19> 		H   -1.306078  -0.712392   0.917382
| 20> 		H   -0.054370   1.295876  -1.066853
| 21> 		H    1.203319  -0.736666   1.027188
| 22> 		H    2.125248   0.546308   0.058310
| 23> *
| 24>
| 25>                          ****END OF INPUT****

CARTESIAN COORDINATES (ANGSTROEM)
---------------------------------
  C     -1.202367   -0.361286   -0.036122
  O     -2.053823   -0.538839   -0.833280
  C     -0.013090    0.411405   -0.317181
  C      1.257436    0.079244    0.211864
  H     -1.306078   -0.712392    0.917382
  H     -0.054370    1.295876   -1.066853
  H      1.203319   -0.736666    1.027188
  H      2.125248    0.546308    0.058310

 Total Charge           Charge          ....    0
 Multiplicity           Mult            ....    1
 Number of Electrons    NEL             ....   30
 Basis Dimension        Dim             ....   76

ORBITAL ENERGIES
----------------

  NO   OCC          E(Eh)            E(eV)
   0   2.0000     -19.135098      -520.6925
   1   2.0000     -10.264982      -279.3243
   2   2.0000     -10.221680      -278.1460
   3   2.0000     -10.217772      -278.0397
   4   2.0000      -1.064129       -28.9564
   5   2.0000      -0.787557       -21.4305
   6   2.0000      -0.659456       -17.9447
   7   2.0000      -0.575682       -15.6651
   8   2.0000      -0.479849       -13.0574
   9   2.0000      -0.478028       -13.0078
  10   2.0000      -0.433117       -11.7857
  11   2.0000      -0.405579       -11.0364
  12   2.0000      -0.371604       -10.1119
  13   2.0000      -0.280465        -7.6318
  14   2.0000      -0.256459        -6.9786
  15   0.0000      -0.066426        -1.8075
  16   0.0000       0.030205         0.8219
  17   0.0000       0.074060         2.0153
  18   0.0000       0.089125         2.4252
  19   0.0000       0.127107         3.4588

MULLIKEN ATOMIC CHARGES
-----------------------
   0 C :    0.233874
   1 O :   -0.173689
   2 C :   -0.138644
   3 C :    0.054315
   4 H :   -0.050108
   5 H :    0.031243
   6 H :    0.035951
   7 H :    0.007059
Sum of atomic charges:    0.0000000

LOEWDIN ATOMIC CHARGES
----------------------
   0 C :   -0.060214
   1 O :    0.035225
   2 C :   -0.050493
   3 C :    0.012176
   4 H :   -0.019312
   5 H :    0.044720
   6 H :    0.039318
   7 H :   -0.001420

  Mayer bond orders larger than 0.100000
B(  0-C ,  1-O ) :   2.2034 B(  0-C ,  2-C ) :   1.0606 B(  0-C ,  4-H ) :   0.9309
B(  2-C ,  3-C ) :   1.9262 B(  2-C ,  5-H ) :   0.9443 B(  3-C ,  6-H ) :   0.9484
B(  3-C ,  7-H ) :   0.9525

-----------------------------------------------------------------------------
         ABSORPTION SPECTRUM VIA TRANSITION ELECTRIC DIPOLE MOMENTS
-----------------------------------------------------------------------------
State   Energy    Wavelength  fosc         T2        TX        TY        TZ
        (cm-1)      (nm)                 (au**2)    (au)      (au)      (au)
-----------------------------------------------------------------------------
   1   29350.0    340.7   0.000915132   0.01026   0.09641   0.02690   0.01570

FINAL SINGLE POINT ENERGY      -191.645199142067

DIPOLE MOMENT
-------------
                                X             Y             Z
Electronic contribution:     -2.98494      -0.55775      -1.25358
Nuclear contribution   :      3.85700       0.80913       1.81248
                        -----------------------------------------
Total Dipole Moment    :      0.87206       0.25139       0.55889
                        -----------------------------------------
Magnitude (a.u.)       :      1.06585
Magnitude (Debye)      :      2.70919

Rotational constants in cm-1:     1.414801     0.155881     0.145146
Rotational constants in MHz : 42414.655737  4673.192747  4351.354524

                             ****ORCA TERMINATED NORMALLY****
TOTAL RUN TIME: 0 days 0 hours 3 minutes 27 seconds 889 msec
