                         Program Version 5.0.3 -  RELEASE  -
|  1> ! HF-3c
|  2> !TightSCF
|  3> %scf
|  4>  ConvForced true
|  5>  convergence tight
|  6>  MaxIter 500
|  7> end
|  8>
|  9> %tddft
| 10>  nroots 1
| 11> end
| 12>
| 13> # 	28686
| 14> * xyz 0 1
| 15> 		C   -0.617773  -0.467095  -0.029727
| 16> 		O   -0.572685  -1.603989   0.005964
| 17> 		C    0.621322   0.451030   0.042641
| 18> 		C    1.876516  -0.130303  -0.004300
| 19> 		H   -1.476734  -0.103040  -0.066003
| 20> 		H    0.476684   1.408726   0.011959
| 21> 		H    1.872194  -1.266286   0.100778
| 22> 		H    2.750203   0.370285  -0.257578
| 23> *
| 24>
| 25>                          ****END OF INPUT****

CARTESIAN COORDINATES (ANGSTROEM)
---------------------------------
  C     -0.617773   -0.467095   -0.029727
  O     -0.572685   -1.603989    0.005964
  C      0.621322    0.451030    0.042641
  C      1.876516   -0.130303   -0.004300
  H     -1.476734   -0.103040   -0.066003
  H      0.476684    1.408726    0.011959
  H      1.872194   -1.266286    0.100778
  H      2.750203    0.370285   -0.257578

 Total Charge           Charge          ....    0
 Multiplicity           Mult            ....    1
 Number of Electrons    NEL             ....   30
 Basis Dimension        Dim             ....   24

ORBITAL ENERGIES
----------------

  NO   OCC          E(Eh)            E(eV)
   0   2.0000     -20.394793      -554.9705
   1   2.0000     -11.325838      -308.1917
   2   2.0000     -11.191219      -304.5285
   3   2.0000     -11.183326      -304.3138
   4   2.0000      -1.470441       -40.0127
   5   2.0000      -1.063471       -28.9385
   6   2.0000      -0.904294       -24.6071
   7   2.0000      -0.799566       -21.7573
   8   2.0000      -0.727739       -19.8028
   9   2.0000      -0.626404       -17.0453
  10   2.0000      -0.618074       -16.8187
  11   2.0000      -0.579767       -15.7763
  12   2.0000      -0.546803       -14.8793
  13   2.0000      -0.423464       -11.5230
  14   2.0000      -0.385661       -10.4944
  15   0.0000       0.135115         3.6767
  16   0.0000       0.292446         7.9579
  17   0.0000       0.533849        14.5268
  18   0.0000       0.629355        17.1256
  19   0.0000       0.725793        19.7498

MULLIKEN ATOMIC CHARGES
-----------------------
   0 C :    0.161699
   1 O :   -0.354645
   2 C :   -0.181904
   3 C :   -0.210923
   4 H :    0.140777
   5 H :    0.136175
   6 H :    0.162248
   7 H :    0.146574
Sum of atomic charges:   -0.0000000

LOEWDIN ATOMIC CHARGES
----------------------
   0 C :    0.140315
   1 O :   -0.235016
   2 C :   -0.136577
   3 C :   -0.108698
   4 H :    0.059410
   5 H :    0.076611
   6 H :    0.112019
   7 H :    0.091936

  Mayer bond orders larger than 0.100000
B(  0-C ,  1-O ) :   1.9227 B(  0-C ,  2-C ) :   0.9877 B(  0-C ,  4-H ) :   0.9369
B(  2-C ,  3-C ) :   1.9536 B(  2-C ,  5-H ) :   0.9694 B(  3-C ,  6-H ) :   0.9571
B(  3-C ,  7-H ) :   0.9680

-----------------------------------------------------------------------------
         ABSORPTION SPECTRUM VIA TRANSITION ELECTRIC DIPOLE MOMENTS
-----------------------------------------------------------------------------
State   Energy    Wavelength  fosc         T2        TX        TY        TZ
        (cm-1)      (nm)                 (au**2)    (au)      (au)      (au)
-----------------------------------------------------------------------------
   1   36469.4    274.2   0.000048112   0.00043   0.01726   0.01122   0.00324

Dispersion correction           -0.025947754
FINAL SINGLE POINT ENERGY      -189.260258607244

DIPOLE MOMENT
-------------
                                X             Y             Z
Electronic contribution:     -1.93136      -1.47348       0.12720
Nuclear contribution   :      2.24280       2.17552      -0.19680
                        -----------------------------------------
Total Dipole Moment    :      0.31144       0.70204      -0.06960
                        -----------------------------------------
Magnitude (a.u.)       :      0.77117
Magnitude (Debye)      :      1.96015

Rotational constants in cm-1:     0.783609     0.207987     0.164731
Rotational constants in MHz : 23492.004942  6235.297455  4938.496370

                             ****ORCA TERMINATED NORMALLY****
TOTAL RUN TIME: 0 days 0 hours 0 minutes 11 seconds 854 msec
