                         Program Version 5.0.3 -  RELEASE  -
|  1> ! B3LYP cc-pVDZ
|  2> !TightSCF
|  3> %scf
|  4>  ConvForced true
|  5>  convergence tight
|  6>  MaxIter 500
|  7> end
|  8>
|  9> %tddft
| 10>  nroots 1
| 11> end
| 12>
| 13> # 	13737
| 14> * xyz 0 1
| 15> 		C   -1.184279  -0.302766  -0.022960
| 16> 		O   -2.033171  -0.563323  -0.893761
| 17> 		C    0.126968   0.423282  -0.438891
| 18> 		C    1.172026   0.210326   0.335005
| 19> 		H   -1.358683  -0.658281   1.116392
| 20> 		H    0.084994   1.048579  -1.147995
| 21> 		H    1.170175  -0.769979   1.020986
| 22> 		H    2.060186   0.599762   0.047755
| 23> *
| 24>
| 25>                          ****END OF INPUT****

CARTESIAN COORDINATES (ANGSTROEM)
---------------------------------
  C     -1.184279   -0.302766   -0.022960
  O     -2.033171   -0.563323   -0.893761
  C      0.126968    0.423282   -0.438891
  C      1.172026    0.210326    0.335005
  H     -1.358683   -0.658281    1.116392
  H      0.084994    1.048579   -1.147995
  H      1.170175   -0.769979    1.020986
  H      2.060186    0.599762    0.047755

 Total Charge           Charge          ....    0
 Multiplicity           Mult            ....    1
 Number of Electrons    NEL             ....   30
 Basis Dimension        Dim             ....   76

ORBITAL ENERGIES
----------------

  NO   OCC          E(Eh)            E(eV)
   0   2.0000     -19.142778      -520.9015
   1   2.0000     -10.290227      -280.0113
   2   2.0000     -10.210688      -277.8469
   3   2.0000     -10.201712      -277.6027
   4   2.0000      -1.030536       -28.0423
   5   2.0000      -0.806208       -21.9380
   6   2.0000      -0.635069       -17.2811
   7   2.0000      -0.578519       -15.7423
   8   2.0000      -0.486553       -13.2398
   9   2.0000      -0.459518       -12.5041
  10   2.0000      -0.420225       -11.4349
  11   2.0000      -0.391979       -10.6663
  12   2.0000      -0.383162       -10.4264
  13   2.0000      -0.295433        -8.0392
  14   2.0000      -0.254563        -6.9270
  15   0.0000      -0.061408        -1.6710
  16   0.0000       0.017451         0.4749
  17   0.0000       0.068316         1.8590
  18   0.0000       0.088726         2.4144
  19   0.0000       0.103484         2.8160

MULLIKEN ATOMIC CHARGES
-----------------------
   0 C :    0.124886
   1 O :   -0.213082
   2 C :    0.043606
   3 C :    0.040620
   4 H :    0.016229
   5 H :   -0.066265
   6 H :    0.048716
   7 H :    0.005290
Sum of atomic charges:   -0.0000000

LOEWDIN ATOMIC CHARGES
----------------------
   0 C :   -0.005837
   1 O :   -0.033230
   2 C :   -0.012596
   3 C :   -0.006366
   4 H :    0.011351
   5 H :   -0.013791
   6 H :    0.052954
   7 H :    0.007515

  Mayer bond orders larger than 0.100000
B(  0-C ,  1-O ) :   2.1383 B(  0-C ,  2-C ) :   1.0139 B(  0-C ,  4-H ) :   0.9002
B(  2-C ,  3-C ) :   1.9628 B(  2-C ,  5-H ) :   0.9628 B(  3-C ,  6-H ) :   0.9401
B(  3-C ,  7-H ) :   0.9366

-----------------------------------------------------------------------------
         ABSORPTION SPECTRUM VIA TRANSITION ELECTRIC DIPOLE MOMENTS
-----------------------------------------------------------------------------
State   Energy    Wavelength  fosc         T2        TX        TY        TZ
        (cm-1)      (nm)                 (au**2)    (au)      (au)      (au)
-----------------------------------------------------------------------------
   1   28990.1    344.9   0.000227666   0.00259  -0.04109   0.00824  -0.02879

FINAL SINGLE POINT ENERGY      -191.631159878999

DIPOLE MOMENT
-------------
                                X             Y             Z
Electronic contribution:     -2.89020      -0.25980      -1.47359
Nuclear contribution   :      3.76643       0.52185       1.95284
                        -----------------------------------------
Total Dipole Moment    :      0.87623       0.26205       0.47925
                        -----------------------------------------
Magnitude (a.u.)       :      1.03254
Magnitude (Debye)      :      2.62451

Rotational constants in cm-1:     1.302366     0.156412     0.143351
Rotational constants in MHz : 39043.964874  4689.123334  4297.563096

                             ****ORCA TERMINATED NORMALLY****
TOTAL RUN TIME: 0 days 0 hours 3 minutes 15 seconds 983 msec
