                         Program Version 5.0.3 -  RELEASE  -
|  1> ! HF-3c
|  2> !TightSCF
|  3> %scf
|  4>  ConvForced true
|  5>  convergence tight
|  6>  MaxIter 500
|  7> end
|  8>
|  9> %tddft
| 10>  nroots 1
| 11> end
| 12>
| 13> # 	14837
| 14> * xyz 0 1
| 15> 		C   -1.208658  -0.324663  -0.090852
| 16> 		O   -2.077920  -0.387019  -0.824807
| 17> 		C    0.021614   0.444633  -0.285459
| 18> 		C    1.142261   0.037793   0.307445
| 19> 		H   -1.093898  -0.962365   0.719787
| 20> 		H    0.057006   1.212807  -1.026718
| 21> 		H    1.017608  -0.681584   1.107444
| 22> 		H    2.145090   0.640494   0.085742
| 23> *
| 24>
| 25>                          ****END OF INPUT****

CARTESIAN COORDINATES (ANGSTROEM)
---------------------------------
  C     -1.208658   -0.324663   -0.090852
  O     -2.077920   -0.387019   -0.824807
  C      0.021614    0.444633   -0.285459
  C      1.142261    0.037793    0.307445
  H     -1.093898   -0.962365    0.719787
  H      0.057006    1.212807   -1.026718
  H      1.017608   -0.681584    1.107444
  H      2.145090    0.640494    0.085742

 Total Charge           Charge          ....    0
 Multiplicity           Mult            ....    1
 Number of Electrons    NEL             ....   30
 Basis Dimension        Dim             ....   24

ORBITAL ENERGIES
----------------

  NO   OCC          E(Eh)            E(eV)
   0   2.0000     -20.393658      -554.9397
   1   2.0000     -11.320487      -308.0461
   2   2.0000     -11.189435      -304.4800
   3   2.0000     -11.181808      -304.2725
   4   2.0000      -1.462572       -39.7986
   5   2.0000      -1.092976       -29.7414
   6   2.0000      -0.878417       -23.9029
   7   2.0000      -0.798612       -21.7313
   8   2.0000      -0.684928       -18.6378
   9   2.0000      -0.648465       -17.6456
  10   2.0000      -0.589365       -16.0374
  11   2.0000      -0.572260       -15.5720
  12   2.0000      -0.548359       -14.9216
  13   2.0000      -0.412966       -11.2374
  14   2.0000      -0.401254       -10.9187
  15   0.0000       0.145752         3.9661
  16   0.0000       0.309737         8.4284
  17   0.0000       0.529831        14.4174
  18   0.0000       0.621283        16.9060
  19   0.0000       0.656089        17.8531

MULLIKEN ATOMIC CHARGES
-----------------------
   0 C :    0.182531
   1 O :   -0.357274
   2 C :   -0.178691
   3 C :   -0.217691
   4 H :    0.127183
   5 H :    0.149180
   6 H :    0.139439
   7 H :    0.155323
Sum of atomic charges:   -0.0000000

LOEWDIN ATOMIC CHARGES
----------------------
   0 C :    0.150128
   1 O :   -0.237072
   2 C :   -0.137332
   3 C :   -0.127552
   4 H :    0.056654
   5 H :    0.093935
   6 H :    0.089927
   7 H :    0.111312

  Mayer bond orders larger than 0.100000
B(  0-C ,  1-O ) :   1.9162 B(  0-C ,  2-C ) :   1.0108 B(  0-C ,  4-H ) :   0.9185
B(  2-C ,  3-C ) :   1.9495 B(  2-C ,  5-H ) :   0.9580 B(  3-C ,  6-H ) :   0.9630
B(  3-C ,  7-H ) :   0.9591

-----------------------------------------------------------------------------
         ABSORPTION SPECTRUM VIA TRANSITION ELECTRIC DIPOLE MOMENTS
-----------------------------------------------------------------------------
State   Energy    Wavelength  fosc         T2        TX        TY        TZ
        (cm-1)      (nm)                 (au**2)    (au)      (au)      (au)
-----------------------------------------------------------------------------
   1   36992.3    270.3   0.000061262   0.00055   0.00030  -0.01832   0.01447

Dispersion correction           -0.026311951
FINAL SINGLE POINT ENERGY      -189.299276171901

DIPOLE MOMENT
-------------
                                X             Y             Z
Electronic contribution:     -3.10553      -0.36407      -1.12890
Nuclear contribution   :      4.08984       0.46526       1.70159
                        -----------------------------------------
Total Dipole Moment    :      0.98431       0.10120       0.57269
                        -----------------------------------------
Magnitude (a.u.)       :      1.14328
Magnitude (Debye)      :      2.90598

Rotational constants in cm-1:     1.538165     0.163415     0.150019
Rotational constants in MHz : 46113.037384  4899.063414  4497.456065

                             ****ORCA TERMINATED NORMALLY****
TOTAL RUN TIME: 0 days 0 hours 0 minutes 11 seconds 659 msec
