                         Program Version 5.0.3 -  RELEASE  -
|  1> ! B3LYP cc-pVDZ
|  2> !TightSCF
|  3> %scf
|  4>  ConvForced true
|  5>  convergence tight
|  6>  MaxIter 500
|  7> end
|  8>
|  9> %tddft
| 10>  nroots 1
| 11> end
| 12>
| 13> # 	17044
| 14> * xyz 0 1
| 15> 		C   -1.126033  -0.317668   0.003914
| 16> 		O   -1.325304  -1.469798   0.421141
| 17> 		C    0.017811   0.526806   0.089977
| 18> 		C    1.144062  -0.047525  -0.075362
| 19> 		H   -1.976212   0.194658  -0.647243
| 20> 		H   -0.141594   1.697671   0.464121
| 21> 		H    1.328660  -1.140074  -0.346993
| 22> 		H    2.120708   0.558835   0.088358
| 23> *
| 24>
| 25>                          ****END OF INPUT****

CARTESIAN COORDINATES (ANGSTROEM)
---------------------------------
  C     -1.126033   -0.317668    0.003914
  O     -1.325304   -1.469798    0.421141
  C      0.017811    0.526806    0.089977
  C      1.144062   -0.047525   -0.075362
  H     -1.976212    0.194658   -0.647243
  H     -0.141594    1.697671    0.464121
  H      1.328660   -1.140074   -0.346993
  H      2.120708    0.558835    0.088358

 Total Charge           Charge          ....    0
 Multiplicity           Mult            ....    1
 Number of Electrons    NEL             ....   30
 Basis Dimension        Dim             ....   76

ORBITAL ENERGIES
----------------

  NO   OCC          E(Eh)            E(eV)
   0   2.0000     -19.143811      -520.9296
   1   2.0000     -10.281720      -279.7798
   2   2.0000     -10.218171      -278.0506
   3   2.0000     -10.214732      -277.9570
   4   2.0000      -1.032117       -28.0853
   5   2.0000      -0.819052       -22.2875
   6   2.0000      -0.656212       -17.8564
   7   2.0000      -0.529081       -14.3970
   8   2.0000      -0.496727       -13.5166
   9   2.0000      -0.452281       -12.3072
  10   2.0000      -0.434877       -11.8336
  11   2.0000      -0.373146       -10.1538
  12   2.0000      -0.369710       -10.0603
  13   2.0000      -0.301416        -8.2020
  14   2.0000      -0.253957        -6.9105
  15   0.0000      -0.059310        -1.6139
  16   0.0000       0.017807         0.4846
  17   0.0000       0.059400         1.6164
  18   0.0000       0.079241         2.1563
  19   0.0000       0.099322         2.7027

MULLIKEN ATOMIC CHARGES
-----------------------
   0 C :    0.165175
   1 O :   -0.205738
   2 C :   -0.118295
   3 C :    0.029698
   4 H :   -0.020089
   5 H :    0.056572
   6 H :    0.054947
   7 H :    0.037729
Sum of atomic charges:   -0.0000000

LOEWDIN ATOMIC CHARGES
----------------------
   0 C :   -0.020367
   1 O :   -0.027079
   2 C :   -0.101882
   3 C :   -0.005216
   4 H :   -0.005949
   5 H :    0.069112
   6 H :    0.048285
   7 H :    0.043096

  Mayer bond orders larger than 0.100000
B(  0-C ,  1-O ) :   2.1886 B(  0-C ,  2-C ) :   1.0484 B(  0-C ,  4-H ) :   0.8978
B(  2-C ,  3-C ) :   1.9851 B(  2-C ,  5-H ) :   0.9163 B(  3-C ,  6-H ) :   0.9372
B(  3-C ,  7-H ) :   0.9343

-----------------------------------------------------------------------------
         ABSORPTION SPECTRUM VIA TRANSITION ELECTRIC DIPOLE MOMENTS
-----------------------------------------------------------------------------
State   Energy    Wavelength  fosc         T2        TX        TY        TZ
        (cm-1)      (nm)                 (au**2)    (au)      (au)      (au)
-----------------------------------------------------------------------------
   1   29017.6    344.6   0.000459053   0.00521  -0.05991  -0.01447   0.03754

FINAL SINGLE POINT ENERGY      -191.641831245143

DIPOLE MOMENT
-------------
                                X             Y             Z
Electronic contribution:     -1.96440      -1.70923       0.63007
Nuclear contribution   :      2.53539       2.56927      -0.84603
                        -----------------------------------------
Total Dipole Moment    :      0.57099       0.86004      -0.21596
                        -----------------------------------------
Magnitude (a.u.)       :      1.05467
Magnitude (Debye)      :      2.68077

Rotational constants in cm-1:     0.782817     0.204684     0.168422
Rotational constants in MHz : 23468.272393  6136.280406  5049.160928

                             ****ORCA TERMINATED NORMALLY****
TOTAL RUN TIME: 0 days 0 hours 3 minutes 27 seconds 878 msec
