                         Program Version 5.0.3 -  RELEASE  -
|  1> ! HF-3c
|  2> !TightSCF
|  3> %scf
|  4>  ConvForced true
|  5>  convergence tight
|  6>  MaxIter 500
|  7> end
|  8>
|  9> %tddft
| 10>  nroots 1
| 11> end
| 12>
| 13> # 	5548
| 14> * xyz 0 1
| 15> 		C   -1.155087  -0.346355   0.022299
| 16> 		O   -1.372563  -1.406821   0.572633
| 17> 		C    0.042790   0.444033   0.162319
| 18> 		C    1.288502  -0.018685  -0.186928
| 19> 		H   -2.070600   0.166244  -0.544131
| 20> 		H   -0.175421   1.448705   0.395922
| 21> 		H    1.394127  -0.988517  -0.321266
| 22> 		H    2.118731   0.663222  -0.120951
| 23> *
| 24>
| 25>                          ****END OF INPUT****

CARTESIAN COORDINATES (ANGSTROEM)
---------------------------------
  C     -1.155087   -0.346355    0.022299
  O     -1.372563   -1.406821    0.572633
  C      0.042790    0.444033    0.162319
  C      1.288502   -0.018685   -0.186928
  H     -2.070600    0.166244   -0.544131
  H     -0.175421    1.448705    0.395922
  H      1.394127   -0.988517   -0.321266
  H      2.118731    0.663222   -0.120951

 Total Charge           Charge          ....    0
 Multiplicity           Mult            ....    1
 Number of Electrons    NEL             ....   30
 Basis Dimension        Dim             ....   24

ORBITAL ENERGIES
----------------

  NO   OCC          E(Eh)            E(eV)
   0   2.0000     -20.364604      -554.1490
   1   2.0000     -11.294075      -307.3274
   2   2.0000     -11.198215      -304.7189
   3   2.0000     -11.194478      -304.6172
   4   2.0000      -1.398520       -38.0557
   5   2.0000      -1.083998       -29.4971
   6   2.0000      -0.905776       -24.6474
   7   2.0000      -0.750650       -20.4262
   8   2.0000      -0.701870       -19.0989
   9   2.0000      -0.621099       -16.9010
  10   2.0000      -0.613218       -16.6865
  11   2.0000      -0.566391       -15.4123
  12   2.0000      -0.510466       -13.8905
  13   2.0000      -0.409009       -11.1297
  14   2.0000      -0.392419       -10.6783
  15   0.0000       0.139526         3.7967
  16   0.0000       0.252851         6.8804
  17   0.0000       0.540010        14.6944
  18   0.0000       0.658623        17.9221
  19   0.0000       0.688807        18.7434

MULLIKEN ATOMIC CHARGES
-----------------------
   0 C :    0.167757
   1 O :   -0.348330
   2 C :   -0.162689
   3 C :   -0.241816
   4 H :    0.134999
   5 H :    0.147065
   6 H :    0.150698
   7 H :    0.152315
Sum of atomic charges:   -0.0000000

LOEWDIN ATOMIC CHARGES
----------------------
   0 C :    0.143322
   1 O :   -0.255253
   2 C :   -0.113550
   3 C :   -0.136785
   4 H :    0.079171
   5 H :    0.092406
   6 H :    0.090412
   7 H :    0.100277

  Mayer bond orders larger than 0.100000
B(  0-C ,  1-O ) :   1.9186 B(  0-C ,  2-C ) :   1.0301 B(  0-C ,  4-H ) :   0.9104
B(  2-C ,  3-C ) :   1.9523 B(  2-C ,  5-H ) :   0.9555 B(  3-C ,  6-H ) :   0.9675
B(  3-C ,  7-H ) :   0.9651

-----------------------------------------------------------------------------
         ABSORPTION SPECTRUM VIA TRANSITION ELECTRIC DIPOLE MOMENTS
-----------------------------------------------------------------------------
State   Energy    Wavelength  fosc         T2        TX        TY        TZ
        (cm-1)      (nm)                 (au**2)    (au)      (au)      (au)
-----------------------------------------------------------------------------
   1   32993.2    303.1   0.000424407   0.00423  -0.06464   0.00487  -0.00567

Dispersion correction           -0.025454821
FINAL SINGLE POINT ENERGY      -189.314537317982

DIPOLE MOMENT
-------------
                                X             Y             Z
Electronic contribution:     -2.07370      -1.64923       0.69512
Nuclear contribution   :      2.41587       2.55052      -1.11925
                        -----------------------------------------
Total Dipole Moment    :      0.34217       0.90129      -0.42413
                        -----------------------------------------
Magnitude (a.u.)       :      1.05323
Magnitude (Debye)      :      2.67710

Rotational constants in cm-1:     0.867969     0.185610     0.159979
Rotational constants in MHz : 26021.057229  5564.450376  4796.041384

                             ****ORCA TERMINATED NORMALLY****
TOTAL RUN TIME: 0 days 0 hours 0 minutes 14 seconds 189 msec
