                         Program Version 5.0.3 -  RELEASE  -
|  1> ! B3LYP cc-pVDZ
|  2> !TightSCF
|  3> %scf
|  4>  ConvForced true
|  5>  convergence tight
|  6>  MaxIter 500
|  7> end
|  8>
|  9> %tddft
| 10>  nroots 1
| 11> end
| 12>
| 13> # 	21730
| 14> * xyz 0 1
| 15> 		C   -0.571705  -0.431327  -0.023356
| 16> 		O   -0.568334  -1.629865   0.026660
| 17> 		C    0.622835   0.455598   0.032533
| 18> 		C    1.819558  -0.167246  -0.016134
| 19> 		H   -1.586581   0.002809  -0.175207
| 20> 		H    0.425789   1.591455  -0.050113
| 21> 		H    2.063084  -1.131459  -0.347104
| 22> 		H    2.789585   0.376832   0.251632
| 23> *
| 24>
| 25>                          ****END OF INPUT****

CARTESIAN COORDINATES (ANGSTROEM)
---------------------------------
  C     -0.571705   -0.431327   -0.023356
  O     -0.568334   -1.629865    0.026660
  C      0.622835    0.455598    0.032533
  C      1.819558   -0.167246   -0.016134
  H     -1.586581    0.002809   -0.175207
  H      0.425789    1.591455   -0.050113
  H      2.063084   -1.131459   -0.347104
  H      2.789585    0.376832    0.251632

 Total Charge           Charge          ....    0
 Multiplicity           Mult            ....    1
 Number of Electrons    NEL             ....   30
 Basis Dimension        Dim             ....   76

ORBITAL ENERGIES
----------------

  NO   OCC          E(Eh)            E(eV)
   0   2.0000     -19.132023      -520.6088
   1   2.0000     -10.269222      -279.4397
   2   2.0000     -10.219956      -278.0992
   3   2.0000     -10.217089      -278.0211
   4   2.0000      -1.048586       -28.5335
   5   2.0000      -0.791409       -21.5353
   6   2.0000      -0.651228       -17.7208
   7   2.0000      -0.545730       -14.8501
   8   2.0000      -0.498941       -13.5769
   9   2.0000      -0.454410       -12.3651
  10   2.0000      -0.418646       -11.3919
  11   2.0000      -0.401158       -10.9161
  12   2.0000      -0.378832       -10.3085
  13   2.0000      -0.281044        -7.6476
  14   2.0000      -0.248963        -6.7746
  15   0.0000      -0.072675        -1.9776
  16   0.0000       0.049701         1.3524
  17   0.0000       0.066264         1.8031
  18   0.0000       0.090994         2.4761
  19   0.0000       0.117832         3.2064

MULLIKEN ATOMIC CHARGES
-----------------------
   0 C :    0.179249
   1 O :   -0.184814
   2 C :   -0.138173
   3 C :    0.072114
   4 H :   -0.032870
   5 H :    0.031343
   6 H :    0.034288
   7 H :    0.038863
Sum of atomic charges:    0.0000000

LOEWDIN ATOMIC CHARGES
----------------------
   0 C :   -0.048876
   1 O :    0.000167
   2 C :   -0.087216
   3 C :    0.037050
   4 H :   -0.010946
   5 H :    0.046984
   6 H :    0.023105
   7 H :    0.039733

  Mayer bond orders larger than 0.100000
B(  0-C ,  1-O ) :   2.2026 B(  0-C ,  2-C ) :   1.0424 B(  0-C ,  4-H ) :   0.9255
B(  2-C ,  3-C ) :   1.9244 B(  2-C ,  5-H ) :   0.9429 B(  3-C ,  6-H ) :   0.9527
B(  3-C ,  7-H ) :   0.9521

-----------------------------------------------------------------------------
         ABSORPTION SPECTRUM VIA TRANSITION ELECTRIC DIPOLE MOMENTS
-----------------------------------------------------------------------------
State   Energy    Wavelength  fosc         T2        TX        TY        TZ
        (cm-1)      (nm)                 (au**2)    (au)      (au)      (au)
-----------------------------------------------------------------------------
   1   26419.0    378.5   0.000143815   0.00179  -0.01627  -0.02482   0.03019

FINAL SINGLE POINT ENERGY      -191.669062933425

DIPOLE MOMENT
-------------
                                X             Y             Z
Electronic contribution:     -1.85613      -1.72106       0.20482
Nuclear contribution   :      2.30628       2.57447      -0.30188
                        -----------------------------------------
Total Dipole Moment    :      0.45015       0.85341      -0.09706
                        -----------------------------------------
Magnitude (a.u.)       :      0.96972
Magnitude (Debye)      :      2.46483

Rotational constants in cm-1:     0.728060     0.213095     0.165664
Rotational constants in MHz : 21826.679864  6388.419620  4966.480955

                             ****ORCA TERMINATED NORMALLY****
TOTAL RUN TIME: 0 days 0 hours 3 minutes 22 seconds 101 msec
