                         Program Version 5.0.3 -  RELEASE  -
|  1> ! HF-3c
|  2> !TightSCF
|  3> %scf
|  4>  ConvForced true
|  5>  convergence tight
|  6>  MaxIter 500
|  7> end
|  8>
|  9> %tddft
| 10>  nroots 1
| 11> end
| 12>
| 13> # 	13575
| 14> * xyz 0 1
| 15> 		C   -1.224205  -0.305593   0.005103
| 16> 		O   -1.971444  -0.736005   0.863636
| 17> 		C   -0.027827   0.416822   0.318871
| 18> 		C    1.154738   0.001658  -0.153519
| 19> 		H   -1.221126  -0.575039  -1.034246
| 20> 		H   -0.049450   1.295282   0.998911
| 21> 		H    1.209584  -0.766407  -0.916745
| 22> 		H    2.067791   0.628538  -0.173810
| 23> *
| 24>
| 25>                          ****END OF INPUT****

CARTESIAN COORDINATES (ANGSTROEM)
---------------------------------
  C     -1.224205   -0.305593    0.005103
  O     -1.971444   -0.736005    0.863636
  C     -0.027827    0.416822    0.318871
  C      1.154738    0.001658   -0.153519
  H     -1.221126   -0.575039   -1.034246
  H     -0.049450    1.295282    0.998911
  H      1.209584   -0.766407   -0.916745
  H      2.067791    0.628538   -0.173810

 Total Charge           Charge          ....    0
 Multiplicity           Mult            ....    1
 Number of Electrons    NEL             ....   30
 Basis Dimension        Dim             ....   24

ORBITAL ENERGIES
----------------

  NO   OCC          E(Eh)            E(eV)
   0   2.0000     -20.378828      -554.5361
   1   2.0000     -11.303575      -307.5859
   2   2.0000     -11.191849      -304.5457
   3   2.0000     -11.182191      -304.2829
   4   2.0000      -1.405899       -38.2565
   5   2.0000      -1.090724       -29.6801
   6   2.0000      -0.892299       -24.2807
   7   2.0000      -0.781899       -21.2766
   8   2.0000      -0.672758       -18.3067
   9   2.0000      -0.647107       -17.6087
  10   2.0000      -0.601233       -16.3604
  11   2.0000      -0.541641       -14.7388
  12   2.0000      -0.514661       -14.0046
  13   2.0000      -0.422252       -11.4901
  14   2.0000      -0.395222       -10.7545
  15   0.0000       0.135850         3.6967
  16   0.0000       0.263289         7.1645
  17   0.0000       0.580496        15.7961
  18   0.0000       0.628989        17.1157
  19   0.0000       0.681286        18.5387

MULLIKEN ATOMIC CHARGES
-----------------------
   0 C :    0.157109
   1 O :   -0.333251
   2 C :   -0.166417
   3 C :   -0.234084
   4 H :    0.142356
   5 H :    0.157646
   6 H :    0.131773
   7 H :    0.144869
Sum of atomic charges:   -0.0000000

LOEWDIN ATOMIC CHARGES
----------------------
   0 C :    0.146024
   1 O :   -0.240538
   2 C :   -0.120829
   3 C :   -0.144304
   4 H :    0.075316
   5 H :    0.105042
   6 H :    0.083307
   7 H :    0.095982

  Mayer bond orders larger than 0.100000
B(  0-C ,  1-O ) :   1.9206 B(  0-C ,  2-C ) :   1.0248 B(  0-C ,  4-H ) :   0.9223
B(  2-C ,  3-C ) :   1.9634 B(  2-C ,  5-H ) :   0.9485 B(  3-C ,  6-H ) :   0.9667
B(  3-C ,  7-H ) :   0.9638

-----------------------------------------------------------------------------
         ABSORPTION SPECTRUM VIA TRANSITION ELECTRIC DIPOLE MOMENTS
-----------------------------------------------------------------------------
State   Energy    Wavelength  fosc         T2        TX        TY        TZ
        (cm-1)      (nm)                 (au**2)    (au)      (au)      (au)
-----------------------------------------------------------------------------
   1   32262.8    310.0   0.000101112   0.00103  -0.01407   0.00978   0.02717

Dispersion correction           -0.025849762
FINAL SINGLE POINT ENERGY      -189.327004348899

DIPOLE MOMENT
-------------
                                X             Y             Z
Electronic contribution:     -3.15308      -0.80323       1.32946
Nuclear contribution   :      3.91573       1.19622      -2.03335
                        -----------------------------------------
Total Dipole Moment    :      0.76265       0.39299      -0.70389
                        -----------------------------------------
Magnitude (a.u.)       :      1.10974
Magnitude (Debye)      :      2.82075

Rotational constants in cm-1:     1.254623     0.163555     0.155678
Rotational constants in MHz : 37612.662826  4903.243934  4667.120226

                             ****ORCA TERMINATED NORMALLY****
TOTAL RUN TIME: 0 days 0 hours 0 minutes 15 seconds 577 msec
