                         Program Version 5.0.3 -  RELEASE  -
|  1> ! B3LYP cc-pVDZ
|  2> !TightSCF
|  3> %scf
|  4>  ConvForced true
|  5>  convergence tight
|  6>  MaxIter 500
|  7> end
|  8>
|  9> %tddft
| 10>  nroots 1
| 11> end
| 12>
| 13> # 	10490
| 14> * xyz 0 1
| 15> 		C   -1.204297  -0.360052   0.026874
| 16> 		O   -1.787699  -0.929309  -0.787456
| 17> 		C   -0.011818   0.517572  -0.286901
| 18> 		C    1.201128   0.053750   0.098555
| 19> 		H   -1.552475  -0.357533   1.031503
| 20> 		H   -0.088580   1.309860  -0.891777
| 21> 		H    1.262851  -0.887300   0.789250
| 22> 		H    2.133172   0.610439  -0.017525
| 23> *
| 24>
| 25>                          ****END OF INPUT****

CARTESIAN COORDINATES (ANGSTROEM)
---------------------------------
  C     -1.204297   -0.360052    0.026874
  O     -1.787699   -0.929309   -0.787456
  C     -0.011818    0.517572   -0.286901
  C      1.201128    0.053750    0.098555
  H     -1.552475   -0.357533    1.031503
  H     -0.088580    1.309860   -0.891777
  H      1.262851   -0.887300    0.789250
  H      2.133172    0.610439   -0.017525

 Total Charge           Charge          ....    0
 Multiplicity           Mult            ....    1
 Number of Electrons    NEL             ....   30
 Basis Dimension        Dim             ....   76

ORBITAL ENERGIES
----------------

  NO   OCC          E(Eh)            E(eV)
   0   2.0000     -19.142137      -520.8840
   1   2.0000     -10.272362      -279.5252
   2   2.0000     -10.211520      -277.8696
   3   2.0000     -10.196246      -277.4540
   4   2.0000      -1.084885       -29.5212
   5   2.0000      -0.789270       -21.4771
   6   2.0000      -0.636197       -17.3118
   7   2.0000      -0.576375       -15.6840
   8   2.0000      -0.499310       -13.5869
   9   2.0000      -0.465175       -12.6581
  10   2.0000      -0.442864       -12.0510
  11   2.0000      -0.396423       -10.7872
  12   2.0000      -0.385719       -10.4960
  13   2.0000      -0.283295        -7.7088
  14   2.0000      -0.253413        -6.8957
  15   0.0000      -0.035869        -0.9761
  16   0.0000       0.008034         0.2186
  17   0.0000       0.083095         2.2611
  18   0.0000       0.100048         2.7224
  19   0.0000       0.109982         2.9928

MULLIKEN ATOMIC CHARGES
-----------------------
   0 C :    0.179943
   1 O :   -0.134532
   2 C :   -0.030892
   3 C :   -0.025973
   4 H :   -0.029615
   5 H :   -0.026059
   6 H :    0.034273
   7 H :    0.032854
Sum of atomic charges:    0.0000000

LOEWDIN ATOMIC CHARGES
----------------------
   0 C :   -0.048749
   1 O :    0.067239
   2 C :   -0.039640
   3 C :   -0.030832
   4 H :   -0.016742
   5 H :    0.005318
   6 H :    0.037024
   7 H :    0.026382

  Mayer bond orders larger than 0.100000
B(  0-C ,  1-O ) :   2.2834 B(  0-C ,  2-C ) :   0.9706 B(  0-C ,  4-H ) :   0.9187
B(  2-C ,  3-C ) :   2.0128 B(  2-C ,  5-H ) :   0.9521 B(  3-C ,  6-H ) :   0.9470
B(  3-C ,  7-H ) :   0.9497

-----------------------------------------------------------------------------
         ABSORPTION SPECTRUM VIA TRANSITION ELECTRIC DIPOLE MOMENTS
-----------------------------------------------------------------------------
State   Energy    Wavelength  fosc         T2        TX        TY        TZ
        (cm-1)      (nm)                 (au**2)    (au)      (au)      (au)
-----------------------------------------------------------------------------
   1   34291.7    291.6   0.001845845   0.01772  -0.13145  -0.00954  -0.01872

FINAL SINGLE POINT ENERGY      -191.622192702899

DIPOLE MOMENT
-------------
                                X             Y             Z
Electronic contribution:     -2.92805      -0.92736      -1.27623
Nuclear contribution   :      3.43526       1.40281       1.75867
                        -----------------------------------------
Total Dipole Moment    :      0.50721       0.47545       0.48244
                        -----------------------------------------
Magnitude (a.u.)       :      0.84620
Magnitude (Debye)      :      2.15088

Rotational constants in cm-1:     1.079180     0.166130     0.160817
Rotational constants in MHz : 32352.990958  4980.449117  4821.167770

                             ****ORCA TERMINATED NORMALLY****
TOTAL RUN TIME: 0 days 0 hours 3 minutes 25 seconds 136 msec
