                         Program Version 5.0.3 -  RELEASE  -
|  1> ! B3LYP cc-pVDZ
|  2> !TightSCF
|  3> %scf
|  4>  ConvForced true
|  5>  convergence tight
|  6>  MaxIter 500
|  7> end
|  8>
|  9> %tddft
| 10>  nroots 1
| 11> end
| 12>
| 13> # 	24023
| 14> * xyz 0 1
| 15> 		C   -0.565944  -0.403313   0.028788
| 16> 		O   -0.589261  -1.670670  -0.014195
| 17> 		C    0.631169   0.428452  -0.046561
| 18> 		C    1.847021  -0.086052   0.052121
| 19> 		H   -1.625722  -0.027176   0.118121
| 20> 		H    0.383268   1.455199  -0.070004
| 21> 		H    1.805432  -1.414394  -0.190517
| 22> 		H    2.964969   0.450319  -0.046445
| 23> *
| 24>
| 25>                          ****END OF INPUT****

CARTESIAN COORDINATES (ANGSTROEM)
---------------------------------
  C     -0.565944   -0.403313    0.028788
  O     -0.589261   -1.670670   -0.014195
  C      0.631169    0.428452   -0.046561
  C      1.847021   -0.086052    0.052121
  H     -1.625722   -0.027176    0.118121
  H      0.383268    1.455199   -0.070004
  H      1.805432   -1.414394   -0.190517
  H      2.964969    0.450319   -0.046445

 Total Charge           Charge          ....    0
 Multiplicity           Mult            ....    1
 Number of Electrons    NEL             ....   30
 Basis Dimension        Dim             ....   76

ORBITAL ENERGIES
----------------

  NO   OCC          E(Eh)            E(eV)
   0   2.0000     -19.134349      -520.6721
   1   2.0000     -10.277842      -279.6743
   2   2.0000     -10.245964      -278.8069
   3   2.0000     -10.210669      -277.8464
   4   2.0000      -1.014565       -27.6077
   5   2.0000      -0.800473       -21.7820
   6   2.0000      -0.649479       -17.6732
   7   2.0000      -0.530660       -14.4400
   8   2.0000      -0.503881       -13.7113
   9   2.0000      -0.442813       -12.0495
  10   2.0000      -0.410095       -11.1592
  11   2.0000      -0.385416       -10.4877
  12   2.0000      -0.346291        -9.4231
  13   2.0000      -0.290005        -7.8914
  14   2.0000      -0.252517        -6.8713
  15   0.0000      -0.079654        -2.1675
  16   0.0000       0.038950         1.0599
  17   0.0000       0.050288         1.3684
  18   0.0000       0.065545         1.7836
  19   0.0000       0.108719         2.9584

MULLIKEN ATOMIC CHARGES
-----------------------
   0 C :    0.156663
   1 O :   -0.239667
   2 C :   -0.000331
   3 C :   -0.073046
   4 H :    0.004734
   5 H :   -0.017505
   6 H :    0.087527
   7 H :    0.081626
Sum of atomic charges:    0.0000000

LOEWDIN ATOMIC CHARGES
----------------------
   0 C :   -0.003078
   1 O :   -0.061235
   2 C :   -0.095825
   3 C :   -0.012344
   4 H :    0.012385
   5 H :    0.022394
   6 H :    0.075056
   7 H :    0.062647

  Mayer bond orders larger than 0.100000
B(  0-C ,  1-O ) :   2.1001 B(  0-C ,  2-C ) :   1.0656 B(  0-C ,  4-H ) :   0.9395
B(  1-O ,  3-C ) :   0.1005 B(  2-C ,  3-C ) :   1.9062 B(  2-C ,  5-H ) :   0.9539
B(  3-C ,  6-H ) :   0.8933 B(  3-C ,  7-H ) :   0.9328

-----------------------------------------------------------------------------
         ABSORPTION SPECTRUM VIA TRANSITION ELECTRIC DIPOLE MOMENTS
-----------------------------------------------------------------------------
State   Energy    Wavelength  fosc         T2        TX        TY        TZ
        (cm-1)      (nm)                 (au**2)    (au)      (au)      (au)
-----------------------------------------------------------------------------
   1   24816.4    403.0   0.000316312   0.00420   0.04627  -0.00228   0.04528

FINAL SINGLE POINT ENERGY      -191.642907436874

DIPOLE MOMENT
-------------
                                X             Y             Z
Electronic contribution:     -1.76400      -1.22882       0.13688
Nuclear contribution   :      2.15223       2.22448      -0.17705
                        -----------------------------------------
Total Dipole Moment    :      0.38823       0.99566      -0.04017
                        -----------------------------------------
Magnitude (a.u.)       :      1.06943
Magnitude (Debye)      :      2.71828

Rotational constants in cm-1:     0.744784     0.203605     0.160287
Rotational constants in MHz : 22328.065914  6103.919855  4805.295836

                             ****ORCA TERMINATED NORMALLY****
TOTAL RUN TIME: 0 days 0 hours 3 minutes 9 seconds 887 msec
