                         Program Version 5.0.3 -  RELEASE  -
|  1> ! B3LYP cc-pVDZ
|  2> !TightSCF
|  3> %scf
|  4>  ConvForced true
|  5>  convergence tight
|  6>  MaxIter 500
|  7> end
|  8>
|  9> %tddft
| 10>  nroots 1
| 11> end
| 12>
| 13> # 	14290
| 14> * xyz 0 1
| 15> 		C   -1.131340  -0.288760   0.027031
| 16> 		O   -1.821269  -0.798608   0.954224
| 17> 		C   -0.005908   0.491371   0.193259
| 18> 		C    1.212804   0.037015  -0.170997
| 19> 		H   -1.459936  -0.567763  -0.906814
| 20> 		H   -0.162862   1.420236   0.724711
| 21> 		H    1.154257  -0.885812  -0.726951
| 22> 		H    2.248778   0.631309  -0.140004
| 23> *
| 24>
| 25>                          ****END OF INPUT****

CARTESIAN COORDINATES (ANGSTROEM)
---------------------------------
  C     -1.131340   -0.288760    0.027031
  O     -1.821269   -0.798608    0.954224
  C     -0.005908    0.491371    0.193259
  C      1.212804    0.037015   -0.170997
  H     -1.459936   -0.567763   -0.906814
  H     -0.162862    1.420236    0.724711
  H      1.154257   -0.885812   -0.726951
  H      2.248778    0.631309   -0.140004

 Total Charge           Charge          ....    0
 Multiplicity           Mult            ....    1
 Number of Electrons    NEL             ....   30
 Basis Dimension        Dim             ....   76

ORBITAL ENERGIES
----------------

  NO   OCC          E(Eh)            E(eV)
   0   2.0000     -19.135139      -520.6936
   1   2.0000     -10.266771      -279.3730
   2   2.0000     -10.224139      -278.2130
   3   2.0000     -10.207996      -277.7737
   4   2.0000      -1.019398       -27.7392
   5   2.0000      -0.814385       -22.1605
   6   2.0000      -0.661268       -17.9940
   7   2.0000      -0.578162       -15.7326
   8   2.0000      -0.494515       -13.4564
   9   2.0000      -0.463913       -12.6237
  10   2.0000      -0.428853       -11.6697
  11   2.0000      -0.391384       -10.6501
  12   2.0000      -0.357151        -9.7186
  13   2.0000      -0.288154        -7.8411
  14   2.0000      -0.252703        -6.8764
  15   0.0000      -0.062766        -1.7080
  16   0.0000       0.000924         0.0251
  17   0.0000       0.072725         1.9789
  18   0.0000       0.089870         2.4455
  19   0.0000       0.119016         3.2386

MULLIKEN ATOMIC CHARGES
-----------------------
   0 C :    0.195643
   1 O :   -0.235797
   2 C :   -0.034534
   3 C :   -0.004230
   4 H :   -0.024405
   5 H :    0.016610
   6 H :    0.020575
   7 H :    0.066140
Sum of atomic charges:    0.0000000

LOEWDIN ATOMIC CHARGES
----------------------
   0 C :   -0.001694
   1 O :   -0.041613
   2 C :   -0.054409
   3 C :   -0.015773
   4 H :   -0.008010
   5 H :    0.040887
   6 H :    0.024817
   7 H :    0.055794

  Mayer bond orders larger than 0.100000
B(  0-C ,  1-O ) :   2.1506 B(  0-C ,  2-C ) :   1.0646 B(  0-C ,  4-H ) :   0.9474
B(  2-C ,  3-C ) :   1.9738 B(  2-C ,  5-H ) :   0.9376 B(  3-C ,  6-H ) :   0.9366
B(  3-C ,  7-H ) :   0.9444

-----------------------------------------------------------------------------
         ABSORPTION SPECTRUM VIA TRANSITION ELECTRIC DIPOLE MOMENTS
-----------------------------------------------------------------------------
State   Energy    Wavelength  fosc         T2        TX        TY        TZ
        (cm-1)      (nm)                 (au**2)    (au)      (au)      (au)
-----------------------------------------------------------------------------
   1   27734.1    360.6   0.000405496   0.00481   0.06478  -0.00069  -0.02482

FINAL SINGLE POINT ENERGY      -191.646096811064

DIPOLE MOMENT
-------------
                                X             Y             Z
Electronic contribution:     -2.65730      -0.66880       1.27082
Nuclear contribution   :      3.41977       1.17388      -1.96473
                        -----------------------------------------
Total Dipole Moment    :      0.76247       0.50508      -0.69391
                        -----------------------------------------
Magnitude (a.u.)       :      1.14803
Magnitude (Debye)      :      2.91807

Rotational constants in cm-1:     1.173663     0.163368     0.159052
Rotational constants in MHz : 35185.545032  4897.651710  4768.248557

                             ****ORCA TERMINATED NORMALLY****
TOTAL RUN TIME: 0 days 0 hours 3 minutes 21 seconds 141 msec
