                         Program Version 5.0.3 -  RELEASE  -
|  1> ! B3LYP cc-pVDZ
|  2> !TightSCF
|  3> %scf
|  4>  ConvForced true
|  5>  convergence tight
|  6>  MaxIter 500
|  7> end
|  8>
|  9> %tddft
| 10>  nroots 1
| 11> end
| 12>
| 13> # 	15684
| 14> * xyz 0 1
| 15> 		C   -1.191243  -0.366801  -0.002862
| 16> 		O   -1.386607  -1.426666  -0.557303
| 17> 		C    0.025038   0.513869  -0.139655
| 18> 		C    1.254093   0.000973   0.057020
| 19> 		H   -1.966438   0.005175   0.568554
| 20> 		H   -0.153697   1.636117  -0.301511
| 21> 		H    1.284335  -1.142284   0.343296
| 22> 		H    2.183569   0.688769   0.033576
| 23> *
| 24>
| 25>                          ****END OF INPUT****

CARTESIAN COORDINATES (ANGSTROEM)
---------------------------------
  C     -1.191243   -0.366801   -0.002862
  O     -1.386607   -1.426666   -0.557303
  C      0.025038    0.513869   -0.139655
  C      1.254093    0.000973    0.057020
  H     -1.966438    0.005175    0.568554
  H     -0.153697    1.636117   -0.301511
  H      1.284335   -1.142284    0.343296
  H      2.183569    0.688769    0.033576

 Total Charge           Charge          ....    0
 Multiplicity           Mult            ....    1
 Number of Electrons    NEL             ....   30
 Basis Dimension        Dim             ....   76

ORBITAL ENERGIES
----------------

  NO   OCC          E(Eh)            E(eV)
   0   2.0000     -19.139274      -520.8061
   1   2.0000     -10.271817      -279.5104
   2   2.0000     -10.224045      -278.2104
   3   2.0000     -10.213134      -277.9135
   4   2.0000      -1.046205       -28.4687
   5   2.0000      -0.788183       -21.4475
   6   2.0000      -0.650337       -17.6966
   7   2.0000      -0.545010       -14.8305
   8   2.0000      -0.500766       -13.6265
   9   2.0000      -0.439154       -11.9500
  10   2.0000      -0.434843       -11.8327
  11   2.0000      -0.383676       -10.4404
  12   2.0000      -0.377299       -10.2668
  13   2.0000      -0.287679        -7.8282
  14   2.0000      -0.253713        -6.9039
  15   0.0000      -0.052150        -1.4191
  16   0.0000       0.017364         0.4725
  17   0.0000       0.066597         1.8122
  18   0.0000       0.077751         2.1157
  19   0.0000       0.117138         3.1875

MULLIKEN ATOMIC CHARGES
-----------------------
   0 C :    0.213050
   1 O :   -0.193026
   2 C :   -0.115509
   3 C :   -0.009644
   4 H :   -0.030928
   5 H :    0.025115
   6 H :    0.057926
   7 H :    0.053016
Sum of atomic charges:    0.0000000

LOEWDIN ATOMIC CHARGES
----------------------
   0 C :   -0.017885
   1 O :    0.000597
   2 C :   -0.078765
   3 C :   -0.025612
   4 H :   -0.017205
   5 H :    0.042339
   6 H :    0.051226
   7 H :    0.045305

  Mayer bond orders larger than 0.100000
B(  0-C ,  1-O ) :   2.2065 B(  0-C ,  2-C ) :   1.0078 B(  0-C ,  4-H ) :   0.9302
B(  2-C ,  3-C ) :   1.9842 B(  2-C ,  5-H ) :   0.9342 B(  3-C ,  6-H ) :   0.9316
B(  3-C ,  7-H ) :   0.9404

-----------------------------------------------------------------------------
         ABSORPTION SPECTRUM VIA TRANSITION ELECTRIC DIPOLE MOMENTS
-----------------------------------------------------------------------------
State   Energy    Wavelength  fosc         T2        TX        TY        TZ
        (cm-1)      (nm)                 (au**2)    (au)      (au)      (au)
-----------------------------------------------------------------------------
   1   30562.0    327.2   0.000111379   0.00120   0.02896   0.01842   0.00468

FINAL SINGLE POINT ENERGY      -191.649882156961

DIPOLE MOMENT
-------------
                                X             Y             Z
Electronic contribution:     -2.18472      -1.59114      -0.79823
Nuclear contribution   :      2.57249       2.42715       1.22043
                        -----------------------------------------
Total Dipole Moment    :      0.38777       0.83602       0.42219
                        -----------------------------------------
Magnitude (a.u.)       :      1.01367
Magnitude (Debye)      :      2.57655

Rotational constants in cm-1:     0.828750     0.185017     0.157698
Rotational constants in MHz : 24845.313085  5546.682904  4727.677033

                             ****ORCA TERMINATED NORMALLY****
TOTAL RUN TIME: 0 days 0 hours 2 minutes 53 seconds 639 msec
