                         Program Version 5.0.3 -  RELEASE  -
|  1> ! HF-3c
|  2> !TightSCF
|  3> %scf
|  4>  ConvForced true
|  5>  convergence tight
|  6>  MaxIter 500
|  7> end
|  8>
|  9> %tddft
| 10>  nroots 1
| 11> end
| 12>
| 13> # 	11857
| 14> * xyz 0 1
| 15> 		C   -1.126241  -0.517371  -0.005635
| 16> 		O   -2.095661  -0.567631  -0.731977
| 17> 		C   -0.051625   0.360816  -0.460659
| 18> 		C    1.162745   0.108946   0.191005
| 19> 		H   -0.943396  -0.843653   0.986588
| 20> 		H   -0.229134   1.201763  -1.181569
| 21> 		H    1.130241  -0.615499   1.111703
| 22> 		H    2.200471   0.863706   0.088910
| 23> *
| 24>
| 25>                          ****END OF INPUT****

CARTESIAN COORDINATES (ANGSTROEM)
---------------------------------
  C     -1.126241   -0.517371   -0.005635
  O     -2.095661   -0.567631   -0.731977
  C     -0.051625    0.360816   -0.460659
  C      1.162745    0.108946    0.191005
  H     -0.943396   -0.843653    0.986588
  H     -0.229134    1.201763   -1.181569
  H      1.130241   -0.615499    1.111703
  H      2.200471    0.863706    0.088910

 Total Charge           Charge          ....    0
 Multiplicity           Mult            ....    1
 Number of Electrons    NEL             ....   30
 Basis Dimension        Dim             ....   24

ORBITAL ENERGIES
----------------

  NO   OCC          E(Eh)            E(eV)
   0   2.0000     -20.358173      -553.9740
   1   2.0000     -11.292791      -307.2925
   2   2.0000     -11.174974      -304.0865
   3   2.0000     -11.169160      -303.9283
   4   2.0000      -1.398394       -38.0522
   5   2.0000      -1.059574       -28.8325
   6   2.0000      -0.851111       -23.1599
   7   2.0000      -0.774704       -21.0808
   8   2.0000      -0.646308       -17.5869
   9   2.0000      -0.617743       -16.8096
  10   2.0000      -0.568449       -15.4683
  11   2.0000      -0.521941       -14.2027
  12   2.0000      -0.512491       -13.9456
  13   2.0000      -0.405869       -11.0443
  14   2.0000      -0.365173        -9.9369
  15   0.0000       0.134282         3.6540
  16   0.0000       0.282579         7.6894
  17   0.0000       0.468637        12.7523
  18   0.0000       0.549785        14.9604
  19   0.0000       0.621246        16.9050

MULLIKEN ATOMIC CHARGES
-----------------------
   0 C :    0.150615
   1 O :   -0.349277
   2 C :   -0.174254
   3 C :   -0.192322
   4 H :    0.141675
   5 H :    0.155910
   6 H :    0.126329
   7 H :    0.141326
Sum of atomic charges:    0.0000000

LOEWDIN ATOMIC CHARGES
----------------------
   0 C :    0.140563
   1 O :   -0.257414
   2 C :   -0.137615
   3 C :   -0.117323
   4 H :    0.075548
   5 H :    0.105011
   6 H :    0.085777
   7 H :    0.105452

  Mayer bond orders larger than 0.100000
B(  0-C ,  1-O ) :   1.8932 B(  0-C ,  2-C ) :   1.0444 B(  0-C ,  4-H ) :   0.9244
B(  2-C ,  3-C ) :   1.9202 B(  2-C ,  5-H ) :   0.9567 B(  3-C ,  6-H ) :   0.9619
B(  3-C ,  7-H ) :   0.9583

-----------------------------------------------------------------------------
         ABSORPTION SPECTRUM VIA TRANSITION ELECTRIC DIPOLE MOMENTS
-----------------------------------------------------------------------------
State   Energy    Wavelength  fosc         T2        TX        TY        TZ
        (cm-1)      (nm)                 (au**2)    (au)      (au)      (au)
-----------------------------------------------------------------------------
   1   32006.3    312.4   0.000095278   0.00098   0.02721   0.01509  -0.00344

Dispersion correction           -0.025776195
FINAL SINGLE POINT ENERGY      -189.290546998436

DIPOLE MOMENT
-------------
                                X             Y             Z
Electronic contribution:     -3.06930      -0.94660      -1.19258
Nuclear contribution   :      4.11289       1.16807       1.87368
                        -----------------------------------------
Total Dipole Moment    :      1.04358       0.22147       0.68110
                        -----------------------------------------
Magnitude (a.u.)       :      1.26571
Magnitude (Debye)      :      3.21717

Rotational constants in cm-1:     1.334178     0.164019     0.147685
Rotational constants in MHz : 39997.655045  4917.179356  4427.492702

                             ****ORCA TERMINATED NORMALLY****
TOTAL RUN TIME: 0 days 0 hours 0 minutes 8 seconds 974 msec
