                         Program Version 5.0.3 -  RELEASE  -
|  1> ! B3LYP cc-pVDZ
|  2> !TightSCF
|  3> %scf
|  4>  ConvForced true
|  5>  convergence tight
|  6>  MaxIter 500
|  7> end
|  8>
|  9> %tddft
| 10>  nroots 1
| 11> end
| 12>
| 13> # 	24985
| 14> * xyz 0 1
| 15> 		C   -0.519361  -0.403987   0.012822
| 16> 		O   -0.557373  -1.580241  -0.000332
| 17> 		C    0.572802   0.380553   0.026360
| 18> 		C    1.808895  -0.181597  -0.055467
| 19> 		H   -1.547627   0.089789  -0.185822
| 20> 		H    0.372914   1.490317   0.038728
| 21> 		H    1.936091  -1.127211   0.234560
| 22> 		H    2.812948   0.339842   0.119231
| 23> *
| 24>
| 25>                          ****END OF INPUT****

CARTESIAN COORDINATES (ANGSTROEM)
---------------------------------
  C     -0.519361   -0.403987    0.012822
  O     -0.557373   -1.580241   -0.000332
  C      0.572802    0.380553    0.026360
  C      1.808895   -0.181597   -0.055467
  H     -1.547627    0.089789   -0.185822
  H      0.372914    1.490317    0.038728
  H      1.936091   -1.127211    0.234560
  H      2.812948    0.339842    0.119231

 Total Charge           Charge          ....    0
 Multiplicity           Mult            ....    1
 Number of Electrons    NEL             ....   30
 Basis Dimension        Dim             ....   76

ORBITAL ENERGIES
----------------

  NO   OCC          E(Eh)            E(eV)
   0   2.0000     -19.127829      -520.4947
   1   2.0000     -10.259236      -279.1680
   2   2.0000     -10.218716      -278.0654
   3   2.0000     -10.208442      -277.7858
   4   2.0000      -1.062439       -28.9104
   5   2.0000      -0.811993       -22.0954
   6   2.0000      -0.677749       -18.4425
   7   2.0000      -0.537962       -14.6387
   8   2.0000      -0.514719       -14.0062
   9   2.0000      -0.459373       -12.5002
  10   2.0000      -0.422134       -11.4868
  11   2.0000      -0.407854       -11.0983
  12   2.0000      -0.380198       -10.3457
  13   2.0000      -0.288986        -7.8637
  14   2.0000      -0.248251        -6.7553
  15   0.0000      -0.085156        -2.3172
  16   0.0000       0.057272         1.5585
  17   0.0000       0.076821         2.0904
  18   0.0000       0.096988         2.6392
  19   0.0000       0.127571         3.4714

MULLIKEN ATOMIC CHARGES
-----------------------
   0 C :    0.153054
   1 O :   -0.165999
   2 C :   -0.091116
   3 C :    0.091559
   4 H :   -0.050410
   5 H :    0.007624
   6 H :    0.010701
   7 H :    0.044587
Sum of atomic charges:   -0.0000000

LOEWDIN ATOMIC CHARGES
----------------------
   0 C :   -0.100113
   1 O :    0.027582
   2 C :   -0.072399
   3 C :    0.058719
   4 H :   -0.009755
   5 H :    0.043285
   6 H :    0.006887
   7 H :    0.045794

  Mayer bond orders larger than 0.100000
B(  0-C ,  1-O ) :   2.2161 B(  0-C ,  2-C ) :   1.1286 B(  0-C ,  4-H ) :   0.9167
B(  1-O ,  3-C ) :   0.1246 B(  2-C ,  3-C ) :   1.9005 B(  2-C ,  5-H ) :   0.9432
B(  3-C ,  6-H ) :   0.9398 B(  3-C ,  7-H ) :   0.9531

-----------------------------------------------------------------------------
         ABSORPTION SPECTRUM VIA TRANSITION ELECTRIC DIPOLE MOMENTS
-----------------------------------------------------------------------------
State   Energy    Wavelength  fosc         T2        TX        TY        TZ
        (cm-1)      (nm)                 (au**2)    (au)      (au)      (au)
-----------------------------------------------------------------------------
   1   23728.7    421.4   0.000354679   0.00492   0.05659  -0.00134  -0.04143

FINAL SINGLE POINT ENERGY      -191.660022980938

DIPOLE MOMENT
-------------
                                X             Y             Z
Electronic contribution:     -1.64548      -1.71395      -0.09949
Nuclear contribution   :      2.19908       2.53111       0.19341
                        -----------------------------------------
Total Dipole Moment    :      0.55360       0.81717       0.09392
                        -----------------------------------------
Magnitude (a.u.)       :      0.99149
Magnitude (Debye)      :      2.52017

Rotational constants in cm-1:     0.776000     0.228122     0.176863
Rotational constants in MHz : 23263.899474  6838.919909  5302.227097

                             ****ORCA TERMINATED NORMALLY****
TOTAL RUN TIME: 0 days 0 hours 3 minutes 1 seconds 305 msec
