                         Program Version 5.0.3 -  RELEASE  -
|  1> ! HF-3c
|  2> !TightSCF
|  3> %scf
|  4>  ConvForced true
|  5>  convergence tight
|  6>  MaxIter 500
|  7> end
|  8>
|  9> %tddft
| 10>  nroots 1
| 11> end
| 12>
| 13> # 	21354
| 14> * xyz 0 1
| 15> 		C   -0.591067  -0.384724   0.017589
| 16> 		O   -0.531056  -1.660404  -0.018718
| 17> 		C    0.625610   0.461601  -0.042972
| 18> 		C    1.789382  -0.174431   0.049807
| 19> 		H   -1.572304   0.130480   0.228559
| 20> 		H    0.431523   1.585988  -0.063868
| 21> 		H    1.948251  -1.246294  -0.028576
| 22> 		H    2.848780   0.329640  -0.143852
| 23> *
| 24>
| 25>                          ****END OF INPUT****

CARTESIAN COORDINATES (ANGSTROEM)
---------------------------------
  C     -0.591067   -0.384724    0.017589
  O     -0.531056   -1.660404   -0.018718
  C      0.625610    0.461601   -0.042972
  C      1.789382   -0.174431    0.049807
  H     -1.572304    0.130480    0.228559
  H      0.431523    1.585988   -0.063868
  H      1.948251   -1.246294   -0.028576
  H      2.848780    0.329640   -0.143852

 Total Charge           Charge          ....    0
 Multiplicity           Mult            ....    1
 Number of Electrons    NEL             ....   30
 Basis Dimension        Dim             ....   24

ORBITAL ENERGIES
----------------

  NO   OCC          E(Eh)            E(eV)
   0   2.0000     -20.336562      -553.3860
   1   2.0000     -11.273738      -306.7740
   2   2.0000     -11.189725      -304.4879
   3   2.0000     -11.188111      -304.4440
   4   2.0000      -1.347519       -36.6678
   5   2.0000      -1.069802       -29.1108
   6   2.0000      -0.879768       -23.9397
   7   2.0000      -0.736266       -20.0348
   8   2.0000      -0.677037       -18.4231
   9   2.0000      -0.611434       -16.6380
  10   2.0000      -0.562185       -15.2978
  11   2.0000      -0.509251       -13.8574
  12   2.0000      -0.504236       -13.7210
  13   2.0000      -0.409514       -11.1434
  14   2.0000      -0.382765       -10.4156
  15   0.0000       0.126069         3.4305
  16   0.0000       0.297770         8.1027
  17   0.0000       0.487150        13.2560
  18   0.0000       0.589150        16.0316
  19   0.0000       0.629615        17.1327

MULLIKEN ATOMIC CHARGES
-----------------------
   0 C :    0.147607
   1 O :   -0.350805
   2 C :   -0.182212
   3 C :   -0.200742
   4 H :    0.137158
   5 H :    0.148397
   6 H :    0.159231
   7 H :    0.141367
Sum of atomic charges:   -0.0000000

LOEWDIN ATOMIC CHARGES
----------------------
   0 C :    0.142994
   1 O :   -0.276997
   2 C :   -0.138120
   3 C :   -0.108415
   4 H :    0.078130
   5 H :    0.100132
   6 H :    0.103873
   7 H :    0.098402

  Mayer bond orders larger than 0.100000
B(  0-C ,  1-O ) :   1.8925 B(  0-C ,  2-C ) :   1.0373 B(  0-C ,  4-H ) :   0.9315
B(  2-C ,  3-C ) :   1.9389 B(  2-C ,  5-H ) :   0.9552 B(  3-C ,  6-H ) :   0.9576
B(  3-C ,  7-H ) :   0.9610

-----------------------------------------------------------------------------
         ABSORPTION SPECTRUM VIA TRANSITION ELECTRIC DIPOLE MOMENTS
-----------------------------------------------------------------------------
State   Energy    Wavelength  fosc         T2        TX        TY        TZ
        (cm-1)      (nm)                 (au**2)    (au)      (au)      (au)
-----------------------------------------------------------------------------
   1   29360.0    340.6   0.000022598   0.00025   0.00647   0.00001  -0.01454

Dispersion correction           -0.025472496
FINAL SINGLE POINT ENERGY      -189.338502419664

DIPOLE MOMENT
-------------
                                X             Y             Z
Electronic contribution:     -1.93644      -1.55182       0.01894
Nuclear contribution   :      2.27348       2.53552      -0.00660
                        -----------------------------------------
Total Dipole Moment    :      0.33704       0.98370       0.01234
                        -----------------------------------------
Magnitude (a.u.)       :      1.03991
Magnitude (Debye)      :      2.64325

Rotational constants in cm-1:     0.678573     0.219275     0.166179
Rotational constants in MHz : 20343.098318  6573.694279  4981.927552

                             ****ORCA TERMINATED NORMALLY****
TOTAL RUN TIME: 0 days 0 hours 0 minutes 13 seconds 417 msec
