                         Program Version 5.0.3 -  RELEASE  -
|  1> ! B3LYP cc-pVDZ
|  2> !TightSCF
|  3> %scf
|  4>  ConvForced true
|  5>  convergence tight
|  6>  MaxIter 500
|  7> end
|  8>
|  9> %tddft
| 10>  nroots 1
| 11> end
| 12>
| 13> # 	16879
| 14> * xyz 0 1
| 15> 		C   -1.154915  -0.455539  -0.138078
| 16> 		O   -2.218010  -0.368260  -0.738221
| 17> 		C   -0.055510   0.383560  -0.315803
| 18> 		C    1.145152   0.114618   0.409771
| 19> 		H   -0.947784  -0.895150   0.764436
| 20> 		H   -0.004056   1.112671  -1.316779
| 21> 		H    1.135223  -0.720612   0.982411
| 22> 		H    2.049645   0.718063   0.343544
| 23> *
| 24>
| 25>                          ****END OF INPUT****

CARTESIAN COORDINATES (ANGSTROEM)
---------------------------------
  C     -1.154915   -0.455539   -0.138078
  O     -2.218010   -0.368260   -0.738221
  C     -0.055510    0.383560   -0.315803
  C      1.145152    0.114618    0.409771
  H     -0.947784   -0.895150    0.764436
  H     -0.004056    1.112671   -1.316779
  H      1.135223   -0.720612    0.982411
  H      2.049645    0.718063    0.343544

 Total Charge           Charge          ....    0
 Multiplicity           Mult            ....    1
 Number of Electrons    NEL             ....   30
 Basis Dimension        Dim             ....   76

ORBITAL ENERGIES
----------------

  NO   OCC          E(Eh)            E(eV)
   0   2.0000     -19.134924      -520.6878
   1   2.0000     -10.260572      -279.2044
   2   2.0000     -10.231681      -278.4182
   3   2.0000     -10.223866      -278.2055
   4   2.0000      -1.035344       -28.1731
   5   2.0000      -0.808212       -21.9926
   6   2.0000      -0.671923       -18.2840
   7   2.0000      -0.570748       -15.5308
   8   2.0000      -0.476011       -12.9529
   9   2.0000      -0.472313       -12.8523
  10   2.0000      -0.422223       -11.4893
  11   2.0000      -0.395137       -10.7522
  12   2.0000      -0.381944       -10.3932
  13   2.0000      -0.283385        -7.7113
  14   2.0000      -0.254177        -6.9165
  15   0.0000      -0.087122        -2.3707
  16   0.0000       0.040148         1.0925
  17   0.0000       0.066175         1.8007
  18   0.0000       0.076501         2.0817
  19   0.0000       0.125484         3.4146

MULLIKEN ATOMIC CHARGES
-----------------------
   0 C :    0.249126
   1 O :   -0.213811
   2 C :   -0.156833
   3 C :    0.072101
   4 H :   -0.051590
   5 H :    0.038927
   6 H :    0.011667
   7 H :    0.050413
Sum of atomic charges:   -0.0000000

LOEWDIN ATOMIC CHARGES
----------------------
   0 C :   -0.067680
   1 O :   -0.007546
   2 C :   -0.047848
   3 C :    0.044444
   4 H :   -0.014159
   5 H :    0.051432
   6 H :    0.005874
   7 H :    0.035483

  Mayer bond orders larger than 0.100000
B(  0-C ,  1-O ) :   2.1206 B(  0-C ,  2-C ) :   1.1432 B(  0-C ,  4-H ) :   0.9203
B(  1-O ,  3-C ) :   0.1384 B(  2-C ,  3-C ) :   1.8472 B(  2-C ,  5-H ) :   0.9329
B(  3-C ,  6-H ) :   0.9464 B(  3-C ,  7-H ) :   0.9561

-----------------------------------------------------------------------------
         ABSORPTION SPECTRUM VIA TRANSITION ELECTRIC DIPOLE MOMENTS
-----------------------------------------------------------------------------
State   Energy    Wavelength  fosc         T2        TX        TY        TZ
        (cm-1)      (nm)                 (au**2)    (au)      (au)      (au)
-----------------------------------------------------------------------------
   1   24567.4    407.0   0.000081749   0.00110  -0.01549  -0.01123   0.02701

FINAL SINGLE POINT ENERGY      -191.653271272755

DIPOLE MOMENT
-------------
                                X             Y             Z
Electronic contribution:     -3.11015      -0.49133      -1.01495
Nuclear contribution   :      4.34825       0.54319       1.49175
                        -----------------------------------------
Total Dipole Moment    :      1.23810       0.05185       0.47681
                        -----------------------------------------
Magnitude (a.u.)       :      1.32775
Magnitude (Debye)      :      3.37488

Rotational constants in cm-1:     1.619388     0.155385     0.142183
Rotational constants in MHz : 48548.021466  4658.337938  4262.527242

                             ****ORCA TERMINATED NORMALLY****
TOTAL RUN TIME: 0 days 0 hours 3 minutes 22 seconds 310 msec
