                         Program Version 5.0.3 -  RELEASE  -
|  1> ! B3LYP cc-pVDZ
|  2> !TightSCF
|  3> %scf
|  4>  ConvForced true
|  5>  convergence tight
|  6>  MaxIter 500
|  7> end
|  8>
|  9> %tddft
| 10>  nroots 1
| 11> end
| 12>
| 13> # 	801
| 14> * xyz 0 1
| 15> 		C   -1.229655  -0.276715  -0.047540
| 16> 		O   -1.214189  -1.501273   0.153405
| 17> 		C    0.034032   0.533082   0.067337
| 18> 		C    1.270943   0.022767  -0.035940
| 19> 		H   -2.307385   0.026517  -0.172354
| 20> 		H   -0.040758   1.533398   0.104149
| 21> 		H    1.357420  -1.092130  -0.087924
| 22> 		H    2.129363   0.757430   0.065104
| 23> *
| 24>
| 25>                          ****END OF INPUT****

CARTESIAN COORDINATES (ANGSTROEM)
---------------------------------
  C     -1.229655   -0.276715   -0.047540
  O     -1.214189   -1.501273    0.153405
  C      0.034032    0.533082    0.067337
  C      1.270943    0.022767   -0.035940
  H     -2.307385    0.026517   -0.172354
  H     -0.040758    1.533398    0.104149
  H      1.357420   -1.092130   -0.087924
  H      2.129363    0.757430    0.065104

 Total Charge           Charge          ....    0
 Multiplicity           Mult            ....    1
 Number of Electrons    NEL             ....   30
 Basis Dimension        Dim             ....   76

ORBITAL ENERGIES
----------------

  NO   OCC          E(Eh)            E(eV)
   0   2.0000     -19.132129      -520.6117
   1   2.0000     -10.278031      -279.6795
   2   2.0000     -10.219079      -278.0753
   3   2.0000     -10.202217      -277.6164
   4   2.0000      -1.028511       -27.9872
   5   2.0000      -0.794167       -21.6104
   6   2.0000      -0.645121       -17.5546
   7   2.0000      -0.547354       -14.8943
   8   2.0000      -0.514550       -14.0016
   9   2.0000      -0.435602       -11.8533
  10   2.0000      -0.422431       -11.4949
  11   2.0000      -0.386449       -10.5158
  12   2.0000      -0.381026       -10.3683
  13   2.0000      -0.286641        -7.7999
  14   2.0000      -0.248997        -6.7755
  15   0.0000      -0.069784        -1.8989
  16   0.0000       0.048165         1.3106
  17   0.0000       0.065551         1.7837
  18   0.0000       0.090166         2.4535
  19   0.0000       0.115086         3.1317

MULLIKEN ATOMIC CHARGES
-----------------------
   0 C :    0.158944
   1 O :   -0.221995
   2 C :   -0.028055
   3 C :    0.038490
   4 H :    0.002704
   5 H :   -0.044810
   6 H :    0.046144
   7 H :    0.048579
Sum of atomic charges:    0.0000000

LOEWDIN ATOMIC CHARGES
----------------------
   0 C :   -0.012473
   1 O :   -0.040110
   2 C :   -0.066445
   3 C :    0.018473
   4 H :    0.010670
   5 H :    0.003342
   6 H :    0.040237
   7 H :    0.046306

  Mayer bond orders larger than 0.100000
B(  0-C ,  1-O ) :   2.1240 B(  0-C ,  2-C ) :   1.0123 B(  0-C ,  4-H ) :   0.9432
B(  2-C ,  3-C ) :   1.9827 B(  2-C ,  5-H ) :   0.9466 B(  3-C ,  6-H ) :   0.9264
B(  3-C ,  7-H ) :   0.9357

-----------------------------------------------------------------------------
         ABSORPTION SPECTRUM VIA TRANSITION ELECTRIC DIPOLE MOMENTS
-----------------------------------------------------------------------------
State   Energy    Wavelength  fosc         T2        TX        TY        TZ
        (cm-1)      (nm)                 (au**2)    (au)      (au)      (au)
-----------------------------------------------------------------------------
   1   26061.1    383.7   0.000113767   0.00144   0.02154  -0.00281  -0.03107

FINAL SINGLE POINT ENERGY      -191.668953717737

DIPOLE MOMENT
-------------
                                X             Y             Z
Electronic contribution:     -1.87968      -1.50535       0.11066
Nuclear contribution   :      2.21778       2.43304      -0.22886
                        -----------------------------------------
Total Dipole Moment    :      0.33809       0.92769      -0.11820
                        -----------------------------------------
Magnitude (a.u.)       :      0.99443
Magnitude (Debye)      :      2.52763

Rotational constants in cm-1:     0.783019     0.199184     0.159783
Rotational constants in MHz : 23474.306258  5971.382925  4790.181399

                             ****ORCA TERMINATED NORMALLY****
TOTAL RUN TIME: 0 days 0 hours 3 minutes 14 seconds 61 msec
