                         Program Version 5.0.3 -  RELEASE  -
|  1> ! HF-3c
|  2> !TightSCF
|  3> %scf
|  4>  ConvForced true
|  5>  convergence tight
|  6>  MaxIter 500
|  7> end
|  8>
|  9> %tddft
| 10>  nroots 1
| 11> end
| 12>
| 13> # 	22213
| 14> * xyz 0 1
| 15> 		C   -0.575111  -0.443654  -0.025100
| 16> 		O   -0.607115  -1.677269   0.028339
| 17> 		C    0.662581   0.469095   0.026807
| 18> 		C    1.842003  -0.120410  -0.014730
| 19> 		H   -1.486564   0.049515  -0.288241
| 20> 		H    0.505451   1.554308   0.173912
| 21> 		H    1.979227  -1.068060  -0.189240
| 22> 		H    2.635727   0.460619   0.025263
| 23> *
| 24>
| 25>                          ****END OF INPUT****

CARTESIAN COORDINATES (ANGSTROEM)
---------------------------------
  C     -0.575111   -0.443654   -0.025100
  O     -0.607115   -1.677269    0.028339
  C      0.662581    0.469095    0.026807
  C      1.842003   -0.120410   -0.014730
  H     -1.486564    0.049515   -0.288241
  H      0.505451    1.554308    0.173912
  H      1.979227   -1.068060   -0.189240
  H      2.635727    0.460619    0.025263

 Total Charge           Charge          ....    0
 Multiplicity           Mult            ....    1
 Number of Electrons    NEL             ....   30
 Basis Dimension        Dim             ....   24

ORBITAL ENERGIES
----------------

  NO   OCC          E(Eh)            E(eV)
   0   2.0000     -20.367788      -554.2357
   1   2.0000     -11.292175      -307.2757
   2   2.0000     -11.204063      -304.8781
   3   2.0000     -11.198797      -304.7348
   4   2.0000      -1.387179       -37.7470
   5   2.0000      -1.095295       -29.8045
   6   2.0000      -0.902285       -24.5524
   7   2.0000      -0.772814       -21.0293
   8   2.0000      -0.714963       -19.4551
   9   2.0000      -0.626902       -17.0589
  10   2.0000      -0.607126       -16.5207
  11   2.0000      -0.557502       -15.1704
  12   2.0000      -0.527431       -14.3521
  13   2.0000      -0.416656       -11.3378
  14   2.0000      -0.408391       -11.1129
  15   0.0000       0.128414         3.4943
  16   0.0000       0.285136         7.7590
  17   0.0000       0.538329        14.6487
  18   0.0000       0.594404        16.1746
  19   0.0000       0.730641        19.8818

MULLIKEN ATOMIC CHARGES
-----------------------
   0 C :    0.158763
   1 O :   -0.342552
   2 C :   -0.145063
   3 C :   -0.266673
   4 H :    0.134389
   5 H :    0.152892
   6 H :    0.160423
   7 H :    0.147819
Sum of atomic charges:    0.0000000

LOEWDIN ATOMIC CHARGES
----------------------
   0 C :    0.147353
   1 O :   -0.254302
   2 C :   -0.098923
   3 C :   -0.149460
   4 H :    0.068684
   5 H :    0.100405
   6 H :    0.096759
   7 H :    0.089485

  Mayer bond orders larger than 0.100000
B(  0-C ,  1-O ) :   1.9243 B(  0-C ,  2-C ) :   0.9999 B(  0-C ,  4-H ) :   0.9339
B(  2-C ,  3-C ) :   1.9651 B(  2-C ,  5-H ) :   0.9584 B(  3-C ,  6-H ) :   0.9621
B(  3-C ,  7-H ) :   0.9655

-----------------------------------------------------------------------------
         ABSORPTION SPECTRUM VIA TRANSITION ELECTRIC DIPOLE MOMENTS
-----------------------------------------------------------------------------
State   Energy    Wavelength  fosc         T2        TX        TY        TZ
        (cm-1)      (nm)                 (au**2)    (au)      (au)      (au)
-----------------------------------------------------------------------------
   1   31199.9    320.5   0.000067270   0.00071  -0.02441  -0.00752  -0.00757

Dispersion correction           -0.025681602
FINAL SINGLE POINT ENERGY      -189.326613926789

DIPOLE MOMENT
-------------
                                X             Y             Z
Electronic contribution:     -2.02451      -1.71860       0.18910
Nuclear contribution   :      2.24944       2.72242      -0.26179
                        -----------------------------------------
Total Dipole Moment    :      0.22493       1.00382      -0.07269
                        -----------------------------------------
Magnitude (a.u.)       :      1.03127
Magnitude (Debye)      :      2.62129

Rotational constants in cm-1:     0.765673     0.201969     0.160369
Rotational constants in MHz : 22954.290683  6054.880804  4807.732140

                             ****ORCA TERMINATED NORMALLY****
TOTAL RUN TIME: 0 days 0 hours 0 minutes 11 seconds 395 msec
