                         Program Version 5.0.3 -  RELEASE  -
|  1> ! B3LYP cc-pVDZ
|  2> !TightSCF
|  3> %scf
|  4>  ConvForced true
|  5>  convergence tight
|  6>  MaxIter 500
|  7> end
|  8>
|  9> %tddft
| 10>  nroots 1
| 11> end
| 12>
| 13> # 	1950
| 14> * xyz 0 1
| 15> 		C   -1.153717  -0.310828   0.079002
| 16> 		O   -1.550005  -1.148259   0.807006
| 17> 		C    0.022175   0.533969   0.170482
| 18> 		C    1.269792   0.017711  -0.118219
| 19> 		H   -1.802280  -0.193606  -0.844646
| 20> 		H   -0.173855   1.537439   0.372896
| 21> 		H    1.310638  -1.028939  -0.313140
| 22> 		H    2.181471   0.642031  -0.080954
| 23> *
| 24>
| 25>                          ****END OF INPUT****

CARTESIAN COORDINATES (ANGSTROEM)
---------------------------------
  C     -1.153717   -0.310828    0.079002
  O     -1.550005   -1.148259    0.807006
  C      0.022175    0.533969    0.170482
  C      1.269792    0.017711   -0.118219
  H     -1.802280   -0.193606   -0.844646
  H     -0.173855    1.537439    0.372896
  H      1.310638   -1.028939   -0.313140
  H      2.181471    0.642031   -0.080954

 Total Charge           Charge          ....    0
 Multiplicity           Mult            ....    1
 Number of Electrons    NEL             ....   30
 Basis Dimension        Dim             ....   76

ORBITAL ENERGIES
----------------

  NO   OCC          E(Eh)            E(eV)
   0   2.0000     -19.139826      -520.8212
   1   2.0000     -10.274661      -279.5877
   2   2.0000     -10.214344      -277.9464
   3   2.0000     -10.208356      -277.7835
   4   2.0000      -1.067160       -29.0389
   5   2.0000      -0.796700       -21.6793
   6   2.0000      -0.655976       -17.8500
   7   2.0000      -0.554291       -15.0830
   8   2.0000      -0.505108       -13.7447
   9   2.0000      -0.455502       -12.3948
  10   2.0000      -0.445249       -12.1158
  11   2.0000      -0.404636       -11.0107
  12   2.0000      -0.383525       -10.4363
  13   2.0000      -0.282556        -7.6887
  14   2.0000      -0.250044        -6.8041
  15   0.0000      -0.034635        -0.9425
  16   0.0000      -0.009885        -0.2690
  17   0.0000       0.082262         2.2385
  18   0.0000       0.099510         2.7078
  19   0.0000       0.108840         2.9617

MULLIKEN ATOMIC CHARGES
-----------------------
   0 C :    0.143899
   1 O :   -0.155857
   2 C :   -0.058715
   3 C :    0.036760
   4 H :   -0.027405
   5 H :   -0.002038
   6 H :    0.021682
   7 H :    0.041676
Sum of atomic charges:   -0.0000000

LOEWDIN ATOMIC CHARGES
----------------------
   0 C :   -0.055430
   1 O :    0.034917
   2 C :   -0.044851
   3 C :   -0.007085
   4 H :   -0.009738
   5 H :    0.023304
   6 H :    0.023575
   7 H :    0.035308

  Mayer bond orders larger than 0.100000
B(  0-C ,  1-O ) :   2.2648 B(  0-C ,  2-C ) :   0.9981 B(  0-C ,  4-H ) :   0.9082
B(  2-C ,  3-C ) :   2.0101 B(  2-C ,  5-H ) :   0.9433 B(  3-C ,  6-H ) :   0.9429
B(  3-C ,  7-H ) :   0.9514

-----------------------------------------------------------------------------
         ABSORPTION SPECTRUM VIA TRANSITION ELECTRIC DIPOLE MOMENTS
-----------------------------------------------------------------------------
State   Energy    Wavelength  fosc         T2        TX        TY        TZ
        (cm-1)      (nm)                 (au**2)    (au)      (au)      (au)
-----------------------------------------------------------------------------
   1   33786.7    296.0   0.001174750   0.01145   0.10525  -0.01901   0.00274

FINAL SINGLE POINT ENERGY      -191.634119465458

DIPOLE MOMENT
-------------
                                X             Y             Z
Electronic contribution:     -2.32614      -1.20340       1.27272
Nuclear contribution   :      2.85151       1.85609      -1.71532
                        -----------------------------------------
Total Dipole Moment    :      0.52537       0.65269      -0.44260
                        -----------------------------------------
Magnitude (a.u.)       :      0.94758
Magnitude (Debye)      :      2.40855

Rotational constants in cm-1:     0.954117     0.175487     0.159230
Rotational constants in MHz : 28603.713058  5260.975726  4773.600738

                             ****ORCA TERMINATED NORMALLY****
TOTAL RUN TIME: 0 days 0 hours 3 minutes 6 seconds 399 msec
