                         Program Version 5.0.3 -  RELEASE  -
|  1> ! B3LYP cc-pVDZ
|  2> !TightSCF
|  3> %scf
|  4>  ConvForced true
|  5>  convergence tight
|  6>  MaxIter 500
|  7> end
|  8>
|  9> %tddft
| 10>  nroots 1
| 11> end
| 12>
| 13> # 	5128
| 14> * xyz 0 1
| 15> 		C   -1.231205  -0.286180  -0.041910
| 16> 		O   -1.622011  -0.986657  -0.869344
| 17> 		C    0.004507   0.545730  -0.191453
| 18> 		C    1.183350   0.007456   0.189461
| 19> 		H   -1.656721  -0.336498   1.046017
| 20> 		H   -0.190382   1.395130  -0.797817
| 21> 		H    1.293325  -0.947870   0.663004
| 22> 		H    2.286285   0.570952   0.014630
| 23> *
| 24>
| 25>                          ****END OF INPUT****

CARTESIAN COORDINATES (ANGSTROEM)
---------------------------------
  C     -1.231205   -0.286180   -0.041910
  O     -1.622011   -0.986657   -0.869344
  C      0.004507    0.545730   -0.191453
  C      1.183350    0.007456    0.189461
  H     -1.656721   -0.336498    1.046017
  H     -0.190382    1.395130   -0.797817
  H      1.293325   -0.947870    0.663004
  H      2.286285    0.570952    0.014630

 Total Charge           Charge          ....    0
 Multiplicity           Mult            ....    1
 Number of Electrons    NEL             ....   30
 Basis Dimension        Dim             ....   76

ORBITAL ENERGIES
----------------

  NO   OCC          E(Eh)            E(eV)
   0   2.0000     -19.147987      -521.0432
   1   2.0000     -10.280306      -279.7414
   2   2.0000     -10.220120      -278.1036
   3   2.0000     -10.205965      -277.7184
   4   2.0000      -1.088651       -29.6237
   5   2.0000      -0.789668       -21.4880
   6   2.0000      -0.637698       -17.3527
   7   2.0000      -0.559213       -15.2170
   8   2.0000      -0.484177       -13.1751
   9   2.0000      -0.467028       -12.7085
  10   2.0000      -0.452765       -12.3204
  11   2.0000      -0.397492       -10.8163
  12   2.0000      -0.379146       -10.3171
  13   2.0000      -0.283494        -7.7143
  14   2.0000      -0.252773        -6.8783
  15   0.0000      -0.030158        -0.8206
  16   0.0000      -0.005031        -0.1369
  17   0.0000       0.070797         1.9265
  18   0.0000       0.090512         2.4629
  19   0.0000       0.100238         2.7276

MULLIKEN ATOMIC CHARGES
-----------------------
   0 C :    0.122141
   1 O :   -0.123801
   2 C :   -0.038722
   3 C :   -0.029447
   4 H :   -0.024879
   5 H :    0.010946
   6 H :    0.028236
   7 H :    0.055527
Sum of atomic charges:   -0.0000000

LOEWDIN ATOMIC CHARGES
----------------------
   0 C :   -0.062470
   1 O :    0.069067
   2 C :   -0.057823
   3 C :   -0.034989
   4 H :   -0.014536
   5 H :    0.027496
   6 H :    0.021056
   7 H :    0.052200

  Mayer bond orders larger than 0.100000
B(  0-C ,  1-O ) :   2.2909 B(  0-C ,  2-C ) :   0.9677 B(  0-C ,  4-H ) :   0.8932
B(  2-C ,  3-C ) :   2.0143 B(  2-C ,  5-H ) :   0.9425 B(  3-C ,  6-H ) :   0.9461
B(  3-C ,  7-H ) :   0.9463

-----------------------------------------------------------------------------
         ABSORPTION SPECTRUM VIA TRANSITION ELECTRIC DIPOLE MOMENTS
-----------------------------------------------------------------------------
State   Energy    Wavelength  fosc         T2        TX        TY        TZ
        (cm-1)      (nm)                 (au**2)    (au)      (au)      (au)
-----------------------------------------------------------------------------
   1   35224.7    283.9   0.000868110   0.00811   0.03230   0.03122  -0.07807

FINAL SINGLE POINT ENERGY      -191.613399919880

DIPOLE MOMENT
-------------
                                X             Y             Z
Electronic contribution:     -2.84045      -0.96601      -1.35296
Nuclear contribution   :      3.26292       1.42407       1.76312
                        -----------------------------------------
Total Dipole Moment    :      0.42247       0.45806       0.41016
                        -----------------------------------------
Magnitude (a.u.)       :      0.74601
Magnitude (Debye)      :      1.89621

Rotational constants in cm-1:     0.951641     0.172701     0.164773
Rotational constants in MHz : 28529.487786  5177.444088  4939.781940

                             ****ORCA TERMINATED NORMALLY****
TOTAL RUN TIME: 0 days 0 hours 3 minutes 11 seconds 956 msec
