                         Program Version 5.0.3 -  RELEASE  -
|  1> ! HF-3c
|  2> !TightSCF
|  3> %scf
|  4>  ConvForced true
|  5>  convergence tight
|  6>  MaxIter 500
|  7> end
|  8>
|  9> %tddft
| 10>  nroots 1
| 11> end
| 12>
| 13> # 	27269
| 14> * xyz 0 1
| 15> 		C   -0.550915  -0.412226   0.004321
| 16> 		O   -0.653731  -1.714275  -0.008552
| 17> 		C    0.633054   0.402843  -0.005604
| 18> 		C    1.891764  -0.051495   0.027671
| 19> 		H   -1.534204   0.078987   0.089132
| 20> 		H    0.504953   1.570083  -0.104321
| 21> 		H    2.153289  -1.032255  -0.066559
| 22> 		H    2.727198   0.574347  -0.107703
| 23> *
| 24>
| 25>                          ****END OF INPUT****

CARTESIAN COORDINATES (ANGSTROEM)
---------------------------------
  C     -0.550915   -0.412226    0.004321
  O     -0.653731   -1.714275   -0.008552
  C      0.633054    0.402843   -0.005604
  C      1.891764   -0.051495    0.027671
  H     -1.534204    0.078987    0.089132
  H      0.504953    1.570083   -0.104321
  H      2.153289   -1.032255   -0.066559
  H      2.727198    0.574347   -0.107703

 Total Charge           Charge          ....    0
 Multiplicity           Mult            ....    1
 Number of Electrons    NEL             ....   30
 Basis Dimension        Dim             ....   24

ORBITAL ENERGIES
----------------

  NO   OCC          E(Eh)            E(eV)
   0   2.0000     -20.340743      -553.4998
   1   2.0000     -11.276616      -306.8523
   2   2.0000     -11.204214      -304.8822
   3   2.0000     -11.200401      -304.7784
   4   2.0000      -1.333704       -36.2919
   5   2.0000      -1.086346       -29.5610
   6   2.0000      -0.912198       -24.8222
   7   2.0000      -0.755088       -20.5470
   8   2.0000      -0.692977       -18.8569
   9   2.0000      -0.616298       -16.7703
  10   2.0000      -0.582931       -15.8624
  11   2.0000      -0.521367       -14.1871
  12   2.0000      -0.506227       -13.7751
  13   2.0000      -0.418799       -11.3961
  14   2.0000      -0.384732       -10.4691
  15   0.0000       0.102798         2.7973
  16   0.0000       0.300978         8.1900
  17   0.0000       0.506866        13.7925
  18   0.0000       0.583241        15.8708
  19   0.0000       0.682898        18.5826

MULLIKEN ATOMIC CHARGES
-----------------------
   0 C :    0.123997
   1 O :   -0.329505
   2 C :   -0.162394
   3 C :   -0.228065
   4 H :    0.141481
   5 H :    0.151988
   6 H :    0.155132
   7 H :    0.147368
Sum of atomic charges:    0.0000000

LOEWDIN ATOMIC CHARGES
----------------------
   0 C :    0.128608
   1 O :   -0.263202
   2 C :   -0.119677
   3 C :   -0.120085
   4 H :    0.079980
   5 H :    0.105506
   6 H :    0.095402
   7 H :    0.093467

  Mayer bond orders larger than 0.100000
B(  0-C ,  1-O ) :   1.8734 B(  0-C ,  2-C ) :   1.0740 B(  0-C ,  4-H ) :   0.9392
B(  2-C ,  3-C ) :   1.9189 B(  2-C ,  5-H ) :   0.9507 B(  3-C ,  6-H ) :   0.9628
B(  3-C ,  7-H ) :   0.9653

-----------------------------------------------------------------------------
         ABSORPTION SPECTRUM VIA TRANSITION ELECTRIC DIPOLE MOMENTS
-----------------------------------------------------------------------------
State   Energy    Wavelength  fosc         T2        TX        TY        TZ
        (cm-1)      (nm)                 (au**2)    (au)      (au)      (au)
-----------------------------------------------------------------------------
   1   26111.9    383.0   0.000008137   0.00010  -0.00150   0.00005   0.01002

Dispersion correction           -0.025086750
FINAL SINGLE POINT ENERGY      -189.345006097106

DIPOLE MOMENT
-------------
                                X             Y             Z
Electronic contribution:     -2.04855      -1.83237       0.13116
Nuclear contribution   :      2.45223       2.90369      -0.17714
                        -----------------------------------------
Total Dipole Moment    :      0.40368       1.07132      -0.04598
                        -----------------------------------------
Magnitude (a.u.)       :      1.14577
Magnitude (Debye)      :      2.91232

Rotational constants in cm-1:     0.782340     0.190771     0.153501
Rotational constants in MHz : 23453.961754  5719.169534  4601.829952

                             ****ORCA TERMINATED NORMALLY****
TOTAL RUN TIME: 0 days 0 hours 0 minutes 13 seconds 17 msec
