                         Program Version 5.0.3 -  RELEASE  -
|  1> ! HF-3c
|  2> !TightSCF
|  3> %scf
|  4>  ConvForced true
|  5>  convergence tight
|  6>  MaxIter 500
|  7> end
|  8>
|  9> %tddft
| 10>  nroots 1
| 11> end
| 12>
| 13> # 	3603
| 14> * xyz 0 1
| 15> 		C   -1.237782  -0.260135  -0.040522
| 16> 		O   -1.322514  -1.408567  -0.533191
| 17> 		C   -0.022510   0.555444  -0.138297
| 18> 		C    1.174702  -0.010526   0.056733
| 19> 		H   -2.091838   0.016790   0.611463
| 20> 		H    0.140571   1.627708  -0.289829
| 21> 		H    1.310758  -1.114489   0.249739
| 22> 		H    1.985958   0.597927   0.096546
| 23> *
| 24>
| 25>                          ****END OF INPUT****

CARTESIAN COORDINATES (ANGSTROEM)
---------------------------------
  C     -1.237782   -0.260135   -0.040522
  O     -1.322514   -1.408567   -0.533191
  C     -0.022510    0.555444   -0.138297
  C      1.174702   -0.010526    0.056733
  H     -2.091838    0.016790    0.611463
  H      0.140571    1.627708   -0.289829
  H      1.310758   -1.114489    0.249739
  H      1.985958    0.597927    0.096546

 Total Charge           Charge          ....    0
 Multiplicity           Mult            ....    1
 Number of Electrons    NEL             ....   30
 Basis Dimension        Dim             ....   24

ORBITAL ENERGIES
----------------

  NO   OCC          E(Eh)            E(eV)
   0   2.0000     -20.354546      -553.8754
   1   2.0000     -11.291310      -307.2522
   2   2.0000     -11.192242      -304.5564
   3   2.0000     -11.186610      -304.4031
   4   2.0000      -1.373793       -37.3828
   5   2.0000      -1.085017       -29.5248
   6   2.0000      -0.888904       -24.1883
   7   2.0000      -0.754983       -20.5441
   8   2.0000      -0.707259       -19.2455
   9   2.0000      -0.611580       -16.6419
  10   2.0000      -0.594164       -16.1680
  11   2.0000      -0.537851       -14.6357
  12   2.0000      -0.496607       -13.5134
  13   2.0000      -0.420437       -11.4407
  14   2.0000      -0.395830       -10.7711
  15   0.0000       0.141569         3.8523
  16   0.0000       0.257609         7.0099
  17   0.0000       0.553999        15.0751
  18   0.0000       0.605695        16.4818
  19   0.0000       0.648021        17.6335

MULLIKEN ATOMIC CHARGES
-----------------------
   0 C :    0.148357
   1 O :   -0.340357
   2 C :   -0.180447
   3 C :   -0.222090
   4 H :    0.146466
   5 H :    0.157394
   6 H :    0.153247
   7 H :    0.137429
Sum of atomic charges:   -0.0000000

LOEWDIN ATOMIC CHARGES
----------------------
   0 C :    0.142562
   1 O :   -0.260022
   2 C :   -0.132154
   3 C :   -0.124269
   4 H :    0.083576
   5 H :    0.104713
   6 H :    0.103107
   7 H :    0.082487

  Mayer bond orders larger than 0.100000
B(  0-C ,  1-O ) :   1.9112 B(  0-C ,  2-C ) :   1.0306 B(  0-C ,  4-H ) :   0.9283
B(  2-C ,  3-C ) :   1.9527 B(  2-C ,  5-H ) :   0.9515 B(  3-C ,  6-H ) :   0.9619
B(  3-C ,  7-H ) :   0.9692

-----------------------------------------------------------------------------
         ABSORPTION SPECTRUM VIA TRANSITION ELECTRIC DIPOLE MOMENTS
-----------------------------------------------------------------------------
State   Energy    Wavelength  fosc         T2        TX        TY        TZ
        (cm-1)      (nm)                 (au**2)    (au)      (au)      (au)
-----------------------------------------------------------------------------
   1   31131.5    321.2   0.000033754   0.00036  -0.01723  -0.00108   0.00767

Dispersion correction           -0.025559642
FINAL SINGLE POINT ENERGY      -189.330819620019

DIPOLE MOMENT
-------------
                                X             Y             Z
Electronic contribution:     -2.29227      -1.39751      -0.78915
Nuclear contribution   :      2.64253       2.24550       1.24529
                        -----------------------------------------
Total Dipole Moment    :      0.35026       0.84799       0.45614
                        -----------------------------------------
Magnitude (a.u.)       :      1.02461
Magnitude (Debye)      :      2.60436

Rotational constants in cm-1:     0.779302     0.199992     0.165262
Rotational constants in MHz : 23362.896189  5995.606903  4954.423323

                             ****ORCA TERMINATED NORMALLY****
TOTAL RUN TIME: 0 days 0 hours 0 minutes 11 seconds 567 msec
