                         Program Version 5.0.3 -  RELEASE  -
|  1> ! HF-3c
|  2> !TightSCF
|  3> %scf
|  4>  ConvForced true
|  5>  convergence tight
|  6>  MaxIter 500
|  7> end
|  8>
|  9> %tddft
| 10>  nroots 1
| 11> end
| 12>
| 13> # 	1333
| 14> * xyz 0 1
| 15> 		C   -1.185413  -0.387900  -0.058021
| 16> 		O   -2.093645  -0.642070  -0.831416
| 17> 		C    0.011705   0.400910  -0.310414
| 18> 		C    1.123586   0.105579   0.269068
| 19> 		H   -1.177036  -0.860279   1.024833
| 20> 		H   -0.022615   1.232998  -1.168776
| 21> 		H    1.189927  -0.500013   0.980555
| 22> 		H    2.097090   0.685422   0.062314
| 23> *
| 24>
| 25>                          ****END OF INPUT****

CARTESIAN COORDINATES (ANGSTROEM)
---------------------------------
  C     -1.185413   -0.387900   -0.058021
  O     -2.093645   -0.642070   -0.831416
  C      0.011705    0.400910   -0.310414
  C      1.123586    0.105579    0.269068
  H     -1.177036   -0.860279    1.024833
  H     -0.022615    1.232998   -1.168776
  H      1.189927   -0.500013    0.980555
  H      2.097090    0.685422    0.062314

 Total Charge           Charge          ....    0
 Multiplicity           Mult            ....    1
 Number of Electrons    NEL             ....   30
 Basis Dimension        Dim             ....   24

ORBITAL ENERGIES
----------------

  NO   OCC          E(Eh)            E(eV)
   0   2.0000     -20.367962      -554.2404
   1   2.0000     -11.296283      -307.3875
   2   2.0000     -11.203689      -304.8679
   3   2.0000     -11.198339      -304.7223
   4   2.0000      -1.395133       -37.9635
   5   2.0000      -1.110646       -30.2222
   6   2.0000      -0.888975       -24.1902
   7   2.0000      -0.773498       -21.0479
   8   2.0000      -0.677050       -18.4235
   9   2.0000      -0.646219       -17.5845
  10   2.0000      -0.581693       -15.8287
  11   2.0000      -0.544385       -14.8135
  12   2.0000      -0.526253       -14.3201
  13   2.0000      -0.415397       -11.3035
  14   2.0000      -0.404974       -11.0199
  15   0.0000       0.137068         3.7298
  16   0.0000       0.299070         8.1381
  17   0.0000       0.501009        13.6331
  18   0.0000       0.546351        14.8670
  19   0.0000       0.647326        17.6146

MULLIKEN ATOMIC CHARGES
-----------------------
   0 C :    0.175530
   1 O :   -0.348970
   2 C :   -0.153122
   3 C :   -0.258701
   4 H :    0.130416
   5 H :    0.162446
   6 H :    0.136587
   7 H :    0.155815
Sum of atomic charges:   -0.0000000

LOEWDIN ATOMIC CHARGES
----------------------
   0 C :    0.151053
   1 O :   -0.256455
   2 C :   -0.111297
   3 C :   -0.156366
   4 H :    0.073654
   5 H :    0.114757
   6 H :    0.076094
   7 H :    0.108560

  Mayer bond orders larger than 0.100000
B(  0-C ,  1-O ) :   1.9160 B(  0-C ,  2-C ) :   1.0238 B(  0-C ,  4-H ) :   0.9133
B(  2-C ,  3-C ) :   1.9633 B(  2-C ,  5-H ) :   0.9435 B(  3-C ,  6-H ) :   0.9674
B(  3-C ,  7-H ) :   0.9571

-----------------------------------------------------------------------------
         ABSORPTION SPECTRUM VIA TRANSITION ELECTRIC DIPOLE MOMENTS
-----------------------------------------------------------------------------
State   Energy    Wavelength  fosc         T2        TX        TY        TZ
        (cm-1)      (nm)                 (au**2)    (au)      (au)      (au)
-----------------------------------------------------------------------------
   1   32680.1    306.0   0.000009968   0.00010  -0.00320  -0.00942  -0.00124

Dispersion correction           -0.025664180
FINAL SINGLE POINT ENERGY      -189.303254455955

DIPOLE MOMENT
-------------
                                X             Y             Z
Electronic contribution:     -3.13637      -0.73169      -1.20363
Nuclear contribution   :      4.07736       1.07091       1.74425
                        -----------------------------------------
Total Dipole Moment    :      0.94098       0.33923       0.54062
                        -----------------------------------------
Magnitude (a.u.)       :      1.13701
Magnitude (Debye)      :      2.89005

Rotational constants in cm-1:     1.478336     0.157973     0.146329
Rotational constants in MHz : 44319.390182  4735.902875  4386.845084

                             ****ORCA TERMINATED NORMALLY****
TOTAL RUN TIME: 0 days 0 hours 0 minutes 11 seconds 674 msec
