                         Program Version 5.0.3 -  RELEASE  -
|  1> ! B3LYP cc-pVDZ
|  2> !TightSCF
|  3> %scf
|  4>  ConvForced true
|  5>  convergence tight
|  6>  MaxIter 500
|  7> end
|  8>
|  9> %tddft
| 10>  nroots 1
| 11> end
| 12>
| 13> # 	1516
| 14> * xyz 0 1
| 15> 		C   -1.193928  -0.335468  -0.037705
| 16> 		O   -2.111406  -0.348332  -0.814616
| 17> 		C    0.017538   0.357435  -0.341088
| 18> 		C    1.188653   0.048973   0.239377
| 19> 		H   -1.380405  -0.870791   0.956189
| 20> 		H    0.062933   1.060985  -1.184955
| 21> 		H    1.166350  -0.511176   1.140620
| 22> 		H    2.220962   0.580253   0.061527
| 23> *
| 24>
| 25>                          ****END OF INPUT****

CARTESIAN COORDINATES (ANGSTROEM)
---------------------------------
  C     -1.193928   -0.335468   -0.037705
  O     -2.111406   -0.348332   -0.814616
  C      0.017538    0.357435   -0.341088
  C      1.188653    0.048973    0.239377
  H     -1.380405   -0.870791    0.956189
  H      0.062933    1.060985   -1.184955
  H      1.166350   -0.511176    1.140620
  H      2.220962    0.580253    0.061527

 Total Charge           Charge          ....    0
 Multiplicity           Mult            ....    1
 Number of Electrons    NEL             ....   30
 Basis Dimension        Dim             ....   76

ORBITAL ENERGIES
----------------

  NO   OCC          E(Eh)            E(eV)
   0   2.0000     -19.133125      -520.6388
   1   2.0000     -10.273486      -279.5558
   2   2.0000     -10.222255      -278.1617
   3   2.0000     -10.208845      -277.7968
   4   2.0000      -1.050749       -28.5923
   5   2.0000      -0.805267       -21.9124
   6   2.0000      -0.645575       -17.5670
   7   2.0000      -0.568975       -15.4826
   8   2.0000      -0.486280       -13.2324
   9   2.0000      -0.466734       -12.7005
  10   2.0000      -0.419784       -11.4229
  11   2.0000      -0.398591       -10.8462
  12   2.0000      -0.380430       -10.3520
  13   2.0000      -0.292626        -7.9627
  14   2.0000      -0.253461        -6.8970
  15   0.0000      -0.066451        -1.8082
  16   0.0000       0.045362         1.2344
  17   0.0000       0.066908         1.8207
  18   0.0000       0.079785         2.1711
  19   0.0000       0.120801         3.2872

MULLIKEN ATOMIC CHARGES
-----------------------
   0 C :    0.159509
   1 O :   -0.190635
   2 C :   -0.045467
   3 C :    0.011280
   4 H :   -0.020829
   5 H :    0.010507
   6 H :    0.018953
   7 H :    0.056682
Sum of atomic charges:    0.0000000

LOEWDIN ATOMIC CHARGES
----------------------
   0 C :   -0.053925
   1 O :    0.005202
   2 C :   -0.060034
   3 C :    0.000715
   4 H :    0.000413
   5 H :    0.039618
   6 H :    0.018295
   7 H :    0.049716

  Mayer bond orders larger than 0.100000
B(  0-C ,  1-O ) :   2.1500 B(  0-C ,  2-C ) :   1.0819 B(  0-C ,  4-H ) :   0.9252
B(  1-O ,  3-C ) :   0.1019 B(  2-C ,  3-C ) :   1.9179 B(  2-C ,  5-H ) :   0.9461
B(  3-C ,  6-H ) :   0.9432 B(  3-C ,  7-H ) :   0.9445

-----------------------------------------------------------------------------
         ABSORPTION SPECTRUM VIA TRANSITION ELECTRIC DIPOLE MOMENTS
-----------------------------------------------------------------------------
State   Energy    Wavelength  fosc         T2        TX        TY        TZ
        (cm-1)      (nm)                 (au**2)    (au)      (au)      (au)
-----------------------------------------------------------------------------
   1   28368.7    352.5   0.000622190   0.00722  -0.08458   0.00815   0.00072

FINAL SINGLE POINT ENERGY      -191.668434964540

DIPOLE MOMENT
-------------
                                X             Y             Z
Electronic contribution:     -3.05132      -0.37454      -1.28511
Nuclear contribution   :      4.03058       0.53777       1.82357
                        -----------------------------------------
Total Dipole Moment    :      0.97926       0.16323       0.53846
                        -----------------------------------------
Magnitude (a.u.)       :      1.12940
Magnitude (Debye)      :      2.87070

Rotational constants in cm-1:     1.529614     0.159543     0.146310
Rotational constants in MHz : 45856.664016  4782.980692  4386.251852

                             ****ORCA TERMINATED NORMALLY****
TOTAL RUN TIME: 0 days 0 hours 3 minutes 20 seconds 618 msec
