                         Program Version 5.0.3 -  RELEASE  -
|  1> ! HF-3c
|  2> !TightSCF
|  3> %scf
|  4>  ConvForced true
|  5>  convergence tight
|  6>  MaxIter 500
|  7> end
|  8>
|  9> %tddft
| 10>  nroots 1
| 11> end
| 12>
| 13> # 	18466
| 14> * xyz 0 1
| 15> 		C   -1.204844  -0.341844   0.023238
| 16> 		O   -1.472743  -1.252044   0.713820
| 17> 		C   -0.043544   0.460827   0.131811
| 18> 		C    1.186809  -0.007670  -0.124313
| 19> 		H   -1.845506  -0.086911  -0.881641
| 20> 		H    0.017264   1.618563   0.643163
| 21> 		H    1.300044  -0.937074  -0.484117
| 22> 		H    2.060572   0.564591  -0.019937
| 23> *
| 24>
| 25>                          ****END OF INPUT****

CARTESIAN COORDINATES (ANGSTROEM)
---------------------------------
  C     -1.204844   -0.341844    0.023238
  O     -1.472743   -1.252044    0.713820
  C     -0.043544    0.460827    0.131811
  C      1.186809   -0.007670   -0.124313
  H     -1.845506   -0.086911   -0.881641
  H      0.017264    1.618563    0.643163
  H      1.300044   -0.937074   -0.484117
  H      2.060572    0.564591   -0.019937

 Total Charge           Charge          ....    0
 Multiplicity           Mult            ....    1
 Number of Electrons    NEL             ....   30
 Basis Dimension        Dim             ....   24

ORBITAL ENERGIES
----------------

  NO   OCC          E(Eh)            E(eV)
   0   2.0000     -20.390915      -554.8650
   1   2.0000     -11.316209      -307.9297
   2   2.0000     -11.190705      -304.5146
   3   2.0000     -11.176921      -304.1395
   4   2.0000      -1.439943       -39.1828
   5   2.0000      -1.084662       -29.5152
   6   2.0000      -0.902772       -24.5657
   7   2.0000      -0.754482       -20.5305
   8   2.0000      -0.695845       -18.9349
   9   2.0000      -0.639324       -17.3969
  10   2.0000      -0.621599       -16.9146
  11   2.0000      -0.556261       -15.1366
  12   2.0000      -0.495841       -13.4925
  13   2.0000      -0.417613       -11.3638
  14   2.0000      -0.397577       -10.8186
  15   0.0000       0.176922         4.8143
  16   0.0000       0.222624         6.0579
  17   0.0000       0.502363        13.6700
  18   0.0000       0.609067        16.5735
  19   0.0000       0.700777        19.0691

MULLIKEN ATOMIC CHARGES
-----------------------
   0 C :    0.173419
   1 O :   -0.342380
   2 C :   -0.146258
   3 C :   -0.261677
   4 H :    0.135760
   5 H :    0.163643
   6 H :    0.136091
   7 H :    0.141404
Sum of atomic charges:    0.0000000

LOEWDIN ATOMIC CHARGES
----------------------
   0 C :    0.147119
   1 O :   -0.235762
   2 C :   -0.114988
   3 C :   -0.163271
   4 H :    0.073026
   5 H :    0.124035
   6 H :    0.080630
   7 H :    0.089211

  Mayer bond orders larger than 0.100000
B(  0-C ,  1-O ) :   1.9353 B(  0-C ,  2-C ) :   1.0177 B(  0-C ,  4-H ) :   0.9065
B(  2-C ,  3-C ) :   1.9809 B(  2-C ,  5-H ) :   0.9337 B(  3-C ,  6-H ) :   0.9686
B(  3-C ,  7-H ) :   0.9670

-----------------------------------------------------------------------------
         ABSORPTION SPECTRUM VIA TRANSITION ELECTRIC DIPOLE MOMENTS
-----------------------------------------------------------------------------
State   Energy    Wavelength  fosc         T2        TX        TY        TZ
        (cm-1)      (nm)                 (au**2)    (au)      (au)      (au)
-----------------------------------------------------------------------------
   1   36027.2    277.6   0.000088356   0.00081  -0.01520  -0.02357  -0.00457

Dispersion correction           -0.025542240
FINAL SINGLE POINT ENERGY      -189.280219758050

DIPOLE MOMENT
-------------
                                X             Y             Z
Electronic contribution:     -2.60337      -1.42025       0.95391
Nuclear contribution   :      2.94515       2.24674      -1.42803
                        -----------------------------------------
Total Dipole Moment    :      0.34178       0.82649      -0.47412
                        -----------------------------------------
Magnitude (a.u.)       :      1.01227
Magnitude (Debye)      :      2.57298

Rotational constants in cm-1:     0.904707     0.187107     0.168176
Rotational constants in MHz : 27122.418968  5609.318183  5041.803801

                             ****ORCA TERMINATED NORMALLY****
TOTAL RUN TIME: 0 days 0 hours 0 minutes 12 seconds 219 msec
