                         Program Version 5.0.3 -  RELEASE  -
|  1> ! HF-3c
|  2> !TightSCF
|  3> %scf
|  4>  ConvForced true
|  5>  convergence tight
|  6>  MaxIter 500
|  7> end
|  8>
|  9> %tddft
| 10>  nroots 1
| 11> end
| 12>
| 13> # 	20462
| 14> * xyz 0 1
| 15> 		C   -0.613441  -0.414215  -0.035298
| 16> 		O   -0.531547  -1.601230   0.012507
| 17> 		C    0.609129   0.383603   0.057633
| 18> 		C    1.821412  -0.173205  -0.047356
| 19> 		H   -1.469511   0.315305  -0.054304
| 20> 		H    0.613431   1.533676  -0.040601
| 21> 		H    2.075870  -1.336930   0.150866
| 22> 		H    2.550775   0.638137   0.043288
| 23> *
| 24>
| 25>                          ****END OF INPUT****

CARTESIAN COORDINATES (ANGSTROEM)
---------------------------------
  C     -0.613441   -0.414215   -0.035298
  O     -0.531547   -1.601230    0.012507
  C      0.609129    0.383603    0.057633
  C      1.821412   -0.173205   -0.047356
  H     -1.469511    0.315305   -0.054304
  H      0.613431    1.533676   -0.040601
  H      2.075870   -1.336930    0.150866
  H      2.550775    0.638137    0.043288

 Total Charge           Charge          ....    0
 Multiplicity           Mult            ....    1
 Number of Electrons    NEL             ....   30
 Basis Dimension        Dim             ....   24

ORBITAL ENERGIES
----------------

  NO   OCC          E(Eh)            E(eV)
   0   2.0000     -20.368879      -554.2654
   1   2.0000     -11.298283      -307.4419
   2   2.0000     -11.174852      -304.0832
   3   2.0000     -11.164291      -303.7958
   4   2.0000      -1.415604       -38.5205
   5   2.0000      -1.066744       -29.0276
   6   2.0000      -0.887066       -24.1383
   7   2.0000      -0.719517       -19.5791
   8   2.0000      -0.690602       -18.7922
   9   2.0000      -0.610953       -16.6249
  10   2.0000      -0.566413       -15.4129
  11   2.0000      -0.549282       -14.9467
  12   2.0000      -0.511592       -13.9211
  13   2.0000      -0.404087       -10.9958
  14   2.0000      -0.383004       -10.4221
  15   0.0000       0.136628         3.7178
  16   0.0000       0.317288         8.6338
  17   0.0000       0.523974        14.2580
  18   0.0000       0.573088        15.5945
  19   0.0000       0.602999        16.4084

MULLIKEN ATOMIC CHARGES
-----------------------
   0 C :    0.170720
   1 O :   -0.359434
   2 C :   -0.178677
   3 C :   -0.208872
   4 H :    0.139798
   5 H :    0.131066
   6 H :    0.167647
   7 H :    0.137751
Sum of atomic charges:    0.0000000

LOEWDIN ATOMIC CHARGES
----------------------
   0 C :    0.149728
   1 O :   -0.258792
   2 C :   -0.147901
   3 C :   -0.119291
   4 H :    0.076956
   5 H :    0.086719
   6 H :    0.122418
   7 H :    0.090165

  Mayer bond orders larger than 0.100000
B(  0-C ,  1-O ) :   1.9084 B(  0-C ,  2-C ) :   1.0267 B(  0-C ,  4-H ) :   0.9161
B(  2-C ,  3-C ) :   1.9332 B(  2-C ,  5-H ) :   0.9601 B(  3-C ,  6-H ) :   0.9524
B(  3-C ,  7-H ) :   0.9647

-----------------------------------------------------------------------------
         ABSORPTION SPECTRUM VIA TRANSITION ELECTRIC DIPOLE MOMENTS
-----------------------------------------------------------------------------
State   Energy    Wavelength  fosc         T2        TX        TY        TZ
        (cm-1)      (nm)                 (au**2)    (au)      (au)      (au)
-----------------------------------------------------------------------------
   1   33362.0    299.7   0.000248354   0.00245   0.04861  -0.00473  -0.00812

Dispersion correction           -0.025923502
FINAL SINGLE POINT ENERGY      -189.305549579984

DIPOLE MOMENT
-------------
                                X             Y             Z
Electronic contribution:     -2.10285      -1.93552      -0.09533
Nuclear contribution   :      2.37902       2.86353       0.09332
                        -----------------------------------------
Total Dipole Moment    :      0.27617       0.92801      -0.00201
                        -----------------------------------------
Magnitude (a.u.)       :      0.96823
Magnitude (Debye)      :      2.46106

Rotational constants in cm-1:     0.729536     0.222772     0.171053
Rotational constants in MHz : 21870.940722  6678.530426  5128.036621

                             ****ORCA TERMINATED NORMALLY****
TOTAL RUN TIME: 0 days 0 hours 0 minutes 10 seconds 723 msec
