                         Program Version 5.0.3 -  RELEASE  -
|  1> ! HF-3c
|  2> !TightSCF
|  3> %scf
|  4>  ConvForced true
|  5>  convergence tight
|  6>  MaxIter 500
|  7> end
|  8>
|  9> %tddft
| 10>  nroots 1
| 11> end
| 12>
| 13> # 	16769
| 14> * xyz 0 1
| 15> 		C   -1.213224  -0.271556  -0.093253
| 16> 		O   -1.519200  -1.167493  -0.797033
| 17> 		C   -0.018079   0.527395  -0.182785
| 18> 		C    1.202594   0.023976   0.206479
| 19> 		H   -1.750698  -0.138799   0.880839
| 20> 		H   -0.053992   1.410447  -0.680116
| 21> 		H    1.265775  -1.015393   0.516615
| 22> 		H    2.103228   0.578819   0.140486
| 23> *
| 24>
| 25>                          ****END OF INPUT****

CARTESIAN COORDINATES (ANGSTROEM)
---------------------------------
  C     -1.213224   -0.271556   -0.093253
  O     -1.519200   -1.167493   -0.797033
  C     -0.018079    0.527395   -0.182785
  C      1.202594    0.023976    0.206479
  H     -1.750698   -0.138799    0.880839
  H     -0.053992    1.410447   -0.680116
  H      1.265775   -1.015393    0.516615
  H      2.103228    0.578819    0.140486

 Total Charge           Charge          ....    0
 Multiplicity           Mult            ....    1
 Number of Electrons    NEL             ....   30
 Basis Dimension        Dim             ....   24

ORBITAL ENERGIES
----------------

  NO   OCC          E(Eh)            E(eV)
   0   2.0000     -20.388171      -554.7903
   1   2.0000     -11.310723      -307.7804
   2   2.0000     -11.191978      -304.5492
   3   2.0000     -11.186007      -304.3867
   4   2.0000      -1.433611       -39.0105
   5   2.0000      -1.081529       -29.4299
   6   2.0000      -0.896040       -24.3825
   7   2.0000      -0.774891       -21.0859
   8   2.0000      -0.701161       -19.0795
   9   2.0000      -0.644035       -17.5251
  10   2.0000      -0.615831       -16.7576
  11   2.0000      -0.566035       -15.4026
  12   2.0000      -0.517559       -14.0835
  13   2.0000      -0.416514       -11.3339
  14   2.0000      -0.392568       -10.6823
  15   0.0000       0.185403         5.0451
  16   0.0000       0.198354         5.3975
  17   0.0000       0.604848        16.4588
  18   0.0000       0.659997        17.9594
  19   0.0000       0.684934        18.6380

MULLIKEN ATOMIC CHARGES
-----------------------
   0 C :    0.176883
   1 O :   -0.342562
   2 C :   -0.182501
   3 C :   -0.227113
   4 H :    0.135690
   5 H :    0.152380
   6 H :    0.142916
   7 H :    0.144306
Sum of atomic charges:   -0.0000000

LOEWDIN ATOMIC CHARGES
----------------------
   0 C :    0.152076
   1 O :   -0.237342
   2 C :   -0.132578
   3 C :   -0.132557
   4 H :    0.071874
   5 H :    0.094214
   6 H :    0.092584
   7 H :    0.091729

  Mayer bond orders larger than 0.100000
B(  0-C ,  1-O ) :   1.9470 B(  0-C ,  2-C ) :   1.0007 B(  0-C ,  4-H ) :   0.9104
B(  2-C ,  3-C ) :   1.9792 B(  2-C ,  5-H ) :   0.9542 B(  3-C ,  6-H ) :   0.9677
B(  3-C ,  7-H ) :   0.9670

-----------------------------------------------------------------------------
         ABSORPTION SPECTRUM VIA TRANSITION ELECTRIC DIPOLE MOMENTS
-----------------------------------------------------------------------------
State   Energy    Wavelength  fosc         T2        TX        TY        TZ
        (cm-1)      (nm)                 (au**2)    (au)      (au)      (au)
-----------------------------------------------------------------------------
   1   35780.3    279.5   0.000134854   0.00124   0.02610   0.00965  -0.02159

Dispersion correction           -0.025583304
FINAL SINGLE POINT ENERGY      -189.304466649158

DIPOLE MOMENT
-------------
                                X             Y             Z
Electronic contribution:     -2.54678      -1.12269      -1.10607
Nuclear contribution   :      2.99568       1.73897       1.64795
                        -----------------------------------------
Total Dipole Moment    :      0.44890       0.61628       0.54188
                        -----------------------------------------
Magnitude (a.u.)       :      0.93539
Magnitude (Debye)      :      2.37757

Rotational constants in cm-1:     0.929561     0.180018     0.164319
Rotational constants in MHz : 27867.525995  5396.811041  4926.146319

                             ****ORCA TERMINATED NORMALLY****
TOTAL RUN TIME: 0 days 0 hours 0 minutes 11 seconds 967 msec
