                         Program Version 5.0.3 -  RELEASE  -
|  1> ! HF-3c
|  2> !TightSCF
|  3> %scf
|  4>  ConvForced true
|  5>  convergence tight
|  6>  MaxIter 500
|  7> end
|  8>
|  9> %tddft
| 10>  nroots 1
| 11> end
| 12>
| 13> # 	12586
| 14> * xyz 0 1
| 15> 		C   -1.153929  -0.296614   0.005221
| 16> 		O   -1.515777  -1.330963  -0.603814
| 17> 		C    0.029452   0.532342  -0.259132
| 18> 		C    1.210529   0.092183   0.098517
| 19> 		H   -1.718899   0.020073   1.045225
| 20> 		H   -0.226219   1.375427  -0.752534
| 21> 		H    1.254571  -0.941463   0.476517
| 22> 		H    2.158604   0.484438  -0.032451
| 23> *
| 24>
| 25>                          ****END OF INPUT****

CARTESIAN COORDINATES (ANGSTROEM)
---------------------------------
  C     -1.153929   -0.296614    0.005221
  O     -1.515777   -1.330963   -0.603814
  C      0.029452    0.532342   -0.259132
  C      1.210529    0.092183    0.098517
  H     -1.718899    0.020073    1.045225
  H     -0.226219    1.375427   -0.752534
  H      1.254571   -0.941463    0.476517
  H      2.158604    0.484438   -0.032451

 Total Charge           Charge          ....    0
 Multiplicity           Mult            ....    1
 Number of Electrons    NEL             ....   30
 Basis Dimension        Dim             ....   24

ORBITAL ENERGIES
----------------

  NO   OCC          E(Eh)            E(eV)
   0   2.0000     -20.362974      -554.1047
   1   2.0000     -11.288065      -307.1639
   2   2.0000     -11.205617      -304.9204
   3   2.0000     -11.193634      -304.5943
   4   2.0000      -1.372350       -37.3435
   5   2.0000      -1.099800       -29.9271
   6   2.0000      -0.895437       -24.3661
   7   2.0000      -0.760872       -20.7044
   8   2.0000      -0.687760       -18.7149
   9   2.0000      -0.647072       -17.6077
  10   2.0000      -0.599470       -16.3124
  11   2.0000      -0.546887       -14.8816
  12   2.0000      -0.485919       -13.2225
  13   2.0000      -0.419990       -11.4285
  14   2.0000      -0.401779       -10.9330
  15   0.0000       0.176882         4.8132
  16   0.0000       0.210012         5.7147
  17   0.0000       0.511700        13.9241
  18   0.0000       0.584313        15.9000
  19   0.0000       0.700705        19.0672

MULLIKEN ATOMIC CHARGES
-----------------------
   0 C :    0.179386
   1 O :   -0.341126
   2 C :   -0.184720
   3 C :   -0.237590
   4 H :    0.135485
   5 H :    0.154410
   6 H :    0.145768
   7 H :    0.148386
Sum of atomic charges:    0.0000000

LOEWDIN ATOMIC CHARGES
----------------------
   0 C :    0.159308
   1 O :   -0.258812
   2 C :   -0.125690
   3 C :   -0.141172
   4 H :    0.083124
   5 H :    0.094759
   6 H :    0.096058
   7 H :    0.092423

  Mayer bond orders larger than 0.100000
B(  0-C ,  1-O ) :   1.9487 B(  0-C ,  2-C ) :   0.9969 B(  0-C ,  4-H ) :   0.9064
B(  2-C ,  3-C ) :   1.9907 B(  2-C ,  5-H ) :   0.9508 B(  3-C ,  6-H ) :   0.9614
B(  3-C ,  7-H ) :   0.9641

-----------------------------------------------------------------------------
         ABSORPTION SPECTRUM VIA TRANSITION ELECTRIC DIPOLE MOMENTS
-----------------------------------------------------------------------------
State   Energy    Wavelength  fosc         T2        TX        TY        TZ
        (cm-1)      (nm)                 (au**2)    (au)      (au)      (au)
-----------------------------------------------------------------------------
   1   32551.6    307.2   0.000060417   0.00061   0.00792   0.00444  -0.02299

Dispersion correction           -0.025505379
FINAL SINGLE POINT ENERGY      -189.312301770651

DIPOLE MOMENT
-------------
                                X             Y             Z
Electronic contribution:     -2.37906      -1.22847      -0.89236
Nuclear contribution   :      2.81564       1.96349       1.40698
                        -----------------------------------------
Total Dipole Moment    :      0.43658       0.73502       0.51462
                        -----------------------------------------
Magnitude (a.u.)       :      0.99784
Magnitude (Debye)      :      2.53631

Rotational constants in cm-1:     0.890831     0.178012     0.161597
Rotational constants in MHz : 26706.446760  5336.665244  4844.552432

                             ****ORCA TERMINATED NORMALLY****
TOTAL RUN TIME: 0 days 0 hours 0 minutes 13 seconds 660 msec
