                         Program Version 5.0.3 -  RELEASE  -
|  1> ! B3LYP cc-pVDZ
|  2> !TightSCF
|  3> %scf
|  4>  ConvForced true
|  5>  convergence tight
|  6>  MaxIter 500
|  7> end
|  8>
|  9> %tddft
| 10>  nroots 1
| 11> end
| 12>
| 13> # 	8363
| 14> * xyz 0 1
| 15> 		C   -1.249704  -0.337310  -0.006625
| 16> 		O   -1.280551  -1.548442  -0.194941
| 17> 		C    0.037073   0.453985  -0.105980
| 18> 		C    1.187156  -0.005925   0.085351
| 19> 		H   -2.147491   0.223999   0.322181
| 20> 		H   -0.038205   1.610677  -0.097850
| 21> 		H    1.535659  -1.026752  -0.131945
| 22> 		H    1.961604   0.677566   0.223734
| 23> *
| 24>
| 25>                          ****END OF INPUT****

CARTESIAN COORDINATES (ANGSTROEM)
---------------------------------
  C     -1.249704   -0.337310   -0.006625
  O     -1.280551   -1.548442   -0.194941
  C      0.037073    0.453985   -0.105980
  C      1.187156   -0.005925    0.085351
  H     -2.147491    0.223999    0.322181
  H     -0.038205    1.610677   -0.097850
  H      1.535659   -1.026752   -0.131945
  H      1.961604    0.677566    0.223734

 Total Charge           Charge          ....    0
 Multiplicity           Mult            ....    1
 Number of Electrons    NEL             ....   30
 Basis Dimension        Dim             ....   76

ORBITAL ENERGIES
----------------

  NO   OCC          E(Eh)            E(eV)
   0   2.0000     -19.141102      -520.8559
   1   2.0000     -10.281610      -279.7768
   2   2.0000     -10.202104      -277.6134
   3   2.0000     -10.195129      -277.4236
   4   2.0000      -1.039426       -28.2842
   5   2.0000      -0.809239       -22.0205
   6   2.0000      -0.654864       -17.8198
   7   2.0000      -0.543701       -14.7949
   8   2.0000      -0.506506       -13.7827
   9   2.0000      -0.448525       -12.2050
  10   2.0000      -0.432760       -11.7760
  11   2.0000      -0.395994       -10.7755
  12   2.0000      -0.368097       -10.0164
  13   2.0000      -0.295617        -8.0442
  14   2.0000      -0.256179        -6.9710
  15   0.0000      -0.061828        -1.6824
  16   0.0000       0.042328         1.1518
  17   0.0000       0.067720         1.8428
  18   0.0000       0.096991         2.6392
  19   0.0000       0.113179         3.0798

MULLIKEN ATOMIC CHARGES
-----------------------
   0 C :    0.185336
   1 O :   -0.199505
   2 C :   -0.142014
   3 C :    0.113475
   4 H :   -0.004929
   5 H :    0.001720
   6 H :    0.034776
   7 H :    0.011141
Sum of atomic charges:   -0.0000000

LOEWDIN ATOMIC CHARGES
----------------------
   0 C :   -0.010318
   1 O :   -0.015941
   2 C :   -0.087506
   3 C :    0.009048
   4 H :   -0.000239
   5 H :    0.039875
   6 H :    0.039143
   7 H :    0.025938

  Mayer bond orders larger than 0.100000
B(  0-C ,  1-O ) :   2.1932 B(  0-C ,  2-C ) :   1.0142 B(  0-C ,  4-H ) :   0.9172
B(  2-C ,  3-C ) :   2.0337 B(  2-C ,  5-H ) :   0.9206 B(  3-C ,  6-H ) :   0.9385
B(  3-C ,  7-H ) :   0.9239

-----------------------------------------------------------------------------
         ABSORPTION SPECTRUM VIA TRANSITION ELECTRIC DIPOLE MOMENTS
-----------------------------------------------------------------------------
State   Energy    Wavelength  fosc         T2        TX        TY        TZ
        (cm-1)      (nm)                 (au**2)    (au)      (au)      (au)
-----------------------------------------------------------------------------
   1   29090.7    343.8   0.000033021   0.00037   0.01330  -0.00124   0.01398

FINAL SINGLE POINT ENERGY      -191.652443587361

DIPOLE MOMENT
-------------
                                X             Y             Z
Electronic contribution:     -2.14341      -1.95897      -0.36240
Nuclear contribution   :      2.52002       2.84552       0.50386
                        -----------------------------------------
Total Dipole Moment    :      0.37662       0.88654       0.14147
                        -----------------------------------------
Magnitude (a.u.)       :      0.97356
Magnitude (Debye)      :      2.47459

Rotational constants in cm-1:     0.814648     0.199380     0.161777
Rotational constants in MHz : 24422.528655  5977.276140  4849.961907

                             ****ORCA TERMINATED NORMALLY****
TOTAL RUN TIME: 0 days 0 hours 3 minutes 23 seconds 284 msec
