                         Program Version 5.0.3 -  RELEASE  -
|  1> ! B3LYP cc-pVDZ
|  2> !TightSCF
|  3> %scf
|  4>  ConvForced true
|  5>  convergence tight
|  6>  MaxIter 500
|  7> end
|  8>
|  9> %tddft
| 10>  nroots 1
| 11> end
| 12>
| 13> # 	32458
| 14> * xyz 0 1
| 15> 		C   -0.624983  -0.448013  -0.037178
| 16> 		O   -0.561022  -1.632767   0.016994
| 17> 		C    0.676013   0.425706   0.056865
| 18> 		C    1.827142  -0.130908  -0.001316
| 19> 		H   -1.672240   0.139425  -0.246688
| 20> 		H    0.464123   1.461317   0.095100
| 21> 		H    1.819286  -1.087837  -0.003953
| 22> 		H    2.853950   0.473112  -0.343315
| 23> *
| 24>
| 25>                          ****END OF INPUT****

CARTESIAN COORDINATES (ANGSTROEM)
---------------------------------
  C     -0.624983   -0.448013   -0.037178
  O     -0.561022   -1.632767    0.016994
  C      0.676013    0.425706    0.056865
  C      1.827142   -0.130908   -0.001316
  H     -1.672240    0.139425   -0.246688
  H      0.464123    1.461317    0.095100
  H      1.819286   -1.087837   -0.003953
  H      2.853950    0.473112   -0.343315

 Total Charge           Charge          ....    0
 Multiplicity           Mult            ....    1
 Number of Electrons    NEL             ....   30
 Basis Dimension        Dim             ....   76

ORBITAL ENERGIES
----------------

  NO   OCC          E(Eh)            E(eV)
   0   2.0000     -19.147807      -521.0383
   1   2.0000     -10.289501      -279.9916
   2   2.0000     -10.200076      -277.5582
   3   2.0000     -10.197859      -277.4979
   4   2.0000      -1.066402       -29.0183
   5   2.0000      -0.801608       -21.8129
   6   2.0000      -0.638877       -17.3847
   7   2.0000      -0.545402       -14.8411
   8   2.0000      -0.496830       -13.5194
   9   2.0000      -0.456808       -12.4304
  10   2.0000      -0.426789       -11.6135
  11   2.0000      -0.408273       -11.1097
  12   2.0000      -0.380521       -10.3545
  13   2.0000      -0.294128        -8.0036
  14   2.0000      -0.257346        -7.0027
  15   0.0000      -0.058079        -1.5804
  16   0.0000       0.038371         1.0441
  17   0.0000       0.068389         1.8610
  18   0.0000       0.084479         2.2988
  19   0.0000       0.120000         3.2654

MULLIKEN ATOMIC CHARGES
-----------------------
   0 C :    0.129967
   1 O :   -0.158935
   2 C :   -0.093568
   3 C :    0.124690
   4 H :    0.000985
   5 H :   -0.029844
   6 H :   -0.031482
   7 H :    0.058186
Sum of atomic charges:    0.0000000

LOEWDIN ATOMIC CHARGES
----------------------
   0 C :   -0.035753
   1 O :    0.021155
   2 C :   -0.069832
   3 C :    0.019467
   4 H :    0.001904
   5 H :    0.014416
   6 H :   -0.013790
   7 H :    0.062433

  Mayer bond orders larger than 0.100000
B(  0-C ,  1-O ) :   2.2196 B(  0-C ,  2-C ) :   0.9823 B(  0-C ,  4-H ) :   0.8839
B(  2-C ,  3-C ) :   2.0078 B(  2-C ,  5-H ) :   0.9515 B(  3-C ,  6-H ) :   0.9047
B(  3-C ,  7-H ) :   0.9413

-----------------------------------------------------------------------------
         ABSORPTION SPECTRUM VIA TRANSITION ELECTRIC DIPOLE MOMENTS
-----------------------------------------------------------------------------
State   Energy    Wavelength  fosc         T2        TX        TY        TZ
        (cm-1)      (nm)                 (au**2)    (au)      (au)      (au)
-----------------------------------------------------------------------------
   1   30786.7    324.8   0.000124981   0.00134   0.00006   0.00424  -0.03631

FINAL SINGLE POINT ENERGY      -191.624497986605

DIPOLE MOMENT
-------------
                                X             Y             Z
Electronic contribution:     -1.84866      -1.92764       0.36286
Nuclear contribution   :      2.09511       2.71322      -0.46707
                        -----------------------------------------
Total Dipole Moment    :      0.24645       0.78559      -0.10422
                        -----------------------------------------
Magnitude (a.u.)       :      0.82991
Magnitude (Debye)      :      2.10945

Rotational constants in cm-1:     0.771379     0.207088     0.164051
Rotational constants in MHz : 23125.349791  6208.331405  4918.119465

                             ****ORCA TERMINATED NORMALLY****
TOTAL RUN TIME: 0 days 0 hours 3 minutes 17 seconds 170 msec
