                         Program Version 5.0.3 -  RELEASE  -
|  1> ! B3LYP cc-pVDZ
|  2> !TightSCF
|  3> %scf
|  4>  ConvForced true
|  5>  convergence tight
|  6>  MaxIter 500
|  7> end
|  8>
|  9> %tddft
| 10>  nroots 1
| 11> end
| 12>
| 13> # 	5253
| 14> * xyz 0 1
| 15> 		C   -1.219865  -0.338540  -0.032371
| 16> 		O   -1.732948  -0.945343  -0.910489
| 17> 		C    0.029582   0.454976  -0.245381
| 18> 		C    1.172416   0.069768   0.208309
| 19> 		H   -1.599829  -0.322206   1.041428
| 20> 		H   -0.021459   1.251570  -0.843991
| 21> 		H    1.319763  -0.819594   0.712545
| 22> 		H    2.085724   0.681121  -0.051161
| 23> *
| 24>
| 25>                          ****END OF INPUT****

CARTESIAN COORDINATES (ANGSTROEM)
---------------------------------
  C     -1.219865   -0.338540   -0.032371
  O     -1.732948   -0.945343   -0.910489
  C      0.029582    0.454976   -0.245381
  C      1.172416    0.069768    0.208309
  H     -1.599829   -0.322206    1.041428
  H     -0.021459    1.251570   -0.843991
  H      1.319763   -0.819594    0.712545
  H      2.085724    0.681121   -0.051161

 Total Charge           Charge          ....    0
 Multiplicity           Mult            ....    1
 Number of Electrons    NEL             ....   30
 Basis Dimension        Dim             ....   76

ORBITAL ENERGIES
----------------

  NO   OCC          E(Eh)            E(eV)
   0   2.0000     -19.147155      -521.0206
   1   2.0000     -10.281368      -279.7702
   2   2.0000     -10.194885      -277.4169
   3   2.0000     -10.188093      -277.2321
   4   2.0000      -1.068246       -29.0684
   5   2.0000      -0.806876       -21.9562
   6   2.0000      -0.644358       -17.5339
   7   2.0000      -0.572827       -15.5874
   8   2.0000      -0.494819       -13.4647
   9   2.0000      -0.467151       -12.7118
  10   2.0000      -0.446308       -12.1446
  11   2.0000      -0.393554       -10.7091
  12   2.0000      -0.386645       -10.5211
  13   2.0000      -0.293010        -7.9732
  14   2.0000      -0.255912        -6.9637
  15   0.0000      -0.037013        -1.0072
  16   0.0000       0.013493         0.3672
  17   0.0000       0.083772         2.2796
  18   0.0000       0.096740         2.6324
  19   0.0000       0.113596         3.0911

MULLIKEN ATOMIC CHARGES
-----------------------
   0 C :    0.152292
   1 O :   -0.157693
   2 C :   -0.026001
   3 C :    0.050512
   4 H :   -0.010881
   5 H :   -0.031121
   6 H :   -0.007134
   7 H :    0.030026
Sum of atomic charges:   -0.0000000

LOEWDIN ATOMIC CHARGES
----------------------
   0 C :   -0.031363
   1 O :    0.036692
   2 C :   -0.046721
   3 C :   -0.017272
   4 H :   -0.006434
   5 H :    0.012074
   6 H :    0.011319
   7 H :    0.041705

  Mayer bond orders larger than 0.100000
B(  0-C ,  1-O ) :   2.2497 B(  0-C ,  2-C ) :   0.9792 B(  0-C ,  4-H ) :   0.9047
B(  2-C ,  3-C ) :   2.0622 B(  2-C ,  5-H ) :   0.9369 B(  3-C ,  6-H ) :   0.9440
B(  3-C ,  7-H ) :   0.9368

-----------------------------------------------------------------------------
         ABSORPTION SPECTRUM VIA TRANSITION ELECTRIC DIPOLE MOMENTS
-----------------------------------------------------------------------------
State   Energy    Wavelength  fosc         T2        TX        TY        TZ
        (cm-1)      (nm)                 (au**2)    (au)      (au)      (au)
-----------------------------------------------------------------------------
   1   33579.2    297.8   0.000576764   0.00565   0.06456  -0.00970   0.03731

FINAL SINGLE POINT ENERGY      -191.631064624001

DIPOLE MOMENT
-------------
                                X             Y             Z
Electronic contribution:     -2.88047      -1.07147      -1.28006
Nuclear contribution   :      3.40497       1.54052       1.76903
                        -----------------------------------------
Total Dipole Moment    :      0.52451       0.46905       0.48897
                        -----------------------------------------
Magnitude (a.u.)       :      0.85686
Magnitude (Debye)      :      2.17796

Rotational constants in cm-1:     1.134038     0.164543     0.162621
Rotational constants in MHz : 33997.613710  4932.876718  4875.242689

                             ****ORCA TERMINATED NORMALLY****
TOTAL RUN TIME: 0 days 0 hours 3 minutes 7 seconds 252 msec
