                         Program Version 5.0.3 -  RELEASE  -
|  1> ! HF-3c
|  2> !TightSCF
|  3> %scf
|  4>  ConvForced true
|  5>  convergence tight
|  6>  MaxIter 500
|  7> end
|  8>
|  9> %tddft
| 10>  nroots 1
| 11> end
| 12>
| 13> # 	18558
| 14> * xyz 0 1
| 15> 		C   -1.171541  -0.239441   0.022764
| 16> 		O   -2.109159  -0.391793   0.777365
| 17> 		C    0.074034   0.479661   0.293674
| 18> 		C    1.276166   0.090608  -0.218321
| 19> 		H   -1.273937  -0.902194  -0.839057
| 20> 		H   -0.139962   1.061580   0.936406
| 21> 		H    1.334359  -0.902081  -0.899507
| 22> 		H    2.028785   0.716849  -0.035493
| 23> *
| 24>
| 25>                          ****END OF INPUT****

CARTESIAN COORDINATES (ANGSTROEM)
---------------------------------
  C     -1.171541   -0.239441    0.022764
  O     -2.109159   -0.391793    0.777365
  C      0.074034    0.479661    0.293674
  C      1.276166    0.090608   -0.218321
  H     -1.273937   -0.902194   -0.839057
  H     -0.139962    1.061580    0.936406
  H      1.334359   -0.902081   -0.899507
  H      2.028785    0.716849   -0.035493

 Total Charge           Charge          ....    0
 Multiplicity           Mult            ....    1
 Number of Electrons    NEL             ....   30
 Basis Dimension        Dim             ....   24

ORBITAL ENERGIES
----------------

  NO   OCC          E(Eh)            E(eV)
   0   2.0000     -20.359802      -554.0184
   1   2.0000     -11.288294      -307.1701
   2   2.0000     -11.212458      -305.1065
   3   2.0000     -11.203598      -304.8654
   4   2.0000      -1.400019       -38.0964
   5   2.0000      -1.097321       -29.8596
   6   2.0000      -0.903118       -24.5751
   7   2.0000      -0.804980       -21.9046
   8   2.0000      -0.678186       -18.4544
   9   2.0000      -0.656762       -17.8714
  10   2.0000      -0.583114       -15.8673
  11   2.0000      -0.569393       -15.4940
  12   2.0000      -0.534697       -14.5499
  13   2.0000      -0.410785       -11.1780
  14   2.0000      -0.396044       -10.7769
  15   0.0000       0.119669         3.2564
  16   0.0000       0.285112         7.7583
  17   0.0000       0.495936        13.4951
  18   0.0000       0.626972        17.0608
  19   0.0000       0.677527        18.4364

MULLIKEN ATOMIC CHARGES
-----------------------
   0 C :    0.161241
   1 O :   -0.348784
   2 C :   -0.208898
   3 C :   -0.206156
   4 H :    0.131682
   5 H :    0.154163
   6 H :    0.165339
   7 H :    0.151413
Sum of atomic charges:    0.0000000

LOEWDIN ATOMIC CHARGES
----------------------
   0 C :    0.143049
   1 O :   -0.256336
   2 C :   -0.144636
   3 C :   -0.105877
   4 H :    0.067620
   5 H :    0.083629
   6 H :    0.121069
   7 H :    0.091482

  Mayer bond orders larger than 0.100000
B(  0-C ,  1-O ) :   1.9024 B(  0-C ,  2-C ) :   1.0304 B(  0-C ,  4-H ) :   0.9333
B(  2-C ,  3-C ) :   1.9391 B(  2-C ,  5-H ) :   0.9618 B(  3-C ,  6-H ) :   0.9575
B(  3-C ,  7-H ) :   0.9664

-----------------------------------------------------------------------------
         ABSORPTION SPECTRUM VIA TRANSITION ELECTRIC DIPOLE MOMENTS
-----------------------------------------------------------------------------
State   Energy    Wavelength  fosc         T2        TX        TY        TZ
        (cm-1)      (nm)                 (au**2)    (au)      (au)      (au)
-----------------------------------------------------------------------------
   1   31022.9    322.3   0.000155520   0.00165   0.00732  -0.03401  -0.02098

Dispersion correction           -0.025717857
FINAL SINGLE POINT ENERGY      -189.270925095257

DIPOLE MOMENT
-------------
                                X             Y             Z
Electronic contribution:     -2.75693      -0.13856       0.98571
Nuclear contribution   :      3.78893       0.12591      -1.63259
                        -----------------------------------------
Total Dipole Moment    :      1.03200      -0.01265      -0.64688
                        -----------------------------------------
Magnitude (a.u.)       :      1.21804
Magnitude (Debye)      :      3.09602

Rotational constants in cm-1:     1.534703     0.153631     0.143218
Rotational constants in MHz : 46009.229264  4605.728031  4293.577695

                             ****ORCA TERMINATED NORMALLY****
TOTAL RUN TIME: 0 days 0 hours 0 minutes 16 seconds 39 msec
