                         Program Version 5.0.3 -  RELEASE  -
|  1> ! B3LYP cc-pVDZ
|  2> !TightSCF
|  3> %scf
|  4>  ConvForced true
|  5>  convergence tight
|  6>  MaxIter 500
|  7> end
|  8>
|  9> %tddft
| 10>  nroots 1
| 11> end
| 12>
| 13> # 	5394
| 14> * xyz 0 1
| 15> 		C   -1.209080  -0.309328  -0.024385
| 16> 		O   -2.007042  -0.691337   0.764720
| 17> 		C   -0.082326   0.490803   0.323780
| 18> 		C    1.215320   0.022742  -0.161258
| 19> 		H   -1.204452  -0.701791  -1.040209
| 20> 		H   -0.064655   1.405099   0.974026
| 21> 		H    1.333243  -0.810092  -0.812237
| 22> 		H    1.991303   0.584529  -0.027639
| 23> *
| 24>
| 25>                          ****END OF INPUT****

CARTESIAN COORDINATES (ANGSTROEM)
---------------------------------
  C     -1.209080   -0.309328   -0.024385
  O     -2.007042   -0.691337    0.764720
  C     -0.082326    0.490803    0.323780
  C      1.215320    0.022742   -0.161258
  H     -1.204452   -0.701791   -1.040209
  H     -0.064655    1.405099    0.974026
  H      1.333243   -0.810092   -0.812237
  H      1.991303    0.584529   -0.027639

 Total Charge           Charge          ....    0
 Multiplicity           Mult            ....    1
 Number of Electrons    NEL             ....   30
 Basis Dimension        Dim             ....   76

ORBITAL ENERGIES
----------------

  NO   OCC          E(Eh)            E(eV)
   0   2.0000     -19.135667      -520.7080
   1   2.0000     -10.269400      -279.4446
   2   2.0000     -10.220505      -278.1141
   3   2.0000     -10.212500      -277.8963
   4   2.0000      -1.060770       -28.8650
   5   2.0000      -0.788172       -21.4472
   6   2.0000      -0.664165       -18.0728
   7   2.0000      -0.571101       -15.5404
   8   2.0000      -0.487112       -13.2550
   9   2.0000      -0.468524       -12.7492
  10   2.0000      -0.428692       -11.6653
  11   2.0000      -0.415481       -11.3058
  12   2.0000      -0.381418       -10.3789
  13   2.0000      -0.272712        -7.4209
  14   2.0000      -0.254633        -6.9289
  15   0.0000      -0.069050        -1.8789
  16   0.0000       0.018651         0.5075
  17   0.0000       0.082554         2.2464
  18   0.0000       0.091058         2.4778
  19   0.0000       0.122633         3.3370

MULLIKEN ATOMIC CHARGES
-----------------------
   0 C :    0.200801
   1 O :   -0.171819
   2 C :   -0.112712
   3 C :    0.069272
   4 H :   -0.029909
   5 H :    0.029983
   6 H :    0.023463
   7 H :   -0.009078
Sum of atomic charges:   -0.0000000

LOEWDIN ATOMIC CHARGES
----------------------
   0 C :   -0.072799
   1 O :    0.029214
   2 C :   -0.033544
   3 C :    0.032355
   4 H :   -0.007731
   5 H :    0.042478
   6 H :    0.021495
   7 H :   -0.011467

  Mayer bond orders larger than 0.100000
B(  0-C ,  1-O ) :   2.2049 B(  0-C ,  2-C ) :   1.0512 B(  0-C ,  4-H ) :   0.9221
B(  2-C ,  3-C ) :   1.9346 B(  2-C ,  5-H ) :   0.9476 B(  3-C ,  6-H ) :   0.9647
B(  3-C ,  7-H ) :   0.9569

-----------------------------------------------------------------------------
         ABSORPTION SPECTRUM VIA TRANSITION ELECTRIC DIPOLE MOMENTS
-----------------------------------------------------------------------------
State   Energy    Wavelength  fosc         T2        TX        TY        TZ
        (cm-1)      (nm)                 (au**2)    (au)      (au)      (au)
-----------------------------------------------------------------------------
   1   28851.0    346.6   0.001395858   0.01593  -0.11438  -0.01557   0.05101

FINAL SINGLE POINT ENERGY      -191.637805297562

DIPOLE MOMENT
-------------
                                X             Y             Z
Electronic contribution:     -3.12898      -0.59225       1.20011
Nuclear contribution   :      3.97870       0.98407      -1.71103
                        -----------------------------------------
Total Dipole Moment    :      0.84972       0.39182      -0.51092
                        -----------------------------------------
Magnitude (a.u.)       :      1.06611
Magnitude (Debye)      :      2.70983

Rotational constants in cm-1:     1.197365     0.161846     0.151795
Rotational constants in MHz : 35896.088542  4852.011393  4550.712100

                             ****ORCA TERMINATED NORMALLY****
TOTAL RUN TIME: 0 days 0 hours 3 minutes 20 seconds 740 msec
