                         Program Version 5.0.3 -  RELEASE  -
|  1> ! HF-3c
|  2> !TightSCF
|  3> %scf
|  4>  ConvForced true
|  5>  convergence tight
|  6>  MaxIter 500
|  7> end
|  8>
|  9> %tddft
| 10>  nroots 1
| 11> end
| 12>
| 13> # 	15196
| 14> * xyz 0 1
| 15> 		C   -1.128472  -0.314969  -0.082246
| 16> 		O   -2.011311  -0.660532  -0.921648
| 17> 		C    0.023417   0.398561  -0.290357
| 18> 		C    1.183154   0.094932   0.308842
| 19> 		H   -1.256759  -0.673140   1.013107
| 20> 		H   -0.134427   1.092940  -1.202896
| 21> 		H    1.181092  -0.765765   1.017473
| 22> 		H    2.099099   0.748978   0.120879
| 23> *
| 24>
| 25>                          ****END OF INPUT****

CARTESIAN COORDINATES (ANGSTROEM)
---------------------------------
  C     -1.128472   -0.314969   -0.082246
  O     -2.011311   -0.660532   -0.921648
  C      0.023417    0.398561   -0.290357
  C      1.183154    0.094932    0.308842
  H     -1.256759   -0.673140    1.013107
  H     -0.134427    1.092940   -1.202896
  H      1.181092   -0.765765    1.017473
  H      2.099099    0.748978    0.120879

 Total Charge           Charge          ....    0
 Multiplicity           Mult            ....    1
 Number of Electrons    NEL             ....   30
 Basis Dimension        Dim             ....   24

ORBITAL ENERGIES
----------------

  NO   OCC          E(Eh)            E(eV)
   0   2.0000     -20.341183      -553.5117
   1   2.0000     -11.278372      -306.9001
   2   2.0000     -11.201379      -304.8050
   3   2.0000     -11.194716      -304.6237
   4   2.0000      -1.355597       -36.8877
   5   2.0000      -1.100077       -29.9346
   6   2.0000      -0.894967       -24.3533
   7   2.0000      -0.755182       -20.5495
   8   2.0000      -0.648185       -17.6380
   9   2.0000      -0.642520       -17.4839
  10   2.0000      -0.570542       -15.5252
  11   2.0000      -0.537926       -14.6377
  12   2.0000      -0.503440       -13.6993
  13   2.0000      -0.405818       -11.0429
  14   2.0000      -0.384471       -10.4620
  15   0.0000       0.116646         3.1741
  16   0.0000       0.295968         8.0537
  17   0.0000       0.525466        14.2987
  18   0.0000       0.576368        15.6838
  19   0.0000       0.602919        16.4062

MULLIKEN ATOMIC CHARGES
-----------------------
   0 C :    0.146983
   1 O :   -0.346822
   2 C :   -0.185865
   3 C :   -0.208755
   4 H :    0.126714
   5 H :    0.163505
   6 H :    0.148022
   7 H :    0.156218
Sum of atomic charges:   -0.0000000

LOEWDIN ATOMIC CHARGES
----------------------
   0 C :    0.138695
   1 O :   -0.271815
   2 C :   -0.140931
   3 C :   -0.116667
   4 H :    0.070296
   5 H :    0.113636
   6 H :    0.099048
   7 H :    0.107738

  Mayer bond orders larger than 0.100000
B(  0-C ,  1-O ) :   1.8733 B(  0-C ,  2-C ) :   1.0850 B(  0-C ,  4-H ) :   0.9219
B(  2-C ,  3-C ) :   1.9177 B(  2-C ,  5-H ) :   0.9400 B(  3-C ,  6-H ) :   0.9606
B(  3-C ,  7-H ) :   0.9602

-----------------------------------------------------------------------------
         ABSORPTION SPECTRUM VIA TRANSITION ELECTRIC DIPOLE MOMENTS
-----------------------------------------------------------------------------
State   Energy    Wavelength  fosc         T2        TX        TY        TZ
        (cm-1)      (nm)                 (au**2)    (au)      (au)      (au)
-----------------------------------------------------------------------------
   1   29271.8    341.6   0.000013345   0.00015  -0.00423   0.01017  -0.00536

Dispersion correction           -0.025722757
FINAL SINGLE POINT ENERGY      -189.324244197666

DIPOLE MOMENT
-------------
                                X             Y             Z
Electronic contribution:     -2.67579      -0.57667      -1.20964
Nuclear contribution   :      3.71390       0.90709       1.85439
                        -----------------------------------------
Total Dipole Moment    :      1.03811       0.33043       0.64476
                        -----------------------------------------
Magnitude (a.u.)       :      1.26592
Magnitude (Debye)      :      3.21772

Rotational constants in cm-1:     1.433547     0.157653     0.147715
Rotational constants in MHz : 42976.643871  4726.309941  4428.387204

                             ****ORCA TERMINATED NORMALLY****
TOTAL RUN TIME: 0 days 0 hours 0 minutes 11 seconds 997 msec
