                         Program Version 5.0.3 -  RELEASE  -
|  1> ! HF-3c
|  2> !TightSCF
|  3> %scf
|  4>  ConvForced true
|  5>  convergence tight
|  6>  MaxIter 500
|  7> end
|  8>
|  9> %tddft
| 10>  nroots 1
| 11> end
| 12>
| 13> # 	24927
| 14> * xyz 0 1
| 15> 		C   -0.568987  -0.459419   0.051845
| 16> 		O   -0.611889  -1.628795  -0.017147
| 17> 		C    0.602521   0.401603  -0.087715
| 18> 		C    1.881050  -0.069818   0.024012
| 19> 		H   -1.547217  -0.053839   0.161488
| 20> 		H    0.722834   1.461699   0.076558
| 21> 		H    1.931309  -1.351765  -0.042632
| 22> 		H    2.786306   0.518766   0.231416
| 23> *
| 24>
| 25>                          ****END OF INPUT****

CARTESIAN COORDINATES (ANGSTROEM)
---------------------------------
  C     -0.568987   -0.459419    0.051845
  O     -0.611889   -1.628795   -0.017147
  C      0.602521    0.401603   -0.087715
  C      1.881050   -0.069818    0.024012
  H     -1.547217   -0.053839    0.161488
  H      0.722834    1.461699    0.076558
  H      1.931309   -1.351765   -0.042632
  H      2.786306    0.518766    0.231416

 Total Charge           Charge          ....    0
 Multiplicity           Mult            ....    1
 Number of Electrons    NEL             ....   30
 Basis Dimension        Dim             ....   24

ORBITAL ENERGIES
----------------

  NO   OCC          E(Eh)            E(eV)
   0   2.0000     -20.366315      -554.1956
   1   2.0000     -11.307977      -307.7057
   2   2.0000     -11.186002      -304.3866
   3   2.0000     -11.173715      -304.0522
   4   2.0000      -1.430758       -38.9329
   5   2.0000      -1.066406       -29.0184
   6   2.0000      -0.877823       -23.8868
   7   2.0000      -0.749333       -20.3904
   8   2.0000      -0.706733       -19.2312
   9   2.0000      -0.607905       -16.5419
  10   2.0000      -0.593828       -16.1589
  11   2.0000      -0.558262       -15.1911
  12   2.0000      -0.480674       -13.0798
  13   2.0000      -0.413830       -11.2609
  14   2.0000      -0.382488       -10.4080
  15   0.0000       0.134196         3.6516
  16   0.0000       0.312611         8.5066
  17   0.0000       0.479393        13.0449
  18   0.0000       0.560152        15.2425
  19   0.0000       0.596445        16.2301

MULLIKEN ATOMIC CHARGES
-----------------------
   0 C :    0.160934
   1 O :   -0.363326
   2 C :   -0.208897
   3 C :   -0.174303
   4 H :    0.139803
   5 H :    0.147488
   6 H :    0.153737
   7 H :    0.144565
Sum of atomic charges:    0.0000000

LOEWDIN ATOMIC CHARGES
----------------------
   0 C :    0.142568
   1 O :   -0.259315
   2 C :   -0.171240
   3 C :   -0.087687
   4 H :    0.070526
   5 H :    0.096298
   6 H :    0.114285
   7 H :    0.094565

  Mayer bond orders larger than 0.100000
B(  0-C ,  1-O ) :   1.8955 B(  0-C ,  2-C ) :   1.0341 B(  0-C ,  4-H ) :   0.9286
B(  2-C ,  3-C ) :   1.9193 B(  2-C ,  5-H ) :   0.9583 B(  3-C ,  6-H ) :   0.9531
B(  3-C ,  7-H ) :   0.9653

-----------------------------------------------------------------------------
         ABSORPTION SPECTRUM VIA TRANSITION ELECTRIC DIPOLE MOMENTS
-----------------------------------------------------------------------------
State   Energy    Wavelength  fosc         T2        TX        TY        TZ
        (cm-1)      (nm)                 (au**2)    (au)      (au)      (au)
-----------------------------------------------------------------------------
   1   34538.2    289.5   0.000482631   0.00460   0.06590   0.00661   0.01465

Dispersion correction           -0.025558220
FINAL SINGLE POINT ENERGY      -189.281714628071

DIPOLE MOMENT
-------------
                                X             Y             Z
Electronic contribution:     -1.97449      -1.50580      -0.24468
Nuclear contribution   :      2.49230       2.33048       0.39928
                        -----------------------------------------
Total Dipole Moment    :      0.51781       0.82468       0.15460
                        -----------------------------------------
Magnitude (a.u.)       :      0.98596
Magnitude (Debye)      :      2.50611

Rotational constants in cm-1:     0.821634     0.200232     0.161690
Rotational constants in MHz : 24631.981005  6002.815027  4847.333698

                             ****ORCA TERMINATED NORMALLY****
TOTAL RUN TIME: 0 days 0 hours 0 minutes 12 seconds 793 msec
