                         Program Version 5.0.3 -  RELEASE  -
|  1> ! B3LYP cc-pVDZ
|  2> !TightSCF
|  3> %scf
|  4>  ConvForced true
|  5>  convergence tight
|  6>  MaxIter 500
|  7> end
|  8>
|  9> %tddft
| 10>  nroots 1
| 11> end
| 12>
| 13> # 	10512
| 14> * xyz 0 1
| 15> 		C   -1.169972  -0.357485   0.000406
| 16> 		O   -1.787764  -1.062284  -0.792986
| 17> 		C    0.011178   0.477541  -0.299842
| 18> 		C    1.231821   0.076278   0.235201
| 19> 		H   -1.432327  -0.118863   0.990290
| 20> 		H   -0.244595   1.179304  -1.031767
| 21> 		H    1.291504  -0.892622   0.799661
| 22> 		H    2.155560   0.650288   0.028828
| 23> *
| 24>
| 25>                          ****END OF INPUT****

CARTESIAN COORDINATES (ANGSTROEM)
---------------------------------
  C     -1.169972   -0.357485    0.000406
  O     -1.787764   -1.062284   -0.792986
  C      0.011178    0.477541   -0.299842
  C      1.231821    0.076278    0.235201
  H     -1.432327   -0.118863    0.990290
  H     -0.244595    1.179304   -1.031767
  H      1.291504   -0.892622    0.799661
  H      2.155560    0.650288    0.028828

 Total Charge           Charge          ....    0
 Multiplicity           Mult            ....    1
 Number of Electrons    NEL             ....   30
 Basis Dimension        Dim             ....   76

ORBITAL ENERGIES
----------------

  NO   OCC          E(Eh)            E(eV)
   0   2.0000     -19.145833      -520.9846
   1   2.0000     -10.274708      -279.5890
   2   2.0000     -10.221940      -278.1531
   3   2.0000     -10.208824      -277.7962
   4   2.0000      -1.040118       -28.3031
   5   2.0000      -0.793757       -21.5992
   6   2.0000      -0.658060       -17.9067
   7   2.0000      -0.572799       -15.5867
   8   2.0000      -0.480169       -13.0661
   9   2.0000      -0.461930       -12.5697
  10   2.0000      -0.439546       -11.9606
  11   2.0000      -0.396041       -10.7768
  12   2.0000      -0.372139       -10.1264
  13   2.0000      -0.278938        -7.5903
  14   2.0000      -0.254963        -6.9379
  15   0.0000      -0.054705        -1.4886
  16   0.0000      -0.005569        -0.1515
  17   0.0000       0.082444         2.2434
  18   0.0000       0.092555         2.5186
  19   0.0000       0.112424         3.0592

MULLIKEN ATOMIC CHARGES
-----------------------
   0 C :    0.189343
   1 O :   -0.201536
   2 C :   -0.062121
   3 C :   -0.007417
   4 H :   -0.013142
   5 H :    0.005937
   6 H :    0.043632
   7 H :    0.045303
Sum of atomic charges:    0.0000000

LOEWDIN ATOMIC CHARGES
----------------------
   0 C :   -0.011609
   1 O :   -0.007083
   2 C :   -0.040388
   3 C :   -0.025356
   4 H :   -0.011158
   5 H :    0.025024
   6 H :    0.037616
   7 H :    0.032955

  Mayer bond orders larger than 0.100000
B(  0-C ,  1-O ) :   2.2073 B(  0-C ,  2-C ) :   1.0149 B(  0-C ,  4-H ) :   0.9199
B(  2-C ,  3-C ) :   1.9827 B(  2-C ,  5-H ) :   0.9491 B(  3-C ,  6-H ) :   0.9455
B(  3-C ,  7-H ) :   0.9520

-----------------------------------------------------------------------------
         ABSORPTION SPECTRUM VIA TRANSITION ELECTRIC DIPOLE MOMENTS
-----------------------------------------------------------------------------
State   Energy    Wavelength  fosc         T2        TX        TY        TZ
        (cm-1)      (nm)                 (au**2)    (au)      (au)      (au)
-----------------------------------------------------------------------------
   1   30248.6    330.6   0.000212819   0.00232   0.04646   0.01237   0.00209

FINAL SINGLE POINT ENERGY      -191.642092726732

DIPOLE MOMENT
-------------
                                X             Y             Z
Electronic contribution:     -2.74968      -1.10451      -1.10165
Nuclear contribution   :      3.37750       1.68003       1.57773
                        -----------------------------------------
Total Dipole Moment    :      0.62782       0.57551       0.47608
                        -----------------------------------------
Magnitude (a.u.)       :      0.97572
Magnitude (Debye)      :      2.48008

Rotational constants in cm-1:     1.080262     0.159192     0.153716
Rotational constants in MHz : 32385.434853  4772.468774  4608.297010

                             ****ORCA TERMINATED NORMALLY****
TOTAL RUN TIME: 0 days 0 hours 3 minutes 23 seconds 15 msec
