                         Program Version 5.0.3 -  RELEASE  -
|  1> ! HF-3c
|  2> !TightSCF
|  3> %scf
|  4>  ConvForced true
|  5>  convergence tight
|  6>  MaxIter 500
|  7> end
|  8>
|  9> %tddft
| 10>  nroots 1
| 11> end
| 12>
| 13> # 	16053
| 14> * xyz 0 1
| 15> 		C   -1.150120  -0.391390  -0.077319
| 16> 		O   -1.706187  -1.105979  -0.872457
| 17> 		C    0.059093   0.477336  -0.290238
| 18> 		C    1.287143   0.033788   0.213844
| 19> 		H   -1.595171  -0.240692   0.942043
| 20> 		H   -0.183690   1.389816  -0.669287
| 21> 		H    1.228247  -0.861205   0.686138
| 22> 		H    2.069860   0.683450   0.071249
| 23> *
| 24>
| 25>                          ****END OF INPUT****

CARTESIAN COORDINATES (ANGSTROEM)
---------------------------------
  C     -1.150120   -0.391390   -0.077319
  O     -1.706187   -1.105979   -0.872457
  C      0.059093    0.477336   -0.290238
  C      1.287143    0.033788    0.213844
  H     -1.595171   -0.240692    0.942043
  H     -0.183690    1.389816   -0.669287
  H      1.228247   -0.861205    0.686138
  H      2.069860    0.683450    0.071249

 Total Charge           Charge          ....    0
 Multiplicity           Mult            ....    1
 Number of Electrons    NEL             ....   30
 Basis Dimension        Dim             ....   24

ORBITAL ENERGIES
----------------

  NO   OCC          E(Eh)            E(eV)
   0   2.0000     -20.381911      -554.6200
   1   2.0000     -11.300717      -307.5081
   2   2.0000     -11.195530      -304.6459
   3   2.0000     -11.186802      -304.4083
   4   2.0000      -1.411624       -38.4122
   5   2.0000      -1.077809       -29.3287
   6   2.0000      -0.895444       -24.3663
   7   2.0000      -0.777576       -21.1589
   8   2.0000      -0.695697       -18.9309
   9   2.0000      -0.639145       -17.3920
  10   2.0000      -0.608192       -16.5497
  11   2.0000      -0.584277       -15.8990
  12   2.0000      -0.509890       -13.8748
  13   2.0000      -0.417250       -11.3539
  14   2.0000      -0.386817       -10.5258
  15   0.0000       0.174297         4.7429
  16   0.0000       0.198714         5.4073
  17   0.0000       0.566268        15.4089
  18   0.0000       0.678813        18.4714
  19   0.0000       0.680179        18.5086

MULLIKEN ATOMIC CHARGES
-----------------------
   0 C :    0.173018
   1 O :   -0.342979
   2 C :   -0.151274
   3 C :   -0.262023
   4 H :    0.134506
   5 H :    0.149354
   6 H :    0.147407
   7 H :    0.151990
Sum of atomic charges:    0.0000000

LOEWDIN ATOMIC CHARGES
----------------------
   0 C :    0.151727
   1 O :   -0.244593
   2 C :   -0.100285
   3 C :   -0.158837
   4 H :    0.072348
   5 H :    0.091339
   6 H :    0.091975
   7 H :    0.096326

  Mayer bond orders larger than 0.100000
B(  0-C ,  1-O ) :   1.9554 B(  0-C ,  2-C ) :   0.9847 B(  0-C ,  4-H ) :   0.9145
B(  2-C ,  3-C ) :   1.9845 B(  2-C ,  5-H ) :   0.9585 B(  3-C ,  6-H ) :   0.9692
B(  3-C ,  7-H ) :   0.9669

-----------------------------------------------------------------------------
         ABSORPTION SPECTRUM VIA TRANSITION ELECTRIC DIPOLE MOMENTS
-----------------------------------------------------------------------------
State   Energy    Wavelength  fosc         T2        TX        TY        TZ
        (cm-1)      (nm)                 (au**2)    (au)      (au)      (au)
-----------------------------------------------------------------------------
   1   34921.7    286.4   0.000061406   0.00058   0.02399   0.00179   0.00039

Dispersion correction           -0.025365483
FINAL SINGLE POINT ENERGY      -189.301187030311

DIPOLE MOMENT
-------------
                                X             Y             Z
Electronic contribution:     -2.49174      -1.29797      -1.29833
Nuclear contribution   :      2.97326       1.92159       1.94585
                        -----------------------------------------
Total Dipole Moment    :      0.48152       0.62362       0.64752
                        -----------------------------------------
Magnitude (a.u.)       :      1.01983
Magnitude (Debye)      :      2.59219

Rotational constants in cm-1:     1.066200     0.159220     0.152722
Rotational constants in MHz : 31963.863726  4773.288378  4578.477649

                             ****ORCA TERMINATED NORMALLY****
TOTAL RUN TIME: 0 days 0 hours 0 minutes 11 seconds 799 msec
