                         Program Version 5.0.3 -  RELEASE  -
|  1> ! B3LYP cc-pVDZ
|  2> !TightSCF
|  3> %scf
|  4>  ConvForced true
|  5>  convergence tight
|  6>  MaxIter 500
|  7> end
|  8>
|  9> %tddft
| 10>  nroots 1
| 11> end
| 12>
| 13> # 	26364
| 14> * xyz 0 1
| 15> 		C   -0.570745  -0.432913  -0.035966
| 16> 		O   -0.577317  -1.614999   0.028949
| 17> 		C    0.619746   0.422018   0.005045
| 18> 		C    1.860420  -0.162476   0.002340
| 19> 		H   -1.587362   0.150456  -0.168457
| 20> 		H    0.322749   1.390643   0.275325
| 21> 		H    1.952205  -1.130315  -0.152401
| 22> 		H    2.650229   0.550767  -0.059532
| 23> *
| 24>
| 25>                          ****END OF INPUT****

CARTESIAN COORDINATES (ANGSTROEM)
---------------------------------
  C     -0.570745   -0.432913   -0.035966
  O     -0.577317   -1.614999    0.028949
  C      0.619746    0.422018    0.005045
  C      1.860420   -0.162476    0.002340
  H     -1.587362    0.150456   -0.168457
  H      0.322749    1.390643    0.275325
  H      1.952205   -1.130315   -0.152401
  H      2.650229    0.550767   -0.059532

 Total Charge           Charge          ....    0
 Multiplicity           Mult            ....    1
 Number of Electrons    NEL             ....   30
 Basis Dimension        Dim             ....   76

ORBITAL ENERGIES
----------------

  NO   OCC          E(Eh)            E(eV)
   0   2.0000     -19.136768      -520.7379
   1   2.0000     -10.271315      -279.4967
   2   2.0000     -10.209427      -277.8126
   3   2.0000     -10.203691      -277.6565
   4   2.0000      -1.060112       -28.8471
   5   2.0000      -0.797579       -21.7032
   6   2.0000      -0.666923       -18.1479
   7   2.0000      -0.539801       -14.6887
   8   2.0000      -0.510498       -13.8914
   9   2.0000      -0.459963       -12.5162
  10   2.0000      -0.420786       -11.4502
  11   2.0000      -0.407710       -11.0944
  12   2.0000      -0.396671       -10.7940
  13   2.0000      -0.286647        -7.8000
  14   2.0000      -0.251193        -6.8353
  15   0.0000      -0.072638        -1.9766
  16   0.0000       0.056866         1.5474
  17   0.0000       0.073973         2.0129
  18   0.0000       0.096783         2.6336
  19   0.0000       0.127514         3.4698

MULLIKEN ATOMIC CHARGES
-----------------------
   0 C :    0.137396
   1 O :   -0.167055
   2 C :   -0.109584
   3 C :    0.168855
   4 H :   -0.034097
   5 H :   -0.017494
   6 H :   -0.006153
   7 H :    0.028132
Sum of atomic charges:    0.0000000

LOEWDIN ATOMIC CHARGES
----------------------
   0 C :   -0.064609
   1 O :    0.019377
   2 C :   -0.060719
   3 C :    0.064709
   4 H :   -0.011082
   5 H :    0.018868
   6 H :    0.000649
   7 H :    0.032807

  Mayer bond orders larger than 0.100000
B(  0-C ,  1-O ) :   2.2225 B(  0-C ,  2-C ) :   1.0696 B(  0-C ,  4-H ) :   0.8971
B(  2-C ,  3-C ) :   1.9451 B(  2-C ,  5-H ) :   0.9502 B(  3-C ,  6-H ) :   0.9371
B(  3-C ,  7-H ) :   0.9462

-----------------------------------------------------------------------------
         ABSORPTION SPECTRUM VIA TRANSITION ELECTRIC DIPOLE MOMENTS
-----------------------------------------------------------------------------
State   Energy    Wavelength  fosc         T2        TX        TY        TZ
        (cm-1)      (nm)                 (au**2)    (au)      (au)      (au)
-----------------------------------------------------------------------------
   1   27071.2    369.4   0.000308390   0.00375   0.04390   0.00492   0.04241

FINAL SINGLE POINT ENERGY      -191.662517284519

DIPOLE MOMENT
-------------
                                X             Y             Z
Electronic contribution:     -1.52260      -1.86098       0.07628
Nuclear contribution   :      1.97636       2.68936      -0.09908
                        -----------------------------------------
Total Dipole Moment    :      0.45376       0.82838      -0.02280
                        -----------------------------------------
Magnitude (a.u.)       :      0.94479
Magnitude (Debye)      :      2.40146

Rotational constants in cm-1:     0.759988     0.213413     0.167156
Rotational constants in MHz : 22783.872155  6397.948782  5011.211666

                             ****ORCA TERMINATED NORMALLY****
TOTAL RUN TIME: 0 days 0 hours 3 minutes 22 seconds 717 msec
