                         Program Version 5.0.3 -  RELEASE  -
|  1> ! HF-3c
|  2> !TightSCF
|  3> %scf
|  4>  ConvForced true
|  5>  convergence tight
|  6>  MaxIter 500
|  7> end
|  8>
|  9> %tddft
| 10>  nroots 1
| 11> end
| 12>
| 13> # 	26410
| 14> * xyz 0 1
| 15> 		C   -0.499471  -0.459788   0.006079
| 16> 		O   -0.659725  -1.708968   0.000628
| 17> 		C    0.663563   0.489085  -0.031345
| 18> 		C    1.845010  -0.080693   0.027484
| 19> 		H   -1.670722   0.130461   0.066594
| 20> 		H    0.340331   1.456063   0.027363
| 21> 		H    2.051516  -1.109519  -0.164318
| 22> 		H    2.796859   0.508847   0.038545
| 23> *
| 24>
| 25>                          ****END OF INPUT****

CARTESIAN COORDINATES (ANGSTROEM)
---------------------------------
  C     -0.499471   -0.459788    0.006079
  O     -0.659725   -1.708968    0.000628
  C      0.663563    0.489085   -0.031345
  C      1.845010   -0.080693    0.027484
  H     -1.670722    0.130461    0.066594
  H      0.340331    1.456063    0.027363
  H      2.051516   -1.109519   -0.164318
  H      2.796859    0.508847    0.038545

 Total Charge           Charge          ....    0
 Multiplicity           Mult            ....    1
 Number of Electrons    NEL             ....   30
 Basis Dimension        Dim             ....   24

ORBITAL ENERGIES
----------------

  NO   OCC          E(Eh)            E(eV)
   0   2.0000     -20.338116      -553.4283
   1   2.0000     -11.270166      -306.6768
   2   2.0000     -11.209748      -305.0328
   3   2.0000     -11.208696      -305.0041
   4   2.0000      -1.352120       -36.7931
   5   2.0000      -1.097877       -29.8747
   6   2.0000      -0.884088       -24.0573
   7   2.0000      -0.741170       -20.1683
   8   2.0000      -0.683391       -18.5960
   9   2.0000      -0.627862       -17.0850
  10   2.0000      -0.563560       -15.3353
  11   2.0000      -0.533376       -14.5139
  12   2.0000      -0.516108       -14.0440
  13   2.0000      -0.403480       -10.9792
  14   2.0000      -0.379282       -10.3208
  15   0.0000       0.128298         3.4912
  16   0.0000       0.297854         8.1050
  17   0.0000       0.445330        12.1180
  18   0.0000       0.549209        14.9447
  19   0.0000       0.627319        17.0702

MULLIKEN ATOMIC CHARGES
-----------------------
   0 C :    0.182535
   1 O :   -0.362172
   2 C :   -0.194573
   3 C :   -0.203379
   4 H :    0.109206
   5 H :    0.156491
   6 H :    0.164180
   7 H :    0.147712
Sum of atomic charges:   -0.0000000

LOEWDIN ATOMIC CHARGES
----------------------
   0 C :    0.155211
   1 O :   -0.282402
   2 C :   -0.136934
   3 C :   -0.101194
   4 H :    0.065081
   5 H :    0.096263
   6 H :    0.106209
   7 H :    0.097765

  Mayer bond orders larger than 0.100000
B(  0-C ,  1-O ) :   1.9085 B(  0-C ,  2-C ) :   1.0174 B(  0-C ,  4-H ) :   0.9146
B(  2-C ,  3-C ) :   1.9469 B(  2-C ,  5-H ) :   0.9575 B(  3-C ,  6-H ) :   0.9581
B(  3-C ,  7-H ) :   0.9601

-----------------------------------------------------------------------------
         ABSORPTION SPECTRUM VIA TRANSITION ELECTRIC DIPOLE MOMENTS
-----------------------------------------------------------------------------
State   Energy    Wavelength  fosc         T2        TX        TY        TZ
        (cm-1)      (nm)                 (au**2)    (au)      (au)      (au)
-----------------------------------------------------------------------------
   1   29315.7    341.1   0.000127484   0.00143  -0.03094   0.00141  -0.02174

Dispersion correction           -0.025236763
FINAL SINGLE POINT ENERGY      -189.314659422769

DIPOLE MOMENT
-------------
                                X             Y             Z
Electronic contribution:     -1.60626      -1.71493       0.02458
Nuclear contribution   :      2.14010       2.71170      -0.03015
                        -----------------------------------------
Total Dipole Moment    :      0.53384       0.99677      -0.00557
                        -----------------------------------------
Magnitude (a.u.)       :      1.13074
Magnitude (Debye)      :      2.87411

Rotational constants in cm-1:     0.772434     0.193427     0.154847
Rotational constants in MHz : 23156.999572  5798.787936  4642.209925

                             ****ORCA TERMINATED NORMALLY****
TOTAL RUN TIME: 0 days 0 hours 0 minutes 9 seconds 696 msec
