                         Program Version 5.0.3 -  RELEASE  -
|  1> ! HF-3c
|  2> !TightSCF
|  3> %scf
|  4>  ConvForced true
|  5>  convergence tight
|  6>  MaxIter 500
|  7> end
|  8>
|  9> %tddft
| 10>  nroots 1
| 11> end
| 12>
| 13> # 	25689
| 14> * xyz 0 1
| 15> 		C   -0.638046  -0.467177  -0.046195
| 16> 		O   -0.590630  -1.637671   0.031496
| 17> 		C    0.652930   0.432492   0.006274
| 18> 		C    1.864791  -0.110280  -0.026233
| 19> 		H   -1.544409   0.091178   0.084601
| 20> 		H    0.640086   1.464949   0.051376
| 21> 		H    2.201063  -1.082475  -0.223449
| 22> 		H    2.655675   0.509762   0.402306
| 23> *
| 24>
| 25>                          ****END OF INPUT****

CARTESIAN COORDINATES (ANGSTROEM)
---------------------------------
  C     -0.638046   -0.467177   -0.046195
  O     -0.590630   -1.637671    0.031496
  C      0.652930    0.432492    0.006274
  C      1.864791   -0.110280   -0.026233
  H     -1.544409    0.091178    0.084601
  H      0.640086    1.464949    0.051376
  H      2.201063   -1.082475   -0.223449
  H      2.655675    0.509762    0.402306

 Total Charge           Charge          ....    0
 Multiplicity           Mult            ....    1
 Number of Electrons    NEL             ....   30
 Basis Dimension        Dim             ....   24

ORBITAL ENERGIES
----------------

  NO   OCC          E(Eh)            E(eV)
   0   2.0000     -20.388713      -554.8051
   1   2.0000     -11.312316      -307.8238
   2   2.0000     -11.184360      -304.3419
   3   2.0000     -11.183135      -304.3086
   4   2.0000      -1.435696       -39.0673
   5   2.0000      -1.072369       -29.1806
   6   2.0000      -0.881472       -23.9861
   7   2.0000      -0.770630       -20.9699
   8   2.0000      -0.709829       -19.3154
   9   2.0000      -0.623874       -16.9765
  10   2.0000      -0.598065       -16.2742
  11   2.0000      -0.561722       -15.2852
  12   2.0000      -0.544776       -14.8241
  13   2.0000      -0.414315       -11.2741
  14   2.0000      -0.389599       -10.6015
  15   0.0000       0.142368         3.8740
  16   0.0000       0.286612         7.7991
  17   0.0000       0.521509        14.1910
  18   0.0000       0.635222        17.2853
  19   0.0000       0.702076        19.1044

MULLIKEN ATOMIC CHARGES
-----------------------
   0 C :    0.185629
   1 O :   -0.353009
   2 C :   -0.178496
   3 C :   -0.227729
   4 H :    0.137861
   5 H :    0.143698
   6 H :    0.151904
   7 H :    0.140142
Sum of atomic charges:   -0.0000000

LOEWDIN ATOMIC CHARGES
----------------------
   0 C :    0.157945
   1 O :   -0.243023
   2 C :   -0.133862
   3 C :   -0.125884
   4 H :    0.069785
   5 H :    0.088230
   6 H :    0.095399
   7 H :    0.091412

  Mayer bond orders larger than 0.100000
B(  0-C ,  1-O ) :   1.9398 B(  0-C ,  2-C ) :   0.9752 B(  0-C ,  4-H ) :   0.9226
B(  2-C ,  3-C ) :   1.9710 B(  2-C ,  5-H ) :   0.9623 B(  3-C ,  6-H ) :   0.9642
B(  3-C ,  7-H ) :   0.9641

-----------------------------------------------------------------------------
         ABSORPTION SPECTRUM VIA TRANSITION ELECTRIC DIPOLE MOMENTS
-----------------------------------------------------------------------------
State   Energy    Wavelength  fosc         T2        TX        TY        TZ
        (cm-1)      (nm)                 (au**2)    (au)      (au)      (au)
-----------------------------------------------------------------------------
   1   35004.8    285.7   0.000428828   0.00403   0.06309   0.00726  -0.00043

Dispersion correction           -0.025230414
FINAL SINGLE POINT ENERGY      -189.314347306862

DIPOLE MOMENT
-------------
                                X             Y             Z
Electronic contribution:     -2.30987      -1.82528      -0.26589
Nuclear contribution   :      2.54945       2.70950       0.29404
                        -----------------------------------------
Total Dipole Moment    :      0.23957       0.88422       0.02815
                        -----------------------------------------
Magnitude (a.u.)       :      0.91653
Magnitude (Debye)      :      2.32964

Rotational constants in cm-1:     0.777626     0.199743     0.159746
Rotational constants in MHz : 23312.639911  5988.145929  4789.053643

                             ****ORCA TERMINATED NORMALLY****
TOTAL RUN TIME: 0 days 0 hours 0 minutes 11 seconds 159 msec
