                         Program Version 5.0.3 -  RELEASE  -
|  1> ! HF-3c
|  2> !TightSCF
|  3> %scf
|  4>  ConvForced true
|  5>  convergence tight
|  6>  MaxIter 500
|  7> end
|  8>
|  9> %tddft
| 10>  nroots 1
| 11> end
| 12>
| 13> # 	4461
| 14> * xyz 0 1
| 15> 		C   -1.127464  -0.285439   0.009187
| 16> 		O   -1.204171  -1.544501  -0.152318
| 17> 		C    0.020079   0.498674  -0.013473
| 18> 		C    1.250512   0.003855   0.053665
| 19> 		H   -2.094439   0.234626   0.306110
| 20> 		H   -0.125571   1.593093  -0.306725
| 21> 		H    1.231856  -1.103800   0.098547
| 22> 		H    2.086873   0.652978  -0.032193
| 23> *
| 24>
| 25>                          ****END OF INPUT****

CARTESIAN COORDINATES (ANGSTROEM)
---------------------------------
  C     -1.127464   -0.285439    0.009187
  O     -1.204171   -1.544501   -0.152318
  C      0.020079    0.498674   -0.013473
  C      1.250512    0.003855    0.053665
  H     -2.094439    0.234626    0.306110
  H     -0.125571    1.593093   -0.306725
  H      1.231856   -1.103800    0.098547
  H      2.086873    0.652978   -0.032193

 Total Charge           Charge          ....    0
 Multiplicity           Mult            ....    1
 Number of Electrons    NEL             ....   30
 Basis Dimension        Dim             ....   24

ORBITAL ENERGIES
----------------

  NO   OCC          E(Eh)            E(eV)
   0   2.0000     -20.341048      -553.5080
   1   2.0000     -11.279740      -306.9373
   2   2.0000     -11.197144      -304.6898
   3   2.0000     -11.191542      -304.5373
   4   2.0000      -1.355453       -36.8838
   5   2.0000      -1.096471       -29.8365
   6   2.0000      -0.908643       -24.7254
   7   2.0000      -0.727728       -19.8025
   8   2.0000      -0.706140       -19.2150
   9   2.0000      -0.608821       -16.5669
  10   2.0000      -0.590562       -16.0700
  11   2.0000      -0.538356       -14.6494
  12   2.0000      -0.498717       -13.5708
  13   2.0000      -0.415557       -11.3079
  14   2.0000      -0.387135       -10.5345
  15   0.0000       0.114841         3.1250
  16   0.0000       0.303169         8.2496
  17   0.0000       0.560805        15.2603
  18   0.0000       0.601420        16.3655
  19   0.0000       0.629638        17.1333

MULLIKEN ATOMIC CHARGES
-----------------------
   0 C :    0.138490
   1 O :   -0.346650
   2 C :   -0.183894
   3 C :   -0.215075
   4 H :    0.137002
   5 H :    0.146004
   6 H :    0.170609
   7 H :    0.153514
Sum of atomic charges:   -0.0000000

LOEWDIN ATOMIC CHARGES
----------------------
   0 C :    0.134687
   1 O :   -0.272664
   2 C :   -0.141221
   3 C :   -0.112219
   4 H :    0.077891
   5 H :    0.097729
   6 H :    0.116345
   7 H :    0.099452

  Mayer bond orders larger than 0.100000
B(  0-C ,  1-O ) :   1.8688 B(  0-C ,  2-C ) :   1.0831 B(  0-C ,  4-H ) :   0.9289
B(  2-C ,  3-C ) :   1.9113 B(  2-C ,  5-H ) :   0.9510 B(  3-C ,  6-H ) :   0.9531
B(  3-C ,  7-H ) :   0.9642

-----------------------------------------------------------------------------
         ABSORPTION SPECTRUM VIA TRANSITION ELECTRIC DIPOLE MOMENTS
-----------------------------------------------------------------------------
State   Energy    Wavelength  fosc         T2        TX        TY        TZ
        (cm-1)      (nm)                 (au**2)    (au)      (au)      (au)
-----------------------------------------------------------------------------
   1   28598.1    349.7   0.000038188   0.00044   0.00895   0.00146  -0.01890

Dispersion correction           -0.026164481
FINAL SINGLE POINT ENERGY      -189.338694807715

DIPOLE MOMENT
-------------
                                X             Y             Z
Electronic contribution:     -1.71519      -1.67990      -0.09750
Nuclear contribution   :      2.11768       2.66098       0.17888
                        -----------------------------------------
Total Dipole Moment    :      0.40249       0.98108       0.08138
                        -----------------------------------------
Magnitude (a.u.)       :      1.06355
Magnitude (Debye)      :      2.70332

Rotational constants in cm-1:     0.780841     0.208415     0.165740
Rotational constants in MHz : 23409.024089  6248.113443  4968.760566

                             ****ORCA TERMINATED NORMALLY****
TOTAL RUN TIME: 0 days 0 hours 0 minutes 16 seconds 65 msec
