                         Program Version 5.0.3 -  RELEASE  -
|  1> ! B3LYP cc-pVDZ
|  2> !TightSCF
|  3> %scf
|  4>  ConvForced true
|  5>  convergence tight
|  6>  MaxIter 500
|  7> end
|  8>
|  9> %tddft
| 10>  nroots 1
| 11> end
| 12>
| 13> # 	8176
| 14> * xyz 0 1
| 15> 		C   -1.153073  -0.263227   0.171185
| 16> 		O   -1.961403  -0.518892   0.917012
| 17> 		C    0.076847   0.490802   0.278627
| 18> 		C    1.215084   0.037428  -0.205337
| 19> 		H   -1.294965  -0.856543  -0.832542
| 20> 		H   -0.079035   1.200581   0.966977
| 21> 		H    1.204691  -0.904824  -0.977692
| 22> 		H    2.040358   0.797138  -0.265005
| 23> *
| 24>
| 25>                          ****END OF INPUT****

CARTESIAN COORDINATES (ANGSTROEM)
---------------------------------
  C     -1.153073   -0.263227    0.171185
  O     -1.961403   -0.518892    0.917012
  C      0.076847    0.490802    0.278627
  C      1.215084    0.037428   -0.205337
  H     -1.294965   -0.856543   -0.832542
  H     -0.079035    1.200581    0.966977
  H      1.204691   -0.904824   -0.977692
  H      2.040358    0.797138   -0.265005

 Total Charge           Charge          ....    0
 Multiplicity           Mult            ....    1
 Number of Electrons    NEL             ....   30
 Basis Dimension        Dim             ....   76

ORBITAL ENERGIES
----------------

  NO   OCC          E(Eh)            E(eV)
   0   2.0000     -19.140508      -520.8397
   1   2.0000     -10.268388      -279.4170
   2   2.0000     -10.228401      -278.3289
   3   2.0000     -10.198497      -277.5152
   4   2.0000      -1.097696       -29.8698
   5   2.0000      -0.812919       -22.1206
   6   2.0000      -0.648064       -17.6347
   7   2.0000      -0.565043       -15.3756
   8   2.0000      -0.480963       -13.0877
   9   2.0000      -0.471904       -12.8412
  10   2.0000      -0.443796       -12.0763
  11   2.0000      -0.413640       -11.2557
  12   2.0000      -0.389361       -10.5950
  13   2.0000      -0.299492        -8.1496
  14   2.0000      -0.244591        -6.6557
  15   0.0000      -0.060102        -1.6355
  16   0.0000       0.049394         1.3441
  17   0.0000       0.064894         1.7659
  18   0.0000       0.086430         2.3519
  19   0.0000       0.114759         3.1227

MULLIKEN ATOMIC CHARGES
-----------------------
   0 C :    0.102978
   1 O :   -0.107502
   2 C :    0.018830
   3 C :   -0.018507
   4 H :   -0.074999
   5 H :   -0.035395
   6 H :    0.059812
   7 H :    0.054782
Sum of atomic charges:   -0.0000000

LOEWDIN ATOMIC CHARGES
----------------------
   0 C :   -0.094937
   1 O :    0.086286
   2 C :   -0.054685
   3 C :   -0.014625
   4 H :   -0.032234
   5 H :    0.009536
   6 H :    0.055113
   7 H :    0.045546

  Mayer bond orders larger than 0.100000
B(  0-C ,  1-O ) :   2.2950 B(  0-C ,  2-C ) :   1.0434 B(  0-C ,  4-H ) :   0.8936
B(  2-C ,  3-C ) :   1.9693 B(  2-C ,  5-H ) :   0.9327 B(  3-C ,  6-H ) :   0.9284
B(  3-C ,  7-H ) :   0.9327

-----------------------------------------------------------------------------
         ABSORPTION SPECTRUM VIA TRANSITION ELECTRIC DIPOLE MOMENTS
-----------------------------------------------------------------------------
State   Energy    Wavelength  fosc         T2        TX        TY        TZ
        (cm-1)      (nm)                 (au**2)    (au)      (au)      (au)
-----------------------------------------------------------------------------
   1   28839.2    346.7   0.000705323   0.00805  -0.02668   0.07391   0.04333

FINAL SINGLE POINT ENERGY      -191.627710121995

DIPOLE MOMENT
-------------
                                X             Y             Z
Electronic contribution:     -2.81559      -0.18346       1.74522
Nuclear contribution   :      3.59631       0.54204      -2.13435
                        -----------------------------------------
Total Dipole Moment    :      0.78073       0.35858      -0.38912
                        -----------------------------------------
Magnitude (a.u.)       :      0.94315
Magnitude (Debye)      :      2.39730

Rotational constants in cm-1:     1.447368     0.162427     0.151858
Rotational constants in MHz : 43390.993442  4869.425541  4552.599544

                             ****ORCA TERMINATED NORMALLY****
TOTAL RUN TIME: 0 days 0 hours 3 minutes 23 seconds 5 msec
