                         Program Version 5.0.3 -  RELEASE  -
|  1> ! B3LYP cc-pVDZ
|  2> !TightSCF
|  3> %scf
|  4>  ConvForced true
|  5>  convergence tight
|  6>  MaxIter 500
|  7> end
|  8>
|  9> %tddft
| 10>  nroots 1
| 11> end
| 12>
| 13> # 	16163
| 14> * xyz 0 1
| 15> 		C   -1.217352  -0.271256   0.027147
| 16> 		O   -1.255711  -1.424815  -0.310212
| 17> 		C   -0.020320   0.590187  -0.050191
| 18> 		C    1.194500   0.030026   0.111190
| 19> 		H   -2.077796   0.147505   0.376131
| 20> 		H   -0.113248   1.641118  -0.304184
| 21> 		H    1.179614  -1.182215   0.308900
| 22> 		H    2.254433   0.441717  -0.189313
| 23> *
| 24>
| 25>                          ****END OF INPUT****

CARTESIAN COORDINATES (ANGSTROEM)
---------------------------------
  C     -1.217352   -0.271256    0.027147
  O     -1.255711   -1.424815   -0.310212
  C     -0.020320    0.590187   -0.050191
  C      1.194500    0.030026    0.111190
  H     -2.077796    0.147505    0.376131
  H     -0.113248    1.641118   -0.304184
  H      1.179614   -1.182215    0.308900
  H      2.254433    0.441717   -0.189313

 Total Charge           Charge          ....    0
 Multiplicity           Mult            ....    1
 Number of Electrons    NEL             ....   30
 Basis Dimension        Dim             ....   76

ORBITAL ENERGIES
----------------

  NO   OCC          E(Eh)            E(eV)
   0   2.0000     -19.137601      -520.7606
   1   2.0000     -10.267309      -279.3877
   2   2.0000     -10.227635      -278.3081
   3   2.0000     -10.205596      -277.7084
   4   2.0000      -1.051748       -28.6195
   5   2.0000      -0.789268       -21.4771
   6   2.0000      -0.652347       -17.7513
   7   2.0000      -0.547409       -14.8957
   8   2.0000      -0.507028       -13.7969
   9   2.0000      -0.441945       -12.0259
  10   2.0000      -0.436370       -11.8742
  11   2.0000      -0.389102       -10.5880
  12   2.0000      -0.360948        -9.8219
  13   2.0000      -0.285845        -7.7782
  14   2.0000      -0.256503        -6.9798
  15   0.0000      -0.063513        -1.7283
  16   0.0000       0.039424         1.0728
  17   0.0000       0.069017         1.8780
  18   0.0000       0.079561         2.1650
  19   0.0000       0.123288         3.3548

MULLIKEN ATOMIC CHARGES
-----------------------
   0 C :    0.230533
   1 O :   -0.187758
   2 C :   -0.085746
   3 C :   -0.040354
   4 H :   -0.041416
   5 H :    0.001132
   6 H :    0.062959
   7 H :    0.060650
Sum of atomic charges:   -0.0000000

LOEWDIN ATOMIC CHARGES
----------------------
   0 C :   -0.024904
   1 O :    0.011301
   2 C :   -0.081869
   3 C :   -0.012879
   4 H :   -0.019488
   5 H :    0.029282
   6 H :    0.052326
   7 H :    0.046231

  Mayer bond orders larger than 0.100000
B(  0-C ,  1-O ) :   2.1985 B(  0-C ,  2-C ) :   1.0330 B(  0-C ,  4-H ) :   0.9367
B(  2-C ,  3-C ) :   1.9535 B(  2-C ,  5-H ) :   0.9464 B(  3-C ,  6-H ) :   0.9260
B(  3-C ,  7-H ) :   0.9460

-----------------------------------------------------------------------------
         ABSORPTION SPECTRUM VIA TRANSITION ELECTRIC DIPOLE MOMENTS
-----------------------------------------------------------------------------
State   Energy    Wavelength  fosc         T2        TX        TY        TZ
        (cm-1)      (nm)                 (au**2)    (au)      (au)      (au)
-----------------------------------------------------------------------------
   1   29207.3    342.4   0.000148712   0.00168   0.03541   0.01179  -0.01684

FINAL SINGLE POINT ENERGY      -191.649334124054

DIPOLE MOMENT
-------------
                                X             Y             Z
Electronic contribution:     -2.13416      -1.28878      -0.27058
Nuclear contribution   :      2.44829       2.14146       0.42450
                        -----------------------------------------
Total Dipole Moment    :      0.31412       0.85269       0.15392
                        -----------------------------------------
Magnitude (a.u.)       :      0.92165
Magnitude (Debye)      :      2.34264

Rotational constants in cm-1:     0.760228     0.206534     0.166128
Rotational constants in MHz : 22791.050061  6191.740928  4980.378885

                             ****ORCA TERMINATED NORMALLY****
TOTAL RUN TIME: 0 days 0 hours 3 minutes 22 seconds 215 msec
