                         Program Version 5.0.3 -  RELEASE  -
|  1> ! B3LYP cc-pVDZ
|  2> !TightSCF
|  3> %scf
|  4>  ConvForced true
|  5>  convergence tight
|  6>  MaxIter 500
|  7> end
|  8>
|  9> %tddft
| 10>  nroots 1
| 11> end
| 12>
| 13> # 	3376
| 14> * xyz 0 1
| 15> 		C   -1.258138  -0.343538  -0.022454
| 16> 		O   -2.076388  -0.636074  -0.757872
| 17> 		C   -0.073607   0.480412  -0.250838
| 18> 		C    1.176196   0.023789   0.187803
| 19> 		H   -1.101162  -0.607661   0.770351
| 20> 		H   -0.235825   1.288640  -0.926152
| 21> 		H    1.322032  -0.857766   0.805425
| 22> 		H    2.232369   0.584247   0.143366
| 23> *
| 24>
| 25>                          ****END OF INPUT****

CARTESIAN COORDINATES (ANGSTROEM)
---------------------------------
  C     -1.258138   -0.343538   -0.022454
  O     -2.076388   -0.636074   -0.757872
  C     -0.073607    0.480412   -0.250838
  C      1.176196    0.023789    0.187803
  H     -1.101162   -0.607661    0.770351
  H     -0.235825    1.288640   -0.926152
  H      1.322032   -0.857766    0.805425
  H      2.232369    0.584247    0.143366

 Total Charge           Charge          ....    0
 Multiplicity           Mult            ....    1
 Number of Electrons    NEL             ....   30
 Basis Dimension        Dim             ....   76

ORBITAL ENERGIES
----------------

  NO   OCC          E(Eh)            E(eV)
   0   2.0000     -19.137871      -520.7679
   1   2.0000     -10.245997      -278.8078
   2   2.0000     -10.231012      -278.4000
   3   2.0000     -10.203659      -277.6557
   4   2.0000      -1.087129       -29.5823
   5   2.0000      -0.799243       -21.7485
   6   2.0000      -0.671195       -18.2641
   7   2.0000      -0.598501       -16.2860
   8   2.0000      -0.483160       -13.1475
   9   2.0000      -0.464586       -12.6420
  10   2.0000      -0.446281       -12.1439
  11   2.0000      -0.406223       -11.0539
  12   2.0000      -0.384112       -10.4522
  13   2.0000      -0.281985        -7.6732
  14   2.0000      -0.250450        -6.8151
  15   0.0000      -0.060636        -1.6500
  16   0.0000       0.034322         0.9339
  17   0.0000       0.074045         2.0149
  18   0.0000       0.093189         2.5358
  19   0.0000       0.127605         3.4723

MULLIKEN ATOMIC CHARGES
-----------------------
   0 C :    0.344526
   1 O :   -0.145372
   2 C :   -0.095943
   3 C :   -0.047502
   4 H :   -0.146581
   5 H :   -0.003545
   6 H :    0.032377
   7 H :    0.062040
Sum of atomic charges:   -0.0000000

LOEWDIN ATOMIC CHARGES
----------------------
   0 C :   -0.058341
   1 O :    0.091684
   2 C :   -0.033546
   3 C :   -0.016883
   4 H :   -0.076844
   5 H :    0.021019
   6 H :    0.022648
   7 H :    0.050262

  Mayer bond orders larger than 0.100000
B(  0-C ,  1-O ) :   2.2867 B(  0-C ,  2-C ) :   1.0338 B(  0-C ,  4-H ) :   0.9176
B(  2-C ,  3-C ) :   1.9322 B(  2-C ,  5-H ) :   0.9464 B(  3-C ,  6-H ) :   0.9512
B(  3-C ,  7-H ) :   0.9553

-----------------------------------------------------------------------------
         ABSORPTION SPECTRUM VIA TRANSITION ELECTRIC DIPOLE MOMENTS
-----------------------------------------------------------------------------
State   Energy    Wavelength  fosc         T2        TX        TY        TZ
        (cm-1)      (nm)                 (au**2)    (au)      (au)      (au)
-----------------------------------------------------------------------------
   1   29537.0    338.6   0.000065564   0.00073   0.01399   0.02066   0.01040

FINAL SINGLE POINT ENERGY      -191.564201024293

DIPOLE MOMENT
-------------
                                X             Y             Z
Electronic contribution:     -3.46760      -0.67065      -1.02743
Nuclear contribution   :      4.25735       0.89945       1.56285
                        -----------------------------------------
Total Dipole Moment    :      0.78976       0.22880       0.53542
                        -----------------------------------------
Magnitude (a.u.)       :      0.98119
Magnitude (Debye)      :      2.49399

Rotational constants in cm-1:     1.433672     0.157762     0.148727
Rotational constants in MHz : 42980.396219  4729.582501  4458.724871

                             ****ORCA TERMINATED NORMALLY****
TOTAL RUN TIME: 0 days 0 hours 3 minutes 13 seconds 163 msec
