                         Program Version 5.0.3 -  RELEASE  -
|  1> ! HF-3c
|  2> !TightSCF
|  3> %scf
|  4>  ConvForced true
|  5>  convergence tight
|  6>  MaxIter 500
|  7> end
|  8>
|  9> %tddft
| 10>  nroots 1
| 11> end
| 12>
| 13> # 	1045
| 14> * xyz 0 1
| 15> 		C   -1.217630  -0.331467  -0.051820
| 16> 		O   -1.393803  -1.440035   0.478272
| 17> 		C    0.062927   0.453614   0.171210
| 18> 		C    1.243019   0.020013  -0.107676
| 19> 		H   -1.963201   0.184265  -0.793717
| 20> 		H   -0.142175   1.488086   0.748207
| 21> 		H    1.379243  -0.960519  -0.542794
| 22> 		H    2.054751   0.611150   0.068661
| 23> *
| 24>
| 25>                          ****END OF INPUT****

CARTESIAN COORDINATES (ANGSTROEM)
---------------------------------
  C     -1.217630   -0.331467   -0.051820
  O     -1.393803   -1.440035    0.478272
  C      0.062927    0.453614    0.171210
  C      1.243019    0.020013   -0.107676
  H     -1.963201    0.184265   -0.793717
  H     -0.142175    1.488086    0.748207
  H      1.379243   -0.960519   -0.542794
  H      2.054751    0.611150    0.068661

 Total Charge           Charge          ....    0
 Multiplicity           Mult            ....    1
 Number of Electrons    NEL             ....   30
 Basis Dimension        Dim             ....   24

ORBITAL ENERGIES
----------------

  NO   OCC          E(Eh)            E(eV)
   0   2.0000     -20.367040      -554.2153
   1   2.0000     -11.291473      -307.2566
   2   2.0000     -11.192540      -304.5645
   3   2.0000     -11.182417      -304.2890
   4   2.0000      -1.382119       -37.6094
   5   2.0000      -1.084324       -29.5060
   6   2.0000      -0.883965       -24.0539
   7   2.0000      -0.739097       -20.1119
   8   2.0000      -0.681550       -18.5459
   9   2.0000      -0.626899       -17.0588
  10   2.0000      -0.602921       -16.4063
  11   2.0000      -0.538057       -14.6413
  12   2.0000      -0.490497       -13.3471
  13   2.0000      -0.413794       -11.2599
  14   2.0000      -0.405900       -11.0451
  15   0.0000       0.167158         4.5486
  16   0.0000       0.250796         6.8245
  17   0.0000       0.518318        14.1042
  18   0.0000       0.541623        14.7383
  19   0.0000       0.628457        17.1012

MULLIKEN ATOMIC CHARGES
-----------------------
   0 C :    0.168331
   1 O :   -0.341920
   2 C :   -0.142583
   3 C :   -0.269808
   4 H :    0.142073
   5 H :    0.147798
   6 H :    0.151670
   7 H :    0.144440
Sum of atomic charges:   -0.0000000

LOEWDIN ATOMIC CHARGES
----------------------
   0 C :    0.150951
   1 O :   -0.254909
   2 C :   -0.103746
   3 C :   -0.171011
   4 H :    0.084905
   5 H :    0.104415
   6 H :    0.099863
   7 H :    0.089532

  Mayer bond orders larger than 0.100000
B(  0-C ,  1-O ) :   1.9442 B(  0-C ,  2-C ) :   0.9885 B(  0-C ,  4-H ) :   0.9150
B(  2-C ,  3-C ) :   2.0012 B(  2-C ,  5-H ) :   0.9435 B(  3-C ,  6-H ) :   0.9588
B(  3-C ,  7-H ) :   0.9627

-----------------------------------------------------------------------------
         ABSORPTION SPECTRUM VIA TRANSITION ELECTRIC DIPOLE MOMENTS
-----------------------------------------------------------------------------
State   Energy    Wavelength  fosc         T2        TX        TY        TZ
        (cm-1)      (nm)                 (au**2)    (au)      (au)      (au)
-----------------------------------------------------------------------------
   1   32785.4    305.0   0.000041465   0.00042   0.01237  -0.01477  -0.00673

Dispersion correction           -0.025035926
FINAL SINGLE POINT ENERGY      -189.322760957939

DIPOLE MOMENT
-------------
                                X             Y             Z
Electronic contribution:     -2.35780      -1.64594       0.57286
Nuclear contribution   :      2.56311       2.56376      -0.96890
                        -----------------------------------------
Total Dipole Moment    :      0.20530       0.91782      -0.39604
                        -----------------------------------------
Magnitude (a.u.)       :      1.02049
Magnitude (Debye)      :      2.59387

Rotational constants in cm-1:     0.825763     0.183736     0.160297
Rotational constants in MHz : 24755.763942  5508.269586  4805.576941

                             ****ORCA TERMINATED NORMALLY****
TOTAL RUN TIME: 0 days 0 hours 0 minutes 11 seconds 48 msec
