                         Program Version 5.0.3 -  RELEASE  -
|  1> ! HF-3c
|  2> !TightSCF
|  3> %scf
|  4>  ConvForced true
|  5>  convergence tight
|  6>  MaxIter 500
|  7> end
|  8>
|  9> %tddft
| 10>  nroots 1
| 11> end
| 12>
| 13> # 	7728
| 14> * xyz 0 1
| 15> 		C   -1.155328  -0.284359  -0.015407
| 16> 		O   -1.534161  -1.161505  -0.822583
| 17> 		C    0.071537   0.499714  -0.187761
| 18> 		C    1.237948   0.030153   0.185312
| 19> 		H   -1.832320  -0.228509   0.950246
| 20> 		H   -0.131301   1.442621  -0.768777
| 21> 		H    1.335435  -0.900149   0.673181
| 22> 		H    1.989576   0.662499   0.020402
| 23> *
| 24>
| 25>                          ****END OF INPUT****

CARTESIAN COORDINATES (ANGSTROEM)
---------------------------------
  C     -1.155328   -0.284359   -0.015407
  O     -1.534161   -1.161505   -0.822583
  C      0.071537    0.499714   -0.187761
  C      1.237948    0.030153    0.185312
  H     -1.832320   -0.228509    0.950246
  H     -0.131301    1.442621   -0.768777
  H      1.335435   -0.900149    0.673181
  H      1.989576    0.662499    0.020402

 Total Charge           Charge          ....    0
 Multiplicity           Mult            ....    1
 Number of Electrons    NEL             ....   30
 Basis Dimension        Dim             ....   24

ORBITAL ENERGIES
----------------

  NO   OCC          E(Eh)            E(eV)
   0   2.0000     -20.353143      -553.8372
   1   2.0000     -11.282256      -307.0058
   2   2.0000     -11.204196      -304.8817
   3   2.0000     -11.191535      -304.5371
   4   2.0000      -1.372317       -37.3427
   5   2.0000      -1.097871       -29.8746
   6   2.0000      -0.893702       -24.3189
   7   2.0000      -0.752663       -20.4810
   8   2.0000      -0.690827       -18.7984
   9   2.0000      -0.639209       -17.3938
  10   2.0000      -0.599423       -16.3111
  11   2.0000      -0.556892       -15.1538
  12   2.0000      -0.478301       -13.0152
  13   2.0000      -0.415426       -11.3043
  14   2.0000      -0.407142       -11.0789
  15   0.0000       0.186572         5.0769
  16   0.0000       0.204655         5.5690
  17   0.0000       0.539373        14.6771
  18   0.0000       0.585977        15.9452
  19   0.0000       0.698941        19.0191

MULLIKEN ATOMIC CHARGES
-----------------------
   0 C :    0.155235
   1 O :   -0.342846
   2 C :   -0.148480
   3 C :   -0.269009
   4 H :    0.142635
   5 H :    0.159034
   6 H :    0.154413
   7 H :    0.149017
Sum of atomic charges:   -0.0000000

LOEWDIN ATOMIC CHARGES
----------------------
   0 C :    0.140410
   1 O :   -0.260840
   2 C :   -0.099591
   3 C :   -0.165795
   4 H :    0.086375
   5 H :    0.107827
   6 H :    0.100313
   7 H :    0.091300

  Mayer bond orders larger than 0.100000
B(  0-C ,  1-O ) :   1.9374 B(  0-C ,  2-C ) :   1.0036 B(  0-C ,  4-H ) :   0.9180
B(  2-C ,  3-C ) :   1.9924 B(  2-C ,  5-H ) :   0.9447 B(  3-C ,  6-H ) :   0.9627
B(  3-C ,  7-H ) :   0.9638

-----------------------------------------------------------------------------
         ABSORPTION SPECTRUM VIA TRANSITION ELECTRIC DIPOLE MOMENTS
-----------------------------------------------------------------------------
State   Energy    Wavelength  fosc         T2        TX        TY        TZ
        (cm-1)      (nm)                 (au**2)    (au)      (au)      (au)
-----------------------------------------------------------------------------
   1   32065.4    311.9   0.000015635   0.00016   0.00041  -0.00339   0.01220

Dispersion correction           -0.025318506
FINAL SINGLE POINT ENERGY      -189.317807513032

DIPOLE MOMENT
-------------
                                X             Y             Z
Electronic contribution:     -2.31599      -1.17059      -1.04247
Nuclear contribution   :      2.68732       1.88338       1.64831
                        -----------------------------------------
Total Dipole Moment    :      0.37133       0.71279       0.60584
                        -----------------------------------------
Magnitude (a.u.)       :      1.00648
Magnitude (Debye)      :      2.55827

Rotational constants in cm-1:     0.926751     0.173962     0.163092
Rotational constants in MHz : 27783.302653  5215.253341  4889.388898

                             ****ORCA TERMINATED NORMALLY****
TOTAL RUN TIME: 0 days 0 hours 0 minutes 13 seconds 271 msec
