                         Program Version 5.0.3 -  RELEASE  -
|  1> ! HF-3c
|  2> !TightSCF
|  3> %scf
|  4>  ConvForced true
|  5>  convergence tight
|  6>  MaxIter 500
|  7> end
|  8>
|  9> %tddft
| 10>  nroots 1
| 11> end
| 12>
| 13> # 	14964
| 14> * xyz 0 1
| 15> 		C   -1.209288  -0.315177  -0.046013
| 16> 		O   -1.202426  -1.460256  -0.379491
| 17> 		C    0.000917   0.540587  -0.102359
| 18> 		C    1.206162  -0.043076   0.132138
| 19> 		H   -2.097800   0.291208   0.488270
| 20> 		H   -0.065053   1.561682  -0.337311
| 21> 		H    1.297211  -1.172341   0.169735
| 22> 		H    2.075929   0.550206   0.086521
| 23> *
| 24>
| 25>                          ****END OF INPUT****

CARTESIAN COORDINATES (ANGSTROEM)
---------------------------------
  C     -1.209288   -0.315177   -0.046013
  O     -1.202426   -1.460256   -0.379491
  C      0.000917    0.540587   -0.102359
  C      1.206162   -0.043076    0.132138
  H     -2.097800    0.291208    0.488270
  H     -0.065053    1.561682   -0.337311
  H      1.297211   -1.172341    0.169735
  H      2.075929    0.550206    0.086521

 Total Charge           Charge          ....    0
 Multiplicity           Mult            ....    1
 Number of Electrons    NEL             ....   30
 Basis Dimension        Dim             ....   24

ORBITAL ENERGIES
----------------

  NO   OCC          E(Eh)            E(eV)
   0   2.0000     -20.373052      -554.3789
   1   2.0000     -11.300286      -307.4964
   2   2.0000     -11.183104      -304.3077
   3   2.0000     -11.179515      -304.2101
   4   2.0000      -1.415633       -38.5213
   5   2.0000      -1.070194       -29.1215
   6   2.0000      -0.880864       -23.9695
   7   2.0000      -0.738968       -20.1083
   8   2.0000      -0.699582       -19.0366
   9   2.0000      -0.610044       -16.6001
  10   2.0000      -0.604776       -16.4568
  11   2.0000      -0.546322       -14.8662
  12   2.0000      -0.526330       -14.3222
  13   2.0000      -0.403815       -10.9884
  14   2.0000      -0.388250       -10.5648
  15   0.0000       0.145917         3.9706
  16   0.0000       0.278505         7.5785
  17   0.0000       0.533066        14.5055
  18   0.0000       0.603310        16.4169
  19   0.0000       0.653690        17.7878

MULLIKEN ATOMIC CHARGES
-----------------------
   0 C :    0.189522
   1 O :   -0.360793
   2 C :   -0.183881
   3 C :   -0.219089
   4 H :    0.133122
   5 H :    0.142252
   6 H :    0.159232
   7 H :    0.139636
Sum of atomic charges:    0.0000000

LOEWDIN ATOMIC CHARGES
----------------------
   0 C :    0.158597
   1 O :   -0.259148
   2 C :   -0.139671
   3 C :   -0.122088
   4 H :    0.077184
   5 H :    0.088397
   6 H :    0.109218
   7 H :    0.087511

  Mayer bond orders larger than 0.100000
B(  0-C ,  1-O ) :   1.9273 B(  0-C ,  2-C ) :   1.0103 B(  0-C ,  4-H ) :   0.9048
B(  2-C ,  3-C ) :   1.9522 B(  2-C ,  5-H ) :   0.9615 B(  3-C ,  6-H ) :   0.9592
B(  3-C ,  7-H ) :   0.9677

-----------------------------------------------------------------------------
         ABSORPTION SPECTRUM VIA TRANSITION ELECTRIC DIPOLE MOMENTS
-----------------------------------------------------------------------------
State   Energy    Wavelength  fosc         T2        TX        TY        TZ
        (cm-1)      (nm)                 (au**2)    (au)      (au)      (au)
-----------------------------------------------------------------------------
   1   34918.0    286.4   0.000025009   0.00024   0.01396   0.00291  -0.00569

Dispersion correction           -0.025772036
FINAL SINGLE POINT ENERGY      -189.319929145824

DIPOLE MOMENT
-------------
                                X             Y             Z
Electronic contribution:     -2.07585      -1.61421      -0.48550
Nuclear contribution   :      2.33025       2.47250       0.76995
                        -----------------------------------------
Total Dipole Moment    :      0.25440       0.85829       0.28445
                        -----------------------------------------
Magnitude (a.u.)       :      0.93930
Magnitude (Debye)      :      2.38751

Rotational constants in cm-1:     0.740532     0.211328     0.168543
Rotational constants in MHz : 22200.581303  6335.440923  5052.787471

                             ****ORCA TERMINATED NORMALLY****
TOTAL RUN TIME: 0 days 0 hours 0 minutes 10 seconds 732 msec
