                         Program Version 5.0.3 -  RELEASE  -
|  1> ! HF-3c
|  2> !TightSCF
|  3> %scf
|  4>  ConvForced true
|  5>  convergence tight
|  6>  MaxIter 500
|  7> end
|  8>
|  9> %tddft
| 10>  nroots 1
| 11> end
| 12>
| 13> # 	6808
| 14> * xyz 0 1
| 15> 		C   -1.217160  -0.306097  -0.062638
| 16> 		O   -1.394910  -1.281470  -0.742752
| 17> 		C    0.026535   0.578862  -0.111935
| 18> 		C    1.195822   0.010607   0.174983
| 19> 		H   -1.959295  -0.041282   0.711574
| 20> 		H   -0.084998   1.575669  -0.381138
| 21> 		H    1.329063  -1.093565   0.246788
| 22> 		H    2.089677   0.575344   0.113477
| 23> *
| 24>
| 25>                          ****END OF INPUT****

CARTESIAN COORDINATES (ANGSTROEM)
---------------------------------
  C     -1.217160   -0.306097   -0.062638
  O     -1.394910   -1.281470   -0.742752
  C      0.026535    0.578862   -0.111935
  C      1.195822    0.010607    0.174983
  H     -1.959295   -0.041282    0.711574
  H     -0.084998    1.575669   -0.381138
  H      1.329063   -1.093565    0.246788
  H      2.089677    0.575344    0.113477

 Total Charge           Charge          ....    0
 Multiplicity           Mult            ....    1
 Number of Electrons    NEL             ....   30
 Basis Dimension        Dim             ....   24

ORBITAL ENERGIES
----------------

  NO   OCC          E(Eh)            E(eV)
   0   2.0000     -20.377942      -554.5120
   1   2.0000     -11.300853      -307.5118
   2   2.0000     -11.192297      -304.5579
   3   2.0000     -11.184105      -304.3350
   4   2.0000      -1.412280       -38.4301
   5   2.0000      -1.078306       -29.3422
   6   2.0000      -0.880749       -23.9664
   7   2.0000      -0.765275       -20.8242
   8   2.0000      -0.699682       -19.0393
   9   2.0000      -0.627749       -17.0819
  10   2.0000      -0.609105       -16.5746
  11   2.0000      -0.550767       -14.9871
  12   2.0000      -0.516391       -14.0517
  13   2.0000      -0.410712       -11.1760
  14   2.0000      -0.404381       -11.0038
  15   0.0000       0.170881         4.6499
  16   0.0000       0.237643         6.4666
  17   0.0000       0.533395        14.5144
  18   0.0000       0.635214        17.2850
  19   0.0000       0.692095        18.8329

MULLIKEN ATOMIC CHARGES
-----------------------
   0 C :    0.176707
   1 O :   -0.347064
   2 C :   -0.172993
   3 C :   -0.235459
   4 H :    0.137214
   5 H :    0.149588
   6 H :    0.151528
   7 H :    0.140478
Sum of atomic charges:   -0.0000000

LOEWDIN ATOMIC CHARGES
----------------------
   0 C :    0.155355
   1 O :   -0.247975
   2 C :   -0.123238
   3 C :   -0.140879
   4 H :    0.073233
   5 H :    0.093324
   6 H :    0.101710
   7 H :    0.088471

  Mayer bond orders larger than 0.100000
B(  0-C ,  1-O ) :   1.9495 B(  0-C ,  2-C ) :   0.9791 B(  0-C ,  4-H ) :   0.9199
B(  2-C ,  3-C ) :   1.9899 B(  2-C ,  5-H ) :   0.9568 B(  3-C ,  6-H ) :   0.9619
B(  3-C ,  7-H ) :   0.9648

-----------------------------------------------------------------------------
         ABSORPTION SPECTRUM VIA TRANSITION ELECTRIC DIPOLE MOMENTS
-----------------------------------------------------------------------------
State   Energy    Wavelength  fosc         T2        TX        TY        TZ
        (cm-1)      (nm)                 (au**2)    (au)      (au)      (au)
-----------------------------------------------------------------------------
   1   34988.5    285.8   0.000011727   0.00011   0.00877   0.00567   0.00114

Dispersion correction           -0.025300803
FINAL SINGLE POINT ENERGY      -189.327057630195

DIPOLE MOMENT
-------------
                                X             Y             Z
Electronic contribution:     -2.34100      -1.31358      -0.88176
Nuclear contribution   :      2.67126       2.01459       1.38845
                        -----------------------------------------
Total Dipole Moment    :      0.33026       0.70101       0.50670
                        -----------------------------------------
Magnitude (a.u.)       :      0.92586
Magnitude (Debye)      :      2.35336

Rotational constants in cm-1:     0.829523     0.187151     0.162241
Rotational constants in MHz : 24868.474443  5610.656290  4863.875227

                             ****ORCA TERMINATED NORMALLY****
TOTAL RUN TIME: 0 days 0 hours 0 minutes 9 seconds 732 msec
