                         Program Version 5.0.3 -  RELEASE  -
|  1> ! HF-3c
|  2> !TightSCF
|  3> %scf
|  4>  ConvForced true
|  5>  convergence tight
|  6>  MaxIter 500
|  7> end
|  8>
|  9> %tddft
| 10>  nroots 1
| 11> end
| 12>
| 13> # 	4459
| 14> * xyz 0 1
| 15> 		C   -1.201126  -0.272126   0.010723
| 16> 		O   -2.194246  -0.177559   0.747261
| 17> 		C    0.122362   0.475282   0.252044
| 18> 		C    1.186763   0.192903  -0.368882
| 19> 		H   -1.307843  -1.305970  -0.703852
| 20> 		H    0.134955   1.000188   1.219887
| 21> 		H    1.355372  -0.525511  -1.076271
| 22> 		H    1.910981   0.520807  -0.026368
| 23> *
| 24>
| 25>                          ****END OF INPUT****

CARTESIAN COORDINATES (ANGSTROEM)
---------------------------------
  C     -1.201126   -0.272126    0.010723
  O     -2.194246   -0.177559    0.747261
  C      0.122362    0.475282    0.252044
  C      1.186763    0.192903   -0.368882
  H     -1.307843   -1.305970   -0.703852
  H      0.134955    1.000188    1.219887
  H      1.355372   -0.525511   -1.076271
  H      1.910981    0.520807   -0.026368

 Total Charge           Charge          ....    0
 Multiplicity           Mult            ....    1
 Number of Electrons    NEL             ....   30
 Basis Dimension        Dim             ....   24

ORBITAL ENERGIES
----------------

  NO   OCC          E(Eh)            E(eV)
   0   2.0000     -20.357295      -553.9502
   1   2.0000     -11.283609      -307.0426
   2   2.0000     -11.221748      -305.3593
   3   2.0000     -11.210882      -305.0636
   4   2.0000      -1.379917       -37.5494
   5   2.0000      -1.128149       -30.6985
   6   2.0000      -0.894717       -24.3465
   7   2.0000      -0.769536       -20.9401
   8   2.0000      -0.692727       -18.8501
   9   2.0000      -0.673000       -18.3133
  10   2.0000      -0.575094       -15.6491
  11   2.0000      -0.558293       -15.1919
  12   2.0000      -0.525748       -14.3063
  13   2.0000      -0.428399       -11.6573
  14   2.0000      -0.400324       -10.8934
  15   0.0000       0.134262         3.6534
  16   0.0000       0.280321         7.6279
  17   0.0000       0.459764        12.5108
  18   0.0000       0.556544        15.1443
  19   0.0000       0.662065        18.0157

MULLIKEN ATOMIC CHARGES
-----------------------
   0 C :    0.169840
   1 O :   -0.350012
   2 C :   -0.131246
   3 C :   -0.311258
   4 H :    0.141906
   5 H :    0.169270
   6 H :    0.162231
   7 H :    0.149271
Sum of atomic charges:    0.0000000

LOEWDIN ATOMIC CHARGES
----------------------
   0 C :    0.138829
   1 O :   -0.261590
   2 C :   -0.077683
   3 C :   -0.189765
   4 H :    0.092055
   5 H :    0.111988
   6 H :    0.104151
   7 H :    0.082016

  Mayer bond orders larger than 0.100000
B(  0-C ,  1-O ) :   1.9228 B(  0-C ,  2-C ) :   0.9934 B(  0-C ,  4-H ) :   0.9149
B(  2-C ,  3-C ) :   1.9796 B(  2-C ,  5-H ) :   0.9475 B(  3-C ,  6-H ) :   0.9575
B(  3-C ,  7-H ) :   0.9627

-----------------------------------------------------------------------------
         ABSORPTION SPECTRUM VIA TRANSITION ELECTRIC DIPOLE MOMENTS
-----------------------------------------------------------------------------
State   Energy    Wavelength  fosc         T2        TX        TY        TZ
        (cm-1)      (nm)                 (au**2)    (au)      (au)      (au)
-----------------------------------------------------------------------------
   1   30233.8    330.8   0.000163580   0.00178  -0.00708  -0.04025  -0.01055

Dispersion correction           -0.025242226
FINAL SINGLE POINT ENERGY      -189.258009533398

DIPOLE MOMENT
-------------
                                X             Y             Z
Electronic contribution:     -3.20170       0.21485       0.80178
Nuclear contribution   :      4.06171      -0.40166      -1.21731
                        -----------------------------------------
Total Dipole Moment    :      0.86001      -0.18681      -0.41553
                        -----------------------------------------
Magnitude (a.u.)       :      0.97323
Magnitude (Debye)      :      2.47376

Rotational constants in cm-1:     1.543740     0.152320     0.139356
Rotational constants in MHz : 46280.148495  4566.440930  4177.786137

                             ****ORCA TERMINATED NORMALLY****
TOTAL RUN TIME: 0 days 0 hours 0 minutes 12 seconds 803 msec
