                         Program Version 5.0.3 -  RELEASE  -
|  1> ! HF-3c
|  2> !TightSCF
|  3> %scf
|  4>  ConvForced true
|  5>  convergence tight
|  6>  MaxIter 500
|  7> end
|  8>
|  9> %tddft
| 10>  nroots 1
| 11> end
| 12>
| 13> # 	1531
| 14> * xyz 0 1
| 15> 		C   -1.219020  -0.264099  -0.045547
| 16> 		O   -1.649984  -1.143191   0.711969
| 17> 		C    0.006932   0.506371   0.200172
| 18> 		C    1.161561   0.058074  -0.235741
| 19> 		H   -1.585361  -0.064406  -0.986196
| 20> 		H   -0.130595   1.236140   0.884646
| 21> 		H    1.211069  -0.798671  -0.699324
| 22> 		H    2.268786   0.450140   0.087983
| 23> *
| 24>
| 25>                          ****END OF INPUT****

CARTESIAN COORDINATES (ANGSTROEM)
---------------------------------
  C     -1.219020   -0.264099   -0.045547
  O     -1.649984   -1.143191    0.711969
  C      0.006932    0.506371    0.200172
  C      1.161561    0.058074   -0.235741
  H     -1.585361   -0.064406   -0.986196
  H     -0.130595    1.236140    0.884646
  H      1.211069   -0.798671   -0.699324
  H      2.268786    0.450140    0.087983

 Total Charge           Charge          ....    0
 Multiplicity           Mult            ....    1
 Number of Electrons    NEL             ....   30
 Basis Dimension        Dim             ....   24

ORBITAL ENERGIES
----------------

  NO   OCC          E(Eh)            E(eV)
   0   2.0000     -20.378976      -554.5401
   1   2.0000     -11.300419      -307.5000
   2   2.0000     -11.197273      -304.6933
   3   2.0000     -11.190600      -304.5117
   4   2.0000      -1.392619       -37.8951
   5   2.0000      -1.099856       -29.9286
   6   2.0000      -0.905034       -24.6272
   7   2.0000      -0.799071       -21.7438
   8   2.0000      -0.687138       -18.6980
   9   2.0000      -0.646603       -17.5950
  10   2.0000      -0.614725       -16.7275
  11   2.0000      -0.544851       -14.8261
  12   2.0000      -0.500132       -13.6093
  13   2.0000      -0.421059       -11.4576
  14   2.0000      -0.412109       -11.2141
  15   0.0000       0.172682         4.6989
  16   0.0000       0.210068         5.7162
  17   0.0000       0.508229        13.8296
  18   0.0000       0.654489        17.8096
  19   0.0000       0.729286        19.8449

MULLIKEN ATOMIC CHARGES
-----------------------
   0 C :    0.158356
   1 O :   -0.327811
   2 C :   -0.183735
   3 C :   -0.234942
   4 H :    0.143280
   5 H :    0.154807
   6 H :    0.135124
   7 H :    0.154921
Sum of atomic charges:   -0.0000000

LOEWDIN ATOMIC CHARGES
----------------------
   0 C :    0.154933
   1 O :   -0.241416
   2 C :   -0.127703
   3 C :   -0.143864
   4 H :    0.072669
   5 H :    0.095374
   6 H :    0.077405
   7 H :    0.112603

  Mayer bond orders larger than 0.100000
B(  0-C ,  1-O ) :   1.9496 B(  0-C ,  2-C ) :   0.9896 B(  0-C ,  4-H ) :   0.9291
B(  2-C ,  3-C ) :   1.9976 B(  2-C ,  5-H ) :   0.9507 B(  3-C ,  6-H ) :   0.9689
B(  3-C ,  7-H ) :   0.9562

-----------------------------------------------------------------------------
         ABSORPTION SPECTRUM VIA TRANSITION ELECTRIC DIPOLE MOMENTS
-----------------------------------------------------------------------------
State   Energy    Wavelength  fosc         T2        TX        TY        TZ
        (cm-1)      (nm)                 (au**2)    (au)      (au)      (au)
-----------------------------------------------------------------------------
   1   32711.2    305.7   0.000038727   0.00039   0.01625   0.00196   0.01104

Dispersion correction           -0.025814115
FINAL SINGLE POINT ENERGY      -189.293382041585

DIPOLE MOMENT
-------------
                                X             Y             Z
Electronic contribution:     -2.76229      -1.07171       0.81998
Nuclear contribution   :      3.32570       1.68630      -1.30999
                        -----------------------------------------
Total Dipole Moment    :      0.56340       0.61460      -0.49000
                        -----------------------------------------
Magnitude (a.u.)       :      0.96709
Magnitude (Debye)      :      2.45814

Rotational constants in cm-1:     0.989022     0.171880     0.163262
Rotational constants in MHz : 29650.132064  5152.818547  4894.469260

                             ****ORCA TERMINATED NORMALLY****
TOTAL RUN TIME: 0 days 0 hours 0 minutes 12 seconds 249 msec
