                         Program Version 5.0.3 -  RELEASE  -
|  1> ! B3LYP cc-pVDZ
|  2> !TightSCF
|  3> %scf
|  4>  ConvForced true
|  5>  convergence tight
|  6>  MaxIter 500
|  7> end
|  8>
|  9> %tddft
| 10>  nroots 1
| 11> end
| 12>
| 13> # 	1760
| 14> * xyz 0 1
| 15> 		C   -1.239623  -0.319878   0.004371
| 16> 		O   -1.222278  -1.536422  -0.080914
| 17> 		C   -0.082104   0.582576  -0.113452
| 18> 		C    1.282382  -0.024581  -0.056805
| 19> 		H   -2.116198   0.284003   0.106226
| 20> 		H   -0.139291   1.684608   0.052492
| 21> 		H    1.273416  -1.132693   0.075089
| 22> 		H    2.193269   0.537841   0.056945
| 23> *
| 24>
| 25>                          ****END OF INPUT****

CARTESIAN COORDINATES (ANGSTROEM)
---------------------------------
  C     -1.239623   -0.319878    0.004371
  O     -1.222278   -1.536422   -0.080914
  C     -0.082104    0.582576   -0.113452
  C      1.282382   -0.024581   -0.056805
  H     -2.116198    0.284003    0.106226
  H     -0.139291    1.684608    0.052492
  H      1.273416   -1.132693    0.075089
  H      2.193269    0.537841    0.056945

 Total Charge           Charge          ....    0
 Multiplicity           Mult            ....    1
 Number of Electrons    NEL             ....   30
 Basis Dimension        Dim             ....   76

ORBITAL ENERGIES
----------------

  NO   OCC          E(Eh)            E(eV)
   0   2.0000     -19.137154      -520.7484
   1   2.0000     -10.272373      -279.5255
   2   2.0000     -10.235388      -278.5191
   3   2.0000     -10.221549      -278.1425
   4   2.0000      -1.038788       -28.2669
   5   2.0000      -0.769895       -20.9499
   6   2.0000      -0.663434       -18.0530
   7   2.0000      -0.546113       -14.8605
   8   2.0000      -0.500213       -13.6115
   9   2.0000      -0.440080       -11.9752
  10   2.0000      -0.416893       -11.3442
  11   2.0000      -0.393332       -10.7031
  12   2.0000      -0.383100       -10.4247
  13   2.0000      -0.268987        -7.3195
  14   2.0000      -0.256706        -6.9853
  15   0.0000      -0.088249        -2.4014
  16   0.0000       0.043487         1.1833
  17   0.0000       0.071223         1.9381
  18   0.0000       0.089499         2.4354
  19   0.0000       0.124324         3.3830

MULLIKEN ATOMIC CHARGES
-----------------------
   0 C :    0.228863
   1 O :   -0.207293
   2 C :   -0.151365
   3 C :    0.026374
   4 H :   -0.024368
   5 H :    0.017635
   6 H :    0.064619
   7 H :    0.045535
Sum of atomic charges:   -0.0000000

LOEWDIN ATOMIC CHARGES
----------------------
   0 C :   -0.042735
   1 O :   -0.015620
   2 C :   -0.076540
   3 C :    0.050872
   4 H :   -0.009516
   5 H :    0.032025
   6 H :    0.038233
   7 H :    0.023281

  Mayer bond orders larger than 0.100000
B(  0-C ,  1-O ) :   2.1527 B(  0-C ,  2-C ) :   1.0807 B(  0-C ,  4-H ) :   0.9231
B(  1-O ,  3-C ) :   0.1063 B(  2-C ,  3-C ) :   1.8692 B(  2-C ,  5-H ) :   0.9481
B(  3-C ,  6-H ) :   0.9455 B(  3-C ,  7-H ) :   0.9558

-----------------------------------------------------------------------------
         ABSORPTION SPECTRUM VIA TRANSITION ELECTRIC DIPOLE MOMENTS
-----------------------------------------------------------------------------
State   Energy    Wavelength  fosc         T2        TX        TY        TZ
        (cm-1)      (nm)                 (au**2)    (au)      (au)      (au)
-----------------------------------------------------------------------------
   1   25138.5    397.8   0.000238935   0.00313  -0.05166  -0.02110  -0.00390

FINAL SINGLE POINT ENERGY      -191.668408483983

DIPOLE MOMENT
-------------
                                X             Y             Z
Electronic contribution:     -1.90090      -1.70918      -0.31303
Nuclear contribution   :      2.38206       2.63271       0.47277
                        -----------------------------------------
Total Dipole Moment    :      0.48116       0.92353       0.15974
                        -----------------------------------------
Magnitude (a.u.)       :      1.05353
Magnitude (Debye)      :      2.67787

Rotational constants in cm-1:     0.686043     0.203405     0.157352
Rotational constants in MHz : 20567.042528  6097.925581  4717.283504

                             ****ORCA TERMINATED NORMALLY****
TOTAL RUN TIME: 0 days 0 hours 3 minutes 24 seconds 530 msec
