                         Program Version 5.0.3 -  RELEASE  -
|  1> ! HF-3c
|  2> !TightSCF
|  3> %scf
|  4>  ConvForced true
|  5>  convergence tight
|  6>  MaxIter 500
|  7> end
|  8>
|  9> %tddft
| 10>  nroots 1
| 11> end
| 12>
| 13> # 	19184
| 14> * xyz 0 1
| 15> 		C   -1.165503  -0.376521   0.012142
| 16> 		O   -1.370041  -1.546366   0.429402
| 17> 		C    0.001408   0.492062   0.165502
| 18> 		C    1.229984   0.008734  -0.041698
| 19> 		H   -2.017430   0.119850  -0.368953
| 20> 		H   -0.203602   1.572032   0.325670
| 21> 		H    1.527000  -0.975971  -0.519116
| 22> 		H    2.009229   0.761943  -0.033301
| 23> *
| 24>
| 25>                          ****END OF INPUT****

CARTESIAN COORDINATES (ANGSTROEM)
---------------------------------
  C     -1.165503   -0.376521    0.012142
  O     -1.370041   -1.546366    0.429402
  C      0.001408    0.492062    0.165502
  C      1.229984    0.008734   -0.041698
  H     -2.017430    0.119850   -0.368953
  H     -0.203602    1.572032    0.325670
  H      1.527000   -0.975971   -0.519116
  H      2.009229    0.761943   -0.033301

 Total Charge           Charge          ....    0
 Multiplicity           Mult            ....    1
 Number of Electrons    NEL             ....   30
 Basis Dimension        Dim             ....   24

ORBITAL ENERGIES
----------------

  NO   OCC          E(Eh)            E(eV)
   0   2.0000     -20.352147      -553.8101
   1   2.0000     -11.282157      -307.0031
   2   2.0000     -11.195999      -304.6586
   3   2.0000     -11.193024      -304.5777
   4   2.0000      -1.363720       -37.1087
   5   2.0000      -1.083722       -29.4896
   6   2.0000      -0.900045       -24.4915
   7   2.0000      -0.749650       -20.3990
   8   2.0000      -0.694390       -18.8953
   9   2.0000      -0.611877       -16.6500
  10   2.0000      -0.590386       -16.0652
  11   2.0000      -0.534728       -14.5507
  12   2.0000      -0.505852       -13.7649
  13   2.0000      -0.412873       -11.2348
  14   2.0000      -0.392404       -10.6779
  15   0.0000       0.131419         3.5761
  16   0.0000       0.270833         7.3697
  17   0.0000       0.540803        14.7160
  18   0.0000       0.603400        16.4193
  19   0.0000       0.648692        17.6518

MULLIKEN ATOMIC CHARGES
-----------------------
   0 C :    0.141027
   1 O :   -0.338578
   2 C :   -0.175437
   3 C :   -0.212115
   4 H :    0.132635
   5 H :    0.153604
   6 H :    0.159795
   7 H :    0.139068
Sum of atomic charges:    0.0000000

LOEWDIN ATOMIC CHARGES
----------------------
   0 C :    0.139471
   1 O :   -0.259644
   2 C :   -0.130816
   3 C :   -0.117673
   4 H :    0.067461
   5 H :    0.102474
   6 H :    0.109714
   7 H :    0.089014

  Mayer bond orders larger than 0.100000
B(  0-C ,  1-O ) :   1.9038 B(  0-C ,  2-C ) :   1.0371 B(  0-C ,  4-H ) :   0.9352
B(  2-C ,  3-C ) :   1.9448 B(  2-C ,  5-H ) :   0.9511 B(  3-C ,  6-H ) :   0.9601
B(  3-C ,  7-H ) :   0.9649

-----------------------------------------------------------------------------
         ABSORPTION SPECTRUM VIA TRANSITION ELECTRIC DIPOLE MOMENTS
-----------------------------------------------------------------------------
State   Energy    Wavelength  fosc         T2        TX        TY        TZ
        (cm-1)      (nm)                 (au**2)    (au)      (au)      (au)
-----------------------------------------------------------------------------
   1   30026.9    333.0   0.000262202   0.00287  -0.05296  -0.00813  -0.00188

Dispersion correction           -0.025178771
FINAL SINGLE POINT ENERGY      -189.337774683145

DIPOLE MOMENT
-------------
                                X             Y             Z
Electronic contribution:     -2.05708      -1.85503       0.67163
Nuclear contribution   :      2.54433       2.82575      -1.08356
                        -----------------------------------------
Total Dipole Moment    :      0.48725       0.97072      -0.41193
                        -----------------------------------------
Magnitude (a.u.)       :      1.16164
Magnitude (Debye)      :      2.95265

Rotational constants in cm-1:     0.821895     0.186496     0.156621
Rotational constants in MHz : 24639.792651  5590.998515  4695.393302

                             ****ORCA TERMINATED NORMALLY****
TOTAL RUN TIME: 0 days 0 hours 0 minutes 12 seconds 252 msec
