                         Program Version 5.0.3 -  RELEASE  -
|  1> ! HF-3c
|  2> !TightSCF
|  3> %scf
|  4>  ConvForced true
|  5>  convergence tight
|  6>  MaxIter 500
|  7> end
|  8>
|  9> %tddft
| 10>  nroots 1
| 11> end
| 12>
| 13> # 	31689
| 14> * xyz 0 1
| 15> 		C   -0.578774  -0.431610  -0.014826
| 16> 		O   -0.610486  -1.657881   0.006748
| 17> 		C    0.637148   0.410698   0.030243
| 18> 		C    1.873536  -0.085859  -0.022204
| 19> 		H   -1.616291   0.000589  -0.090258
| 20> 		H    0.450732   1.428520   0.016776
| 21> 		H    1.907389  -1.110240   0.079014
| 22> 		H    2.874574   0.490052  -0.032406
| 23> *
| 24>
| 25>                          ****END OF INPUT****

CARTESIAN COORDINATES (ANGSTROEM)
---------------------------------
  C     -0.578774   -0.431610   -0.014826
  O     -0.610486   -1.657881    0.006748
  C      0.637148    0.410698    0.030243
  C      1.873536   -0.085859   -0.022204
  H     -1.616291    0.000589   -0.090258
  H      0.450732    1.428520    0.016776
  H      1.907389   -1.110240    0.079014
  H      2.874574    0.490052   -0.032406

 Total Charge           Charge          ....    0
 Multiplicity           Mult            ....    1
 Number of Electrons    NEL             ....   30
 Basis Dimension        Dim             ....   24

ORBITAL ENERGIES
----------------

  NO   OCC          E(Eh)            E(eV)
   0   2.0000     -20.352849      -553.8292
   1   2.0000     -11.287869      -307.1585
   2   2.0000     -11.198399      -304.7239
   3   2.0000     -11.194889      -304.6284
   4   2.0000      -1.387111       -37.7452
   5   2.0000      -1.084502       -29.5108
   6   2.0000      -0.890141       -24.2220
   7   2.0000      -0.753199       -20.4956
   8   2.0000      -0.705765       -19.2048
   9   2.0000      -0.617479       -16.8024
  10   2.0000      -0.590373       -16.0649
  11   2.0000      -0.536309       -14.5937
  12   2.0000      -0.529716       -14.4143
  13   2.0000      -0.412125       -11.2145
  14   2.0000      -0.395681       -10.7670
  15   0.0000       0.127301         3.4640
  16   0.0000       0.306467         8.3394
  17   0.0000       0.500453        13.6180
  18   0.0000       0.636900        17.3309
  19   0.0000       0.670199        18.2370

MULLIKEN ATOMIC CHARGES
-----------------------
   0 C :    0.154505
   1 O :   -0.353031
   2 C :   -0.186131
   3 C :   -0.214002
   4 H :    0.141788
   5 H :    0.142021
   6 H :    0.155798
   7 H :    0.159052
Sum of atomic charges:    0.0000000

LOEWDIN ATOMIC CHARGES
----------------------
   0 C :    0.138574
   1 O :   -0.264480
   2 C :   -0.136292
   3 C :   -0.112183
   4 H :    0.080156
   5 H :    0.085845
   6 H :    0.096840
   7 H :    0.111541

  Mayer bond orders larger than 0.100000
B(  0-C ,  1-O ) :   1.8989 B(  0-C ,  2-C ) :   1.0304 B(  0-C ,  4-H ) :   0.9311
B(  2-C ,  3-C ) :   1.9422 B(  2-C ,  5-H ) :   0.9610 B(  3-C ,  6-H ) :   0.9606
B(  3-C ,  7-H ) :   0.9602

-----------------------------------------------------------------------------
         ABSORPTION SPECTRUM VIA TRANSITION ELECTRIC DIPOLE MOMENTS
-----------------------------------------------------------------------------
State   Energy    Wavelength  fosc         T2        TX        TY        TZ
        (cm-1)      (nm)                 (au**2)    (au)      (au)      (au)
-----------------------------------------------------------------------------
   1   31010.5    322.5   0.000035828   0.00038   0.01289   0.00030  -0.01463

Dispersion correction           -0.025572883
FINAL SINGLE POINT ENERGY      -189.339950139787

DIPOLE MOMENT
-------------
                                X             Y             Z
Electronic contribution:     -1.85131      -1.61391       0.00842
Nuclear contribution   :      2.23586       2.54822      -0.02507
                        -----------------------------------------
Total Dipole Moment    :      0.38455       0.93431      -0.01665
                        -----------------------------------------
Magnitude (a.u.)       :      1.01049
Magnitude (Debye)      :      2.56846

Rotational constants in cm-1:     0.801261     0.199361     0.159750
Rotational constants in MHz : 24021.197574  5976.681752  4789.182870

                             ****ORCA TERMINATED NORMALLY****
TOTAL RUN TIME: 0 days 0 hours 0 minutes 12 seconds 184 msec
