                         Program Version 5.0.3 -  RELEASE  -
|  1> ! B3LYP cc-pVDZ
|  2> !TightSCF
|  3> %scf
|  4>  ConvForced true
|  5>  convergence tight
|  6>  MaxIter 500
|  7> end
|  8>
|  9> %tddft
| 10>  nroots 1
| 11> end
| 12>
| 13> # 	18262
| 14> * xyz 0 1
| 15> 		C   -1.212030  -0.333945  -0.000749
| 16> 		O   -1.330289  -1.520101   0.281468
| 17> 		C    0.027827   0.522416   0.129463
| 18> 		C    1.217694   0.037255  -0.066881
| 19> 		H   -2.060924   0.069728  -0.660662
| 20> 		H   -0.094013   1.557251   0.349654
| 21> 		H    1.451357  -1.048368  -0.180764
| 22> 		H    1.954002   0.733149   0.157948
| 23> *
| 24>
| 25>                          ****END OF INPUT****

CARTESIAN COORDINATES (ANGSTROEM)
---------------------------------
  C     -1.212030   -0.333945   -0.000749
  O     -1.330289   -1.520101    0.281468
  C      0.027827    0.522416    0.129463
  C      1.217694    0.037255   -0.066881
  H     -2.060924    0.069728   -0.660662
  H     -0.094013    1.557251    0.349654
  H      1.451357   -1.048368   -0.180764
  H      1.954002    0.733149    0.157948

 Total Charge           Charge          ....    0
 Multiplicity           Mult            ....    1
 Number of Electrons    NEL             ....   30
 Basis Dimension        Dim             ....   76

ORBITAL ENERGIES
----------------

  NO   OCC          E(Eh)            E(eV)
   0   2.0000     -19.142133      -520.8839
   1   2.0000     -10.281388      -279.7708
   2   2.0000     -10.204512      -277.6789
   3   2.0000     -10.202699      -277.6296
   4   2.0000      -1.039965       -28.2989
   5   2.0000      -0.806097       -21.9350
   6   2.0000      -0.651125       -17.7180
   7   2.0000      -0.544140       -14.8068
   8   2.0000      -0.508665       -13.8415
   9   2.0000      -0.445817       -12.1313
  10   2.0000      -0.437288       -11.8992
  11   2.0000      -0.389619       -10.6021
  12   2.0000      -0.379067       -10.3149
  13   2.0000      -0.296988        -8.0815
  14   2.0000      -0.252402        -6.8682
  15   0.0000      -0.058926        -1.6035
  16   0.0000       0.029127         0.7926
  17   0.0000       0.075673         2.0592
  18   0.0000       0.091772         2.4972
  19   0.0000       0.109198         2.9714

MULLIKEN ATOMIC CHARGES
-----------------------
   0 C :    0.154053
   1 O :   -0.194839
   2 C :   -0.090666
   3 C :    0.091722
   4 H :   -0.005229
   5 H :   -0.008374
   6 H :    0.041037
   7 H :    0.012296
Sum of atomic charges:   -0.0000000

LOEWDIN ATOMIC CHARGES
----------------------
   0 C :   -0.017938
   1 O :   -0.014050
   2 C :   -0.067727
   3 C :    0.007599
   4 H :   -0.001448
   5 H :    0.027417
   6 H :    0.042571
   7 H :    0.023577

  Mayer bond orders larger than 0.100000
B(  0-C ,  1-O ) :   2.1961 B(  0-C ,  2-C ) :   0.9968 B(  0-C ,  4-H ) :   0.9134
B(  2-C ,  3-C ) :   2.0235 B(  2-C ,  5-H ) :   0.9370 B(  3-C ,  6-H ) :   0.9403
B(  3-C ,  7-H ) :   0.9295

-----------------------------------------------------------------------------
         ABSORPTION SPECTRUM VIA TRANSITION ELECTRIC DIPOLE MOMENTS
-----------------------------------------------------------------------------
State   Energy    Wavelength  fosc         T2        TX        TY        TZ
        (cm-1)      (nm)                 (au**2)    (au)      (au)      (au)
-----------------------------------------------------------------------------
   1   28750.7    347.8   0.000217316   0.00249  -0.01835   0.00530   0.04608

FINAL SINGLE POINT ENERGY      -191.660531152746

DIPOLE MOMENT
-------------
                                X             Y             Z
Electronic contribution:     -2.03354      -1.69054       0.49442
Nuclear contribution   :      2.47195       2.57144      -0.63893
                        -----------------------------------------
Total Dipole Moment    :      0.43840       0.88090      -0.14451
                        -----------------------------------------
Magnitude (a.u.)       :      0.99452
Magnitude (Debye)      :      2.52787

Rotational constants in cm-1:     0.822717     0.191297     0.159212
Rotational constants in MHz : 24664.429855  5734.949381  4773.057828

                             ****ORCA TERMINATED NORMALLY****
TOTAL RUN TIME: 0 days 0 hours 3 minutes 22 seconds 42 msec
