                         Program Version 5.0.3 -  RELEASE  -
|  1> ! HF-3c
|  2> !TightSCF
|  3> %scf
|  4>  ConvForced true
|  5>  convergence tight
|  6>  MaxIter 500
|  7> end
|  8>
|  9> %tddft
| 10>  nroots 1
| 11> end
| 12>
| 13> # 	28924
| 14> * xyz 0 1
| 15> 		C   -0.536964  -0.463342  -0.089583
| 16> 		O   -0.612571  -1.641208   0.051981
| 17> 		C    0.642483   0.447114   0.082952
| 18> 		C    1.846854  -0.144727  -0.043226
| 19> 		H   -1.604176   0.149948  -0.259609
| 20> 		H    0.491261   1.571758   0.187785
| 21> 		H    2.058967  -1.104481  -0.143999
| 22> 		H    2.512722   0.615622   0.000036
| 23> *
| 24>
| 25>                          ****END OF INPUT****

CARTESIAN COORDINATES (ANGSTROEM)
---------------------------------
  C     -0.536964   -0.463342   -0.089583
  O     -0.612571   -1.641208    0.051981
  C      0.642483    0.447114    0.082952
  C      1.846854   -0.144727   -0.043226
  H     -1.604176    0.149948   -0.259609
  H      0.491261    1.571758    0.187785
  H      2.058967   -1.104481   -0.143999
  H      2.512722    0.615622    0.000036

 Total Charge           Charge          ....    0
 Multiplicity           Mult            ....    1
 Number of Electrons    NEL             ....   30
 Basis Dimension        Dim             ....   24

ORBITAL ENERGIES
----------------

  NO   OCC          E(Eh)            E(eV)
   0   2.0000     -20.368288      -554.2493
   1   2.0000     -11.293337      -307.3073
   2   2.0000     -11.196183      -304.6636
   3   2.0000     -11.194139      -304.6080
   4   2.0000      -1.412797       -38.4442
   5   2.0000      -1.089573       -29.6488
   6   2.0000      -0.886172       -24.1140
   7   2.0000      -0.742988       -20.2177
   8   2.0000      -0.703980       -19.1563
   9   2.0000      -0.627117       -17.0647
  10   2.0000      -0.586295       -15.9539
  11   2.0000      -0.558130       -15.1875
  12   2.0000      -0.542193       -14.7538
  13   2.0000      -0.400728       -10.9044
  14   2.0000      -0.389472       -10.5981
  15   0.0000       0.135175         3.6783
  16   0.0000       0.300533         8.1779
  17   0.0000       0.509994        13.8777
  18   0.0000       0.556092        15.1320
  19   0.0000       0.637255        17.3406

MULLIKEN ATOMIC CHARGES
-----------------------
   0 C :    0.192784
   1 O :   -0.366104
   2 C :   -0.148687
   3 C :   -0.258134
   4 H :    0.113661
   5 H :    0.152813
   6 H :    0.162758
   7 H :    0.150909
Sum of atomic charges:    0.0000000

LOEWDIN ATOMIC CHARGES
----------------------
   0 C :    0.153686
   1 O :   -0.262523
   2 C :   -0.109278
   3 C :   -0.142266
   4 H :    0.062046
   5 H :    0.103245
   6 H :    0.100013
   7 H :    0.095078

  Mayer bond orders larger than 0.100000
B(  0-C ,  1-O ) :   1.9228 B(  0-C ,  2-C ) :   1.0077 B(  0-C ,  4-H ) :   0.9065
B(  2-C ,  3-C ) :   1.9493 B(  2-C ,  5-H ) :   0.9587 B(  3-C ,  6-H ) :   0.9640
B(  3-C ,  7-H ) :   0.9658

-----------------------------------------------------------------------------
         ABSORPTION SPECTRUM VIA TRANSITION ELECTRIC DIPOLE MOMENTS
-----------------------------------------------------------------------------
State   Energy    Wavelength  fosc         T2        TX        TY        TZ
        (cm-1)      (nm)                 (au**2)    (au)      (au)      (au)
-----------------------------------------------------------------------------
   1   33335.2    300.0   0.000594054   0.00587  -0.07617   0.00171   0.00785

Dispersion correction           -0.025620785
FINAL SINGLE POINT ENERGY      -189.300393847392

DIPOLE MOMENT
-------------
                                X             Y             Z
Electronic contribution:     -1.77494      -1.88967       0.09882
Nuclear contribution   :      2.08435       2.94327      -0.20271
                        -----------------------------------------
Total Dipole Moment    :      0.30941       1.05360      -0.10388
                        -----------------------------------------
Magnitude (a.u.)       :      1.10300
Magnitude (Debye)      :      2.80360

Rotational constants in cm-1:     0.764978     0.206014     0.163465
Rotational constants in MHz : 22933.466165  6176.134462  4900.547554

                             ****ORCA TERMINATED NORMALLY****
TOTAL RUN TIME: 0 days 0 hours 0 minutes 16 seconds 9 msec
