                         Program Version 5.0.3 -  RELEASE  -
|  1> ! HF-3c
|  2> !TightSCF
|  3> %scf
|  4>  ConvForced true
|  5>  convergence tight
|  6>  MaxIter 500
|  7> end
|  8>
|  9> %tddft
| 10>  nroots 1
| 11> end
| 12>
| 13> # 	20646
| 14> * xyz 0 1
| 15> 		C   -0.567781  -0.452214  -0.015403
| 16> 		O   -0.609228  -1.648452  -0.004612
| 17> 		C    0.642492   0.427827  -0.005288
| 18> 		C    1.859185  -0.112547   0.012915
| 19> 		H   -1.543109   0.098063   0.253308
| 20> 		H    0.373838   1.508777  -0.119693
| 21> 		H    1.942847  -1.060785   0.003449
| 22> 		H    2.803102   0.495972   0.021027
| 23> *
| 24>
| 25>                          ****END OF INPUT****

CARTESIAN COORDINATES (ANGSTROEM)
---------------------------------
  C     -0.567781   -0.452214   -0.015403
  O     -0.609228   -1.648452   -0.004612
  C      0.642492    0.427827   -0.005288
  C      1.859185   -0.112547    0.012915
  H     -1.543109    0.098063    0.253308
  H      0.373838    1.508777   -0.119693
  H      1.942847   -1.060785    0.003449
  H      2.803102    0.495972    0.021027

 Total Charge           Charge          ....    0
 Multiplicity           Mult            ....    1
 Number of Electrons    NEL             ....   30
 Basis Dimension        Dim             ....   24

ORBITAL ENERGIES
----------------

  NO   OCC          E(Eh)            E(eV)
   0   2.0000     -20.369646      -554.2862
   1   2.0000     -11.294718      -307.3449
   2   2.0000     -11.198575      -304.7287
   3   2.0000     -11.195781      -304.6527
   4   2.0000      -1.410788       -38.3895
   5   2.0000      -1.085715       -29.5438
   6   2.0000      -0.895259       -24.3612
   7   2.0000      -0.750515       -20.4225
   8   2.0000      -0.701364       -19.0851
   9   2.0000      -0.627586       -17.0775
  10   2.0000      -0.598592       -16.2885
  11   2.0000      -0.551258       -15.0005
  12   2.0000      -0.535862       -14.5816
  13   2.0000      -0.406036       -11.0488
  14   2.0000      -0.401441       -10.9238
  15   0.0000       0.131503         3.5784
  16   0.0000       0.302165         8.2223
  17   0.0000       0.526081        14.3154
  18   0.0000       0.608493        16.5579
  19   0.0000       0.657617        17.8947

MULLIKEN ATOMIC CHARGES
-----------------------
   0 C :    0.173882
   1 O :   -0.355868
   2 C :   -0.158412
   3 C :   -0.242679
   4 H :    0.127749
   5 H :    0.146760
   6 H :    0.153236
   7 H :    0.155332
Sum of atomic charges:    0.0000000

LOEWDIN ATOMIC CHARGES
----------------------
   0 C :    0.145554
   1 O :   -0.255579
   2 C :   -0.116227
   3 C :   -0.133619
   4 H :    0.068450
   5 H :    0.096475
   6 H :    0.088686
   7 H :    0.106261

  Mayer bond orders larger than 0.100000
B(  0-C ,  1-O ) :   1.9159 B(  0-C ,  2-C ) :   1.0103 B(  0-C ,  4-H ) :   0.9203
B(  2-C ,  3-C ) :   1.9557 B(  2-C ,  5-H ) :   0.9588 B(  3-C ,  6-H ) :   0.9639
B(  3-C ,  7-H ) :   0.9611

-----------------------------------------------------------------------------
         ABSORPTION SPECTRUM VIA TRANSITION ELECTRIC DIPOLE MOMENTS
-----------------------------------------------------------------------------
State   Energy    Wavelength  fosc         T2        TX        TY        TZ
        (cm-1)      (nm)                 (au**2)    (au)      (au)      (au)
-----------------------------------------------------------------------------
   1   32432.7    308.3   0.000164626   0.00167   0.03737   0.00577  -0.01553

Dispersion correction           -0.025642977
FINAL SINGLE POINT ENERGY      -189.321947898717

DIPOLE MOMENT
-------------
                                X             Y             Z
Electronic contribution:     -1.89263      -1.76077      -0.13597
Nuclear contribution   :      2.19835       2.76547       0.14878
                        -----------------------------------------
Total Dipole Moment    :      0.30572       1.00470       0.01280
                        -----------------------------------------
Magnitude (a.u.)       :      1.05026
Magnitude (Debye)      :      2.66955

Rotational constants in cm-1:     0.787627     0.202840     0.161563
Rotational constants in MHz : 23612.464138  6080.997166  4843.541992

                             ****ORCA TERMINATED NORMALLY****
TOTAL RUN TIME: 0 days 0 hours 0 minutes 11 seconds 812 msec
