                         Program Version 5.0.3 -  RELEASE  -
|  1> ! HF-3c
|  2> !TightSCF
|  3> %scf
|  4>  ConvForced true
|  5>  convergence tight
|  6>  MaxIter 500
|  7> end
|  8>
|  9> %tddft
| 10>  nroots 1
| 11> end
| 12>
| 13> # 	1284
| 14> * xyz 0 1
| 15> 		C   -1.200654  -0.373854   0.001894
| 16> 		O   -1.347860  -1.442244   0.488354
| 17> 		C    0.071957   0.469013   0.265630
| 18> 		C    1.237233  -0.025414  -0.104036
| 19> 		H   -2.143084   0.309572  -0.755344
| 20> 		H   -0.037869   1.429198   0.672900
| 21> 		H    1.375663  -1.091948  -0.473193
| 22> 		H    2.065892   0.748369  -0.173482
| 23> *
| 24>
| 25>                          ****END OF INPUT****

CARTESIAN COORDINATES (ANGSTROEM)
---------------------------------
  C     -1.200654   -0.373854    0.001894
  O     -1.347860   -1.442244    0.488354
  C      0.071957    0.469013    0.265630
  C      1.237233   -0.025414   -0.104036
  H     -2.143084    0.309572   -0.755344
  H     -0.037869    1.429198    0.672900
  H      1.375663   -1.091948   -0.473193
  H      2.065892    0.748369   -0.173482

 Total Charge           Charge          ....    0
 Multiplicity           Mult            ....    1
 Number of Electrons    NEL             ....   30
 Basis Dimension        Dim             ....   24

ORBITAL ENERGIES
----------------

  NO   OCC          E(Eh)            E(eV)
   0   2.0000     -20.375652      -554.4497
   1   2.0000     -11.296990      -307.4067
   2   2.0000     -11.180483      -304.2364
   3   2.0000     -11.177070      -304.1435
   4   2.0000      -1.419835       -38.6357
   5   2.0000      -1.069830       -29.1115
   6   2.0000      -0.845546       -23.0085
   7   2.0000      -0.729011       -19.8374
   8   2.0000      -0.672006       -18.2862
   9   2.0000      -0.601042       -16.3552
  10   2.0000      -0.600222       -16.3329
  11   2.0000      -0.540256       -14.7011
  12   2.0000      -0.522533       -14.2188
  13   2.0000      -0.396517       -10.7898
  14   2.0000      -0.376862       -10.2549
  15   0.0000       0.182442         4.9645
  16   0.0000       0.253493         6.8979
  17   0.0000       0.393731        10.7140
  18   0.0000       0.561911        15.2904
  19   0.0000       0.598138        16.2762

MULLIKEN ATOMIC CHARGES
-----------------------
   0 C :    0.215149
   1 O :   -0.368119
   2 C :   -0.181498
   3 C :   -0.228575
   4 H :    0.126630
   5 H :    0.143294
   6 H :    0.151108
   7 H :    0.142012
Sum of atomic charges:   -0.0000000

LOEWDIN ATOMIC CHARGES
----------------------
   0 C :    0.160976
   1 O :   -0.258999
   2 C :   -0.134872
   3 C :   -0.141213
   4 H :    0.085259
   5 H :    0.089311
   6 H :    0.103220
   7 H :    0.096317

  Mayer bond orders larger than 0.100000
B(  0-C ,  1-O ) :   1.9601 B(  0-C ,  2-C ) :   0.9665 B(  0-C ,  4-H ) :   0.8717
B(  2-C ,  3-C ) :   1.9872 B(  2-C ,  5-H ) :   0.9582 B(  3-C ,  6-H ) :   0.9603
B(  3-C ,  7-H ) :   0.9604

-----------------------------------------------------------------------------
         ABSORPTION SPECTRUM VIA TRANSITION ELECTRIC DIPOLE MOMENTS
-----------------------------------------------------------------------------
State   Energy    Wavelength  fosc         T2        TX        TY        TZ
        (cm-1)      (nm)                 (au**2)    (au)      (au)      (au)
-----------------------------------------------------------------------------
   1   37021.1    270.1   0.000380943   0.00339  -0.05110   0.01656  -0.02241

Dispersion correction           -0.025273326
FINAL SINGLE POINT ENERGY      -189.272439170587

DIPOLE MOMENT
-------------
                                X             Y             Z
Electronic contribution:     -2.16667      -1.79675       0.79294
Nuclear contribution   :      2.43887       2.68741      -1.28443
                        -----------------------------------------
Total Dipole Moment    :      0.27220       0.89065      -0.49149
                        -----------------------------------------
Magnitude (a.u.)       :      1.05305
Magnitude (Debye)      :      2.67665

Rotational constants in cm-1:     0.796262     0.187482     0.161764
Rotational constants in MHz : 23871.329945  5620.555074  4849.563800

                             ****ORCA TERMINATED NORMALLY****
TOTAL RUN TIME: 0 days 0 hours 0 minutes 13 seconds 225 msec
