                         Program Version 5.0.3 -  RELEASE  -
|  1> ! B3LYP cc-pVDZ
|  2> !TightSCF
|  3> %scf
|  4>  ConvForced true
|  5>  convergence tight
|  6>  MaxIter 500
|  7> end
|  8>
|  9> %tddft
| 10>  nroots 1
| 11> end
| 12>
| 13> # 	29492
| 14> * xyz 0 1
| 15> 		C   -0.585551  -0.430446   0.004038
| 16> 		O   -0.537605  -1.599175   0.000959
| 17> 		C    0.577288   0.431412   0.017529
| 18> 		C    1.833465  -0.179423  -0.003883
| 19> 		H   -1.354283   0.064566  -0.138078
| 20> 		H    0.498647   1.632215  -0.005144
| 21> 		H    1.841628  -1.326118  -0.009886
| 22> 		H    2.759707   0.388485  -0.074890
| 23> *
| 24>
| 25>                          ****END OF INPUT****

CARTESIAN COORDINATES (ANGSTROEM)
---------------------------------
  C     -0.585551   -0.430446    0.004038
  O     -0.537605   -1.599175    0.000959
  C      0.577288    0.431412    0.017529
  C      1.833465   -0.179423   -0.003883
  H     -1.354283    0.064566   -0.138078
  H      0.498647    1.632215   -0.005144
  H      1.841628   -1.326118   -0.009886
  H      2.759707    0.388485   -0.074890

 Total Charge           Charge          ....    0
 Multiplicity           Mult            ....    1
 Number of Electrons    NEL             ....   30
 Basis Dimension        Dim             ....   76

ORBITAL ENERGIES
----------------

  NO   OCC          E(Eh)            E(eV)
   0   2.0000     -19.131340      -520.5902
   1   2.0000     -10.250879      -278.9406
   2   2.0000     -10.220369      -278.1104
   3   2.0000     -10.209037      -277.8020
   4   2.0000      -1.066742       -29.0275
   5   2.0000      -0.780803       -21.2467
   6   2.0000      -0.673511       -18.3272
   7   2.0000      -0.554870       -15.0988
   8   2.0000      -0.499301       -13.5867
   9   2.0000      -0.446935       -12.1617
  10   2.0000      -0.420141       -11.4326
  11   2.0000      -0.408699       -11.1213
  12   2.0000      -0.373944       -10.1755
  13   2.0000      -0.276296        -7.5184
  14   2.0000      -0.255126        -6.9423
  15   0.0000      -0.070511        -1.9187
  16   0.0000       0.063637         1.7317
  17   0.0000       0.067144         1.8271
  18   0.0000       0.090152         2.4532
  19   0.0000       0.131839         3.5875

MULLIKEN ATOMIC CHARGES
-----------------------
   0 C :    0.331360
   1 O :   -0.176974
   2 C :   -0.219836
   3 C :    0.044112
   4 H :   -0.097594
   5 H :    0.022617
   6 H :    0.061027
   7 H :    0.035287
Sum of atomic charges:   -0.0000000

LOEWDIN ATOMIC CHARGES
----------------------
   0 C :   -0.053583
   1 O :    0.041423
   2 C :   -0.086765
   3 C :    0.028646
   4 H :   -0.044694
   5 H :    0.044147
   6 H :    0.044720
   7 H :    0.026107

  Mayer bond orders larger than 0.100000
B(  0-C ,  1-O ) :   2.2180 B(  0-C ,  2-C ) :   1.0668 B(  0-C ,  4-H ) :   0.9294
B(  2-C ,  3-C ) :   1.9293 B(  2-C ,  5-H ) :   0.9380 B(  3-C ,  6-H ) :   0.9296
B(  3-C ,  7-H ) :   0.9481

-----------------------------------------------------------------------------
         ABSORPTION SPECTRUM VIA TRANSITION ELECTRIC DIPOLE MOMENTS
-----------------------------------------------------------------------------
State   Energy    Wavelength  fosc         T2        TX        TY        TZ
        (cm-1)      (nm)                 (au**2)    (au)      (au)      (au)
-----------------------------------------------------------------------------
   1   27917.0    358.2   0.000036601   0.00043  -0.01445  -0.00547   0.01389

FINAL SINGLE POINT ENERGY      -191.633199593231

DIPOLE MOMENT
-------------
                                X             Y             Z
Electronic contribution:     -2.04289      -1.66281       0.17523
Nuclear contribution   :      2.35726       2.50050      -0.21375
                        -----------------------------------------
Total Dipole Moment    :      0.31436       0.83770      -0.03851
                        -----------------------------------------
Magnitude (a.u.)       :      0.89557
Magnitude (Debye)      :      2.27635

Rotational constants in cm-1:     0.731014     0.223253     0.171123
Rotational constants in MHz : 21915.238348  6692.954278  5130.141384

                             ****ORCA TERMINATED NORMALLY****
TOTAL RUN TIME: 0 days 0 hours 3 minutes 19 seconds 691 msec
