                         Program Version 5.0.3 -  RELEASE  -
|  1> ! B3LYP cc-pVDZ
|  2> !TightSCF
|  3> %scf
|  4>  ConvForced true
|  5>  convergence tight
|  6>  MaxIter 500
|  7> end
|  8>
|  9> %tddft
| 10>  nroots 1
| 11> end
| 12>
| 13> # 	3076
| 14> * xyz 0 1
| 15> 		C   -1.188472  -0.357654   0.081307
| 16> 		O   -1.898718  -0.759170   0.922907
| 17> 		C    0.012781   0.468830   0.314237
| 18> 		C    1.205263   0.118826  -0.296253
| 19> 		H   -1.296737  -0.601223  -1.089992
| 20> 		H   -0.132157   1.387169   1.000015
| 21> 		H    1.303819  -0.852662  -0.852350
| 22> 		H    1.995399   0.623568  -0.124792
| 23> *
| 24>
| 25>                          ****END OF INPUT****

CARTESIAN COORDINATES (ANGSTROEM)
---------------------------------
  C     -1.188472   -0.357654    0.081307
  O     -1.898718   -0.759170    0.922907
  C      0.012781    0.468830    0.314237
  C      1.205263    0.118826   -0.296253
  H     -1.296737   -0.601223   -1.089992
  H     -0.132157    1.387169    1.000015
  H      1.303819   -0.852662   -0.852350
  H      1.995399    0.623568   -0.124792

 Total Charge           Charge          ....    0
 Multiplicity           Mult            ....    1
 Number of Electrons    NEL             ....   30
 Basis Dimension        Dim             ....   76

ORBITAL ENERGIES
----------------

  NO   OCC          E(Eh)            E(eV)
   0   2.0000     -19.146703      -521.0083
   1   2.0000     -10.282130      -279.7910
   2   2.0000     -10.217636      -278.0360
   3   2.0000     -10.208327      -277.7827
   4   2.0000      -1.074132       -29.2286
   5   2.0000      -0.792710       -21.5707
   6   2.0000      -0.655945       -17.8492
   7   2.0000      -0.550543       -14.9810
   8   2.0000      -0.482873       -13.1396
   9   2.0000      -0.470750       -12.8098
  10   2.0000      -0.440118       -11.9762
  11   2.0000      -0.408728       -11.1220
  12   2.0000      -0.386804       -10.5255
  13   2.0000      -0.283204        -7.7064
  14   2.0000      -0.256607        -6.9826
  15   0.0000      -0.056979        -1.5505
  16   0.0000       0.019210         0.5227
  17   0.0000       0.072718         1.9788
  18   0.0000       0.094503         2.5716
  19   0.0000       0.106236         2.8908

MULLIKEN ATOMIC CHARGES
-----------------------
   0 C :    0.144844
   1 O :   -0.147165
   2 C :   -0.129744
   3 C :    0.099919
   4 H :   -0.021513
   5 H :    0.037076
   6 H :    0.036782
   7 H :   -0.020200
Sum of atomic charges:    0.0000000

LOEWDIN ATOMIC CHARGES
----------------------
   0 C :   -0.070966
   1 O :    0.046125
   2 C :   -0.051480
   3 C :    0.013318
   4 H :   -0.009261
   5 H :    0.047078
   6 H :    0.040867
   7 H :   -0.015682

  Mayer bond orders larger than 0.100000
B(  0-C ,  1-O ) :   2.2438 B(  0-C ,  2-C ) :   1.0160 B(  0-C ,  4-H ) :   0.8880
B(  2-C ,  3-C ) :   1.9720 B(  2-C ,  5-H ) :   0.9390 B(  3-C ,  6-H ) :   0.9510
B(  3-C ,  7-H ) :   0.9449

-----------------------------------------------------------------------------
         ABSORPTION SPECTRUM VIA TRANSITION ELECTRIC DIPOLE MOMENTS
-----------------------------------------------------------------------------
State   Energy    Wavelength  fosc         T2        TX        TY        TZ
        (cm-1)      (nm)                 (au**2)    (au)      (au)      (au)
-----------------------------------------------------------------------------
   1   31487.1    317.6   0.000158169   0.00165  -0.02267  -0.00483   0.03341

FINAL SINGLE POINT ENERGY      -191.633069322422

DIPOLE MOMENT
-------------
                                X             Y             Z
Electronic contribution:     -2.86995      -0.71989       1.54420
Nuclear contribution   :      3.61742       1.10404      -1.98760
                        -----------------------------------------
Total Dipole Moment    :      0.74747       0.38415      -0.44340
                        -----------------------------------------
Magnitude (a.u.)       :      0.95020
Magnitude (Debye)      :      2.41523

Rotational constants in cm-1:     1.220509     0.159275     0.150131
Rotational constants in MHz : 36589.939982  4774.943765  4500.817551

                             ****ORCA TERMINATED NORMALLY****
TOTAL RUN TIME: 0 days 0 hours 3 minutes 1 seconds 297 msec
