                         Program Version 5.0.3 -  RELEASE  -
|  1> ! HF-3c
|  2> !TightSCF
|  3> %scf
|  4>  ConvForced true
|  5>  convergence tight
|  6>  MaxIter 500
|  7> end
|  8>
|  9> %tddft
| 10>  nroots 1
| 11> end
| 12>
| 13> # 	14680
| 14> * xyz 0 1
| 15> 		C   -1.262739  -0.390310  -0.054778
| 16> 		O   -1.211284  -1.506184   0.018145
| 17> 		C    0.057857   0.523546   0.015877
| 18> 		C    1.213802  -0.014025  -0.025843
| 19> 		H   -2.258315   0.354782  -0.232817
| 20> 		H   -0.205949   1.556198   0.290957
| 21> 		H    1.487459  -1.070651  -0.031961
| 22> 		H    2.159925   0.579411   0.047506
| 23> *
| 24>
| 25>                          ****END OF INPUT****

CARTESIAN COORDINATES (ANGSTROEM)
---------------------------------
  C     -1.262739   -0.390310   -0.054778
  O     -1.211284   -1.506184    0.018145
  C      0.057857    0.523546    0.015877
  C      1.213802   -0.014025   -0.025843
  H     -2.258315    0.354782   -0.232817
  H     -0.205949    1.556198    0.290957
  H      1.487459   -1.070651   -0.031961
  H      2.159925    0.579411    0.047506

 Total Charge           Charge          ....    0
 Multiplicity           Mult            ....    1
 Number of Electrons    NEL             ....   30
 Basis Dimension        Dim             ....   24

ORBITAL ENERGIES
----------------

  NO   OCC          E(Eh)            E(eV)
   0   2.0000     -20.407631      -555.3199
   1   2.0000     -11.318309      -307.9869
   2   2.0000     -11.179370      -304.2061
   3   2.0000     -11.176331      -304.1234
   4   2.0000      -1.478713       -40.2378
   5   2.0000      -1.070287       -29.1240
   6   2.0000      -0.852762       -23.2048
   7   2.0000      -0.734000       -19.9732
   8   2.0000      -0.696363       -18.9490
   9   2.0000      -0.632694       -17.2165
  10   2.0000      -0.609172       -16.5764
  11   2.0000      -0.578841       -15.7511
  12   2.0000      -0.525772       -14.3070
  13   2.0000      -0.411904       -11.2085
  14   2.0000      -0.376367       -10.2415
  15   0.0000       0.176117         4.7924
  16   0.0000       0.315281         8.5792
  17   0.0000       0.439367        11.9558
  18   0.0000       0.551170        14.9981
  19   0.0000       0.611820        16.6485

MULLIKEN ATOMIC CHARGES
-----------------------
   0 C :    0.234101
   1 O :   -0.374573
   2 C :   -0.175319
   3 C :   -0.241959
   4 H :    0.125710
   5 H :    0.138945
   6 H :    0.154400
   7 H :    0.138695
Sum of atomic charges:    0.0000000

LOEWDIN ATOMIC CHARGES
----------------------
   0 C :    0.165843
   1 O :   -0.237741
   2 C :   -0.137242
   3 C :   -0.145753
   4 H :    0.072049
   5 H :    0.089616
   6 H :    0.101574
   7 H :    0.091654

  Mayer bond orders larger than 0.100000
B(  0-C ,  1-O ) :   1.9702 B(  0-C ,  2-C ) :   0.9283 B(  0-C ,  4-H ) :   0.8856
B(  2-C ,  3-C ) :   2.0066 B(  2-C ,  5-H ) :   0.9590 B(  3-C ,  6-H ) :   0.9562
B(  3-C ,  7-H ) :   0.9576

-----------------------------------------------------------------------------
         ABSORPTION SPECTRUM VIA TRANSITION ELECTRIC DIPOLE MOMENTS
-----------------------------------------------------------------------------
State   Energy    Wavelength  fosc         T2        TX        TY        TZ
        (cm-1)      (nm)                 (au**2)    (au)      (au)      (au)
-----------------------------------------------------------------------------
   1   39056.7    256.0   0.000142026   0.00120  -0.03339  -0.00464   0.00781

Dispersion correction           -0.025119558
FINAL SINGLE POINT ENERGY      -189.277741359975

DIPOLE MOMENT
-------------
                                X             Y             Z
Electronic contribution:     -2.17948      -1.87944      -0.09987
Nuclear contribution   :      2.30701       2.73665       0.09716
                        -----------------------------------------
Total Dipole Moment    :      0.12753       0.85720      -0.00271
                        -----------------------------------------
Magnitude (a.u.)       :      0.86664
Magnitude (Debye)      :      2.20283

Rotational constants in cm-1:     0.781051     0.203387     0.161952
Rotational constants in MHz : 23415.305956  6097.391042  4855.200274

                             ****ORCA TERMINATED NORMALLY****
TOTAL RUN TIME: 0 days 0 hours 0 minutes 16 seconds 121 msec
