                         Program Version 5.0.3 -  RELEASE  -
|  1> ! B3LYP cc-pVDZ
|  2> !TightSCF
|  3> %scf
|  4>  ConvForced true
|  5>  convergence tight
|  6>  MaxIter 500
|  7> end
|  8>
|  9> %tddft
| 10>  nroots 1
| 11> end
| 12>
| 13> # 	12159
| 14> * xyz 0 1
| 15> 		C   -1.178394  -0.384199   0.095758
| 16> 		O   -2.228958  -0.383638   0.672663
| 17> 		C    0.010578   0.387022   0.398474
| 18> 		C    1.200481   0.202747  -0.222343
| 19> 		H   -1.097429  -1.053800  -0.791359
| 20> 		H   -0.142197   1.112082   1.188980
| 21> 		H    1.167045  -0.417835  -1.286045
| 22> 		H    2.218941   0.594354  -0.098517
| 23> *
| 24>
| 25>                          ****END OF INPUT****

CARTESIAN COORDINATES (ANGSTROEM)
---------------------------------
  C     -1.178394   -0.384199    0.095758
  O     -2.228958   -0.383638    0.672663
  C      0.010578    0.387022    0.398474
  C      1.200481    0.202747   -0.222343
  H     -1.097429   -1.053800   -0.791359
  H     -0.142197    1.112082    1.188980
  H      1.167045   -0.417835   -1.286045
  H      2.218941    0.594354   -0.098517

 Total Charge           Charge          ....    0
 Multiplicity           Mult            ....    1
 Number of Electrons    NEL             ....   30
 Basis Dimension        Dim             ....   76

ORBITAL ENERGIES
----------------

  NO   OCC          E(Eh)            E(eV)
   0   2.0000     -19.137418      -520.7556
   1   2.0000     -10.271840      -279.5110
   2   2.0000     -10.239818      -278.6396
   3   2.0000     -10.214747      -277.9574
   4   2.0000      -1.052643       -28.6439
   5   2.0000      -0.802326       -21.8324
   6   2.0000      -0.650094       -17.6900
   7   2.0000      -0.567262       -15.4360
   8   2.0000      -0.488680       -13.2977
   9   2.0000      -0.463714       -12.6183
  10   2.0000      -0.423825       -11.5329
  11   2.0000      -0.404893       -11.0177
  12   2.0000      -0.372576       -10.1383
  13   2.0000      -0.292859        -7.9691
  14   2.0000      -0.254404        -6.9227
  15   0.0000      -0.072351        -1.9688
  16   0.0000       0.045569         1.2400
  17   0.0000       0.064024         1.7422
  18   0.0000       0.082290         2.2392
  19   0.0000       0.120045         3.2666

MULLIKEN ATOMIC CHARGES
-----------------------
   0 C :    0.172301
   1 O :   -0.184938
   2 C :   -0.036844
   3 C :   -0.008127
   4 H :   -0.044376
   5 H :   -0.001302
   6 H :    0.050827
   7 H :    0.052460
Sum of atomic charges:    0.0000000

LOEWDIN ATOMIC CHARGES
----------------------
   0 C :   -0.053987
   1 O :    0.011053
   2 C :   -0.062992
   3 C :    0.003937
   4 H :   -0.011823
   5 H :    0.030856
   6 H :    0.049096
   7 H :    0.033861

  Mayer bond orders larger than 0.100000
B(  0-C ,  1-O ) :   2.1772 B(  0-C ,  2-C ) :   1.0941 B(  0-C ,  4-H ) :   0.9194
B(  1-O ,  3-C ) :   0.1004 B(  2-C ,  3-C ) :   1.8832 B(  2-C ,  5-H ) :   0.9474
B(  3-C ,  6-H ) :   0.9341 B(  3-C ,  7-H ) :   0.9537

-----------------------------------------------------------------------------
         ABSORPTION SPECTRUM VIA TRANSITION ELECTRIC DIPOLE MOMENTS
-----------------------------------------------------------------------------
State   Energy    Wavelength  fosc         T2        TX        TY        TZ
        (cm-1)      (nm)                 (au**2)    (au)      (au)      (au)
-----------------------------------------------------------------------------
   1   27663.3    361.5   0.000054627   0.00065  -0.01590   0.00817  -0.01818

FINAL SINGLE POINT ENERGY      -191.668260660196

DIPOLE MOMENT
-------------
                                X             Y             Z
Electronic contribution:     -3.08890      -0.24069       1.39530
Nuclear contribution   :      4.20537       0.44524      -1.79178
                        -----------------------------------------
Total Dipole Moment    :      1.11646       0.20456      -0.39648
                        -----------------------------------------
Magnitude (a.u.)       :      1.20230
Magnitude (Debye)      :      3.05601

Rotational constants in cm-1:     1.649615     0.151754     0.139299
Rotational constants in MHz : 49454.211432  4549.470463  4176.088118

                             ****ORCA TERMINATED NORMALLY****
TOTAL RUN TIME: 0 days 0 hours 3 minutes 19 seconds 284 msec
