                         Program Version 5.0.3 -  RELEASE  -
|  1> ! HF-3c
|  2> !TightSCF
|  3> %scf
|  4>  ConvForced true
|  5>  convergence tight
|  6>  MaxIter 500
|  7> end
|  8>
|  9> %tddft
| 10>  nroots 1
| 11> end
| 12>
| 13> # 	23413
| 14> * xyz 0 1
| 15> 		C   -0.582365  -0.421062  -0.020150
| 16> 		O   -0.560738  -1.637072   0.011919
| 17> 		C    0.632743   0.444975   0.030078
| 18> 		C    1.817328  -0.163477  -0.007487
| 19> 		H   -1.513106   0.182670  -0.137956
| 20> 		H    0.438514   1.415429   0.048087
| 21> 		H    1.929874  -1.210036  -0.030118
| 22> 		H    2.744450   0.524399  -0.098781
| 23> *
| 24>
| 25>                          ****END OF INPUT****

CARTESIAN COORDINATES (ANGSTROEM)
---------------------------------
  C     -0.582365   -0.421062   -0.020150
  O     -0.560738   -1.637072    0.011919
  C      0.632743    0.444975    0.030078
  C      1.817328   -0.163477   -0.007487
  H     -1.513106    0.182670   -0.137956
  H      0.438514    1.415429    0.048087
  H      1.929874   -1.210036   -0.030118
  H      2.744450    0.524399   -0.098781

 Total Charge           Charge          ....    0
 Multiplicity           Mult            ....    1
 Number of Electrons    NEL             ....   30
 Basis Dimension        Dim             ....   24

ORBITAL ENERGIES
----------------

  NO   OCC          E(Eh)            E(eV)
   0   2.0000     -20.359754      -554.0171
   1   2.0000     -11.289977      -307.2159
   2   2.0000     -11.196906      -304.6833
   3   2.0000     -11.187113      -304.4168
   4   2.0000      -1.393883       -37.9295
   5   2.0000      -1.084001       -29.4972
   6   2.0000      -0.892482       -24.2857
   7   2.0000      -0.756663       -20.5899
   8   2.0000      -0.703682       -19.1482
   9   2.0000      -0.624827       -17.0024
  10   2.0000      -0.585057       -15.9202
  11   2.0000      -0.544187       -14.8081
  12   2.0000      -0.536968       -14.6116
  13   2.0000      -0.408065       -11.1040
  14   2.0000      -0.395764       -10.7693
  15   0.0000       0.133244         3.6257
  16   0.0000       0.303139         8.2488
  17   0.0000       0.542572        14.7641
  18   0.0000       0.620441        16.8831
  19   0.0000       0.673134        18.3169

MULLIKEN ATOMIC CHARGES
-----------------------
   0 C :    0.174078
   1 O :   -0.359563
   2 C :   -0.198144
   3 C :   -0.201489
   4 H :    0.131964
   5 H :    0.140903
   6 H :    0.163020
   7 H :    0.149231
Sum of atomic charges:   -0.0000000

LOEWDIN ATOMIC CHARGES
----------------------
   0 C :    0.155176
   1 O :   -0.266809
   2 C :   -0.147218
   3 C :   -0.101016
   4 H :    0.070084
   5 H :    0.082058
   6 H :    0.104417
   7 H :    0.103308

  Mayer bond orders larger than 0.100000
B(  0-C ,  1-O ) :   1.9110 B(  0-C ,  2-C ) :   1.0178 B(  0-C ,  4-H ) :   0.9243
B(  2-C ,  3-C ) :   1.9435 B(  2-C ,  5-H ) :   0.9650 B(  3-C ,  6-H ) :   0.9593
B(  3-C ,  7-H ) :   0.9617

-----------------------------------------------------------------------------
         ABSORPTION SPECTRUM VIA TRANSITION ELECTRIC DIPOLE MOMENTS
-----------------------------------------------------------------------------
State   Energy    Wavelength  fosc         T2        TX        TY        TZ
        (cm-1)      (nm)                 (au**2)    (au)      (au)      (au)
-----------------------------------------------------------------------------
   1   32780.5    305.1   0.000007964   0.00008  -0.00024  -0.00125  -0.00885

Dispersion correction           -0.026097627
FINAL SINGLE POINT ENERGY      -189.333405737734

DIPOLE MOMENT
-------------
                                X             Y             Z
Electronic contribution:     -1.86512      -1.71668       0.13679
Nuclear contribution   :      2.22042       2.64275      -0.20503
                        -----------------------------------------
Total Dipole Moment    :      0.35531       0.92607      -0.06824
                        -----------------------------------------
Magnitude (a.u.)       :      0.99423
Magnitude (Debye)      :      2.52714

Rotational constants in cm-1:     0.742995     0.215593     0.167273
Rotational constants in MHz : 22274.421510  6463.309263  5014.733098

                             ****ORCA TERMINATED NORMALLY****
TOTAL RUN TIME: 0 days 0 hours 0 minutes 11 seconds 467 msec
