                         Program Version 5.0.3 -  RELEASE  -
|  1> ! B3LYP cc-pVDZ
|  2> !TightSCF
|  3> %scf
|  4>  ConvForced true
|  5>  convergence tight
|  6>  MaxIter 500
|  7> end
|  8>
|  9> %tddft
| 10>  nroots 1
| 11> end
| 12>
| 13> # 	8719
| 14> * xyz 0 1
| 15> 		C   -1.152190  -0.309493   0.121890
| 16> 		O   -2.219524  -0.193776   0.631217
| 17> 		C    0.075301   0.311616   0.455317
| 18> 		C    1.148759   0.172308  -0.341571
| 19> 		H   -1.151271  -1.048155  -0.740159
| 20> 		H    0.069963   1.058014   1.203469
| 21> 		H    1.146615  -0.644724  -1.245540
| 22> 		H    2.121400   0.732524  -0.161440
| 23> *
| 24>
| 25>                          ****END OF INPUT****

CARTESIAN COORDINATES (ANGSTROEM)
---------------------------------
  C     -1.152190   -0.309493    0.121890
  O     -2.219524   -0.193776    0.631217
  C      0.075301    0.311616    0.455317
  C      1.148759    0.172308   -0.341571
  H     -1.151271   -1.048155   -0.740159
  H      0.069963    1.058014    1.203469
  H      1.146615   -0.644724   -1.245540
  H      2.121400    0.732524   -0.161440

 Total Charge           Charge          ....    0
 Multiplicity           Mult            ....    1
 Number of Electrons    NEL             ....   30
 Basis Dimension        Dim             ....   76

ORBITAL ENERGIES
----------------

  NO   OCC          E(Eh)            E(eV)
   0   2.0000     -19.131118      -520.5842
   1   2.0000     -10.266580      -279.3678
   2   2.0000     -10.239696      -278.6363
   3   2.0000     -10.206689      -277.7381
   4   2.0000      -1.054815       -28.7030
   5   2.0000      -0.811181       -22.0734
   6   2.0000      -0.645799       -17.5731
   7   2.0000      -0.567261       -15.4359
   8   2.0000      -0.475319       -12.9341
   9   2.0000      -0.472907       -12.8685
  10   2.0000      -0.414520       -11.2797
  11   2.0000      -0.406547       -11.0627
  12   2.0000      -0.386643       -10.5211
  13   2.0000      -0.297303        -8.0900
  14   2.0000      -0.248772        -6.7694
  15   0.0000      -0.067950        -1.8490
  16   0.0000       0.056283         1.5315
  17   0.0000       0.062634         1.7044
  18   0.0000       0.071994         1.9591
  19   0.0000       0.117853         3.2069

MULLIKEN ATOMIC CHARGES
-----------------------
   0 C :    0.156649
   1 O :   -0.180462
   2 C :   -0.011112
   3 C :   -0.024408
   4 H :   -0.048778
   5 H :   -0.009929
   6 H :    0.061845
   7 H :    0.056195
Sum of atomic charges:   -0.0000000

LOEWDIN ATOMIC CHARGES
----------------------
   0 C :   -0.072300
   1 O :    0.016327
   2 C :   -0.065145
   3 C :    0.008430
   4 H :   -0.011020
   5 H :    0.028317
   6 H :    0.052447
   7 H :    0.042944

  Mayer bond orders larger than 0.100000
B(  0-C ,  1-O ) :   2.1845 B(  0-C ,  2-C ) :   1.1014 B(  0-C ,  4-H ) :   0.9225
B(  1-O ,  3-C ) :   0.1054 B(  2-C ,  3-C ) :   1.9045 B(  2-C ,  5-H ) :   0.9408
B(  3-C ,  6-H ) :   0.9327 B(  3-C ,  7-H ) :   0.9368

-----------------------------------------------------------------------------
         ABSORPTION SPECTRUM VIA TRANSITION ELECTRIC DIPOLE MOMENTS
-----------------------------------------------------------------------------
State   Energy    Wavelength  fosc         T2        TX        TY        TZ
        (cm-1)      (nm)                 (au**2)    (au)      (au)      (au)
-----------------------------------------------------------------------------
   1   27442.1    364.4   0.000272486   0.00327   0.03418   0.04142  -0.01962

FINAL SINGLE POINT ENERGY      -191.670515638222

DIPOLE MOMENT
-------------
                                X             Y             Z
Electronic contribution:     -3.04572      -0.03199       1.34321
Nuclear contribution   :      4.19884       0.14969      -1.68090
                        -----------------------------------------
Total Dipole Moment    :      1.15312       0.11769      -0.33769
                        -----------------------------------------
Magnitude (a.u.)       :      1.20730
Magnitude (Debye)      :      3.06871

Rotational constants in cm-1:     1.613729     0.157976     0.144150
Rotational constants in MHz : 48378.382823  4736.008270  4321.516463

                             ****ORCA TERMINATED NORMALLY****
TOTAL RUN TIME: 0 days 0 hours 3 minutes 20 seconds 962 msec
