                         Program Version 5.0.3 -  RELEASE  -
|  1> ! B3LYP cc-pVDZ
|  2> !TightSCF
|  3> %scf
|  4>  ConvForced true
|  5>  convergence tight
|  6>  MaxIter 500
|  7> end
|  8>
|  9> %tddft
| 10>  nroots 1
| 11> end
| 12>
| 13> # 	258
| 14> * xyz 0 1
| 15> 		C   -1.212061  -0.452377  -0.065675
| 16> 		O   -2.175928  -0.600168  -0.794327
| 17> 		C   -0.089499   0.384135  -0.331833
| 18> 		C    1.105349   0.134728   0.255212
| 19> 		H   -1.009138  -0.926340   0.918096
| 20> 		H   -0.034106   1.290710  -1.092563
| 21> 		H    1.193404  -0.647092   1.039498
| 22> 		H    2.159601   0.748448   0.088186
| 23> *
| 24>
| 25>                          ****END OF INPUT****

CARTESIAN COORDINATES (ANGSTROEM)
---------------------------------
  C     -1.212061   -0.452377   -0.065675
  O     -2.175928   -0.600168   -0.794327
  C     -0.089499    0.384135   -0.331833
  C      1.105349    0.134728    0.255212
  H     -1.009138   -0.926340    0.918096
  H     -0.034106    1.290710   -1.092563
  H      1.193404   -0.647092    1.039498
  H      2.159601    0.748448    0.088186

 Total Charge           Charge          ....    0
 Multiplicity           Mult            ....    1
 Number of Electrons    NEL             ....   30
 Basis Dimension        Dim             ....   76

ORBITAL ENERGIES
----------------

  NO   OCC          E(Eh)            E(eV)
   0   2.0000     -19.141254      -520.8600
   1   2.0000     -10.277329      -279.6604
   2   2.0000     -10.236427      -278.5473
   3   2.0000     -10.216429      -278.0032
   4   2.0000      -1.043865       -28.4050
   5   2.0000      -0.807965       -21.9858
   6   2.0000      -0.649496       -17.6737
   7   2.0000      -0.563596       -15.3362
   8   2.0000      -0.476114       -12.9557
   9   2.0000      -0.461864       -12.5680
  10   2.0000      -0.421107       -11.4589
  11   2.0000      -0.395461       -10.7610
  12   2.0000      -0.372232       -10.1290
  13   2.0000      -0.293023        -7.9736
  14   2.0000      -0.259646        -7.0653
  15   0.0000      -0.070845        -1.9278
  16   0.0000       0.036004         0.9797
  17   0.0000       0.057549         1.5660
  18   0.0000       0.069744         1.8978
  19   0.0000       0.122127         3.3232

MULLIKEN ATOMIC CHARGES
-----------------------
   0 C :    0.210788
   1 O :   -0.196785
   2 C :   -0.081016
   3 C :   -0.046031
   4 H :   -0.024573
   5 H :    0.030348
   6 H :    0.036089
   7 H :    0.071179
Sum of atomic charges:   -0.0000000

LOEWDIN ATOMIC CHARGES
----------------------
   0 C :   -0.052567
   1 O :   -0.000220
   2 C :   -0.072961
   3 C :   -0.008446
   4 H :   -0.002270
   5 H :    0.051996
   6 H :    0.026364
   7 H :    0.058104

  Mayer bond orders larger than 0.100000
B(  0-C ,  1-O ) :   2.1648 B(  0-C ,  2-C ) :   1.0797 B(  0-C ,  4-H ) :   0.9100
B(  1-O ,  3-C ) :   0.1043 B(  2-C ,  3-C ) :   1.9000 B(  2-C ,  5-H ) :   0.9399
B(  3-C ,  6-H ) :   0.9399 B(  3-C ,  7-H ) :   0.9436

-----------------------------------------------------------------------------
         ABSORPTION SPECTRUM VIA TRANSITION ELECTRIC DIPOLE MOMENTS
-----------------------------------------------------------------------------
State   Energy    Wavelength  fosc         T2        TX        TY        TZ
        (cm-1)      (nm)                 (au**2)    (au)      (au)      (au)
-----------------------------------------------------------------------------
   1   28671.3    348.8   0.000060904   0.00070   0.02380  -0.00196  -0.01135

FINAL SINGLE POINT ENERGY      -191.657652913207

DIPOLE MOMENT
-------------
                                X             Y             Z
Electronic contribution:     -3.40598      -0.71377      -1.26678
Nuclear contribution   :      4.47610       0.98811       1.78683
                        -----------------------------------------
Total Dipole Moment    :      1.07012       0.27433       0.52005
                        -----------------------------------------
Magnitude (a.u.)       :      1.22101
Magnitude (Debye)      :      3.10356

Rotational constants in cm-1:     1.502050     0.156096     0.143484
Rotational constants in MHz : 45030.335079  4679.646692  4301.528419

                             ****ORCA TERMINATED NORMALLY****
TOTAL RUN TIME: 0 days 0 hours 3 minutes 23 seconds 384 msec
