                         Program Version 5.0.3 -  RELEASE  -
|  1> ! B3LYP cc-pVDZ
|  2> !TightSCF
|  3> %scf
|  4>  ConvForced true
|  5>  convergence tight
|  6>  MaxIter 500
|  7> end
|  8>
|  9> %tddft
| 10>  nroots 1
| 11> end
| 12>
| 13> # 	28845
| 14> * xyz 0 1
| 15> 		C   -0.589304  -0.480532   0.058197
| 16> 		O   -0.592927  -1.669240  -0.023859
| 17> 		C    0.615889   0.510012  -0.103614
| 18> 		C    1.875214  -0.086533   0.043813
| 19> 		H   -1.559751   0.074450   0.232609
| 20> 		H    0.401004   1.463499   0.068852
| 21> 		H    1.893977  -1.382953  -0.048611
| 22> 		H    2.959903   0.244556   0.152669
| 23> *
| 24>
| 25>                          ****END OF INPUT****

CARTESIAN COORDINATES (ANGSTROEM)
---------------------------------
  C     -0.589304   -0.480532    0.058197
  O     -0.592927   -1.669240   -0.023859
  C      0.615889    0.510012   -0.103614
  C      1.875214   -0.086533    0.043813
  H     -1.559751    0.074450    0.232609
  H      0.401004    1.463499    0.068852
  H      1.893977   -1.382953   -0.048611
  H      2.959903    0.244556    0.152669

 Total Charge           Charge          ....    0
 Multiplicity           Mult            ....    1
 Number of Electrons    NEL             ....   30
 Basis Dimension        Dim             ....   76

ORBITAL ENERGIES
----------------

  NO   OCC          E(Eh)            E(eV)
   0   2.0000     -19.143937      -520.9330
   1   2.0000     -10.282366      -279.7974
   2   2.0000     -10.242603      -278.7154
   3   2.0000     -10.212217      -277.8885
   4   2.0000      -1.058824       -28.8121
   5   2.0000      -0.776001       -21.1161
   6   2.0000      -0.638229       -17.3671
   7   2.0000      -0.548579       -14.9276
   8   2.0000      -0.499526       -13.5928
   9   2.0000      -0.442679       -12.0459
  10   2.0000      -0.431515       -11.7421
  11   2.0000      -0.401687       -10.9305
  12   2.0000      -0.353943        -9.6313
  13   2.0000      -0.282573        -7.6892
  14   2.0000      -0.257019        -6.9938
  15   0.0000      -0.068691        -1.8692
  16   0.0000       0.037763         1.0276
  17   0.0000       0.060007         1.6329
  18   0.0000       0.074281         2.0213
  19   0.0000       0.115584         3.1452

MULLIKEN ATOMIC CHARGES
-----------------------
   0 C :    0.164162
   1 O :   -0.168505
   2 C :   -0.034681
   3 C :   -0.048170
   4 H :   -0.014110
   5 H :   -0.031995
   6 H :    0.073217
   7 H :    0.060082
Sum of atomic charges:   -0.0000000

LOEWDIN ATOMIC CHARGES
----------------------
   0 C :   -0.032336
   1 O :    0.016812
   2 C :   -0.072535
   3 C :    0.005191
   4 H :   -0.006974
   5 H :   -0.004898
   6 H :    0.058537
   7 H :    0.036203

  Mayer bond orders larger than 0.100000
B(  0-C ,  1-O ) :   2.2117 B(  0-C ,  2-C ) :   1.0065 B(  0-C ,  4-H ) :   0.9074
B(  2-C ,  3-C ) :   1.8982 B(  2-C ,  5-H ) :   0.9578 B(  3-C ,  6-H ) :   0.9278
B(  3-C ,  7-H ) :   0.9555

-----------------------------------------------------------------------------
         ABSORPTION SPECTRUM VIA TRANSITION ELECTRIC DIPOLE MOMENTS
-----------------------------------------------------------------------------
State   Energy    Wavelength  fosc         T2        TX        TY        TZ
        (cm-1)      (nm)                 (au**2)    (au)      (au)      (au)
-----------------------------------------------------------------------------
   1   29292.7    341.4   0.001315129   0.01478  -0.11928  -0.02310  -0.00430

FINAL SINGLE POINT ENERGY      -191.631844641629

DIPOLE MOMENT
-------------
                                X             Y             Z
Electronic contribution:     -1.92469      -1.33474      -0.25344
Nuclear contribution   :      2.31008       2.16380       0.37957
                        -----------------------------------------
Total Dipole Moment    :      0.38539       0.82906       0.12613
                        -----------------------------------------
Magnitude (a.u.)       :      0.92292
Magnitude (Debye)      :      2.34588

Rotational constants in cm-1:     0.705126     0.198704     0.155839
Rotational constants in MHz : 21139.156393  5957.010022  4671.945939

                             ****ORCA TERMINATED NORMALLY****
TOTAL RUN TIME: 0 days 0 hours 3 minutes 19 seconds 228 msec
