                         Program Version 5.0.3 -  RELEASE  -
|  1> ! HF-3c
|  2> !TightSCF
|  3> %scf
|  4>  ConvForced true
|  5>  convergence tight
|  6>  MaxIter 500
|  7> end
|  8>
|  9> %tddft
| 10>  nroots 1
| 11> end
| 12>
| 13> # 	14995
| 14> * xyz 0 1
| 15> 		C   -1.186550  -0.336904   0.026977
| 16> 		O   -2.108870  -0.469443   0.750800
| 17> 		C    0.060578   0.399353   0.347602
| 18> 		C    1.202745   0.080435  -0.169736
| 19> 		H   -1.265471  -0.845179  -0.996273
| 20> 		H   -0.101052   1.219281   1.078211
| 21> 		H    1.328275  -0.688572  -1.040014
| 22> 		H    2.092367   0.663312   0.028589
| 23> *
| 24>
| 25>                          ****END OF INPUT****

CARTESIAN COORDINATES (ANGSTROEM)
---------------------------------
  C     -1.186550   -0.336904    0.026977
  O     -2.108870   -0.469443    0.750800
  C      0.060578    0.399353    0.347602
  C      1.202745    0.080435   -0.169736
  H     -1.265471   -0.845179   -0.996273
  H     -0.101052    1.219281    1.078211
  H      1.328275   -0.688572   -1.040014
  H      2.092367    0.663312    0.028589

 Total Charge           Charge          ....    0
 Multiplicity           Mult            ....    1
 Number of Electrons    NEL             ....   30
 Basis Dimension        Dim             ....   24

ORBITAL ENERGIES
----------------

  NO   OCC          E(Eh)            E(eV)
   0   2.0000     -20.373386      -554.3880
   1   2.0000     -11.300401      -307.4995
   2   2.0000     -11.194729      -304.6241
   3   2.0000     -11.192612      -304.5664
   4   2.0000      -1.424790       -38.7705
   5   2.0000      -1.091475       -29.7006
   6   2.0000      -0.871934       -23.7265
   7   2.0000      -0.767838       -20.8939
   8   2.0000      -0.665997       -18.1227
   9   2.0000      -0.654499       -17.8098
  10   2.0000      -0.592012       -16.1095
  11   2.0000      -0.546639       -14.8748
  12   2.0000      -0.528493       -14.3810
  13   2.0000      -0.412537       -11.2257
  14   2.0000      -0.402819       -10.9613
  15   0.0000       0.151473         4.1218
  16   0.0000       0.304322         8.2810
  17   0.0000       0.513315        13.9680
  18   0.0000       0.576682        15.6923
  19   0.0000       0.633664        17.2429

MULLIKEN ATOMIC CHARGES
-----------------------
   0 C :    0.181150
   1 O :   -0.357631
   2 C :   -0.175624
   3 C :   -0.227037
   4 H :    0.129470
   5 H :    0.158741
   6 H :    0.146318
   7 H :    0.144613
Sum of atomic charges:   -0.0000000

LOEWDIN ATOMIC CHARGES
----------------------
   0 C :    0.149197
   1 O :   -0.251856
   2 C :   -0.130188
   3 C :   -0.136147
   4 H :    0.068880
   5 H :    0.105357
   6 H :    0.101530
   7 H :    0.093228

  Mayer bond orders larger than 0.100000
B(  0-C ,  1-O ) :   1.9236 B(  0-C ,  2-C ) :   1.0031 B(  0-C ,  4-H ) :   0.9171
B(  2-C ,  3-C ) :   1.9752 B(  2-C ,  5-H ) :   0.9485 B(  3-C ,  6-H ) :   0.9579
B(  3-C ,  7-H ) :   0.9616

-----------------------------------------------------------------------------
         ABSORPTION SPECTRUM VIA TRANSITION ELECTRIC DIPOLE MOMENTS
-----------------------------------------------------------------------------
State   Energy    Wavelength  fosc         T2        TX        TY        TZ
        (cm-1)      (nm)                 (au**2)    (au)      (au)      (au)
-----------------------------------------------------------------------------
   1   34810.4    287.3   0.000015578   0.00015  -0.00211   0.01044   0.00582

Dispersion correction           -0.025329118
FINAL SINGLE POINT ENERGY      -189.326127845047

DIPOLE MOMENT
-------------
                                X             Y             Z
Electronic contribution:     -3.02214      -0.51939       1.15998
Nuclear contribution   :      3.96214       0.68609      -1.77050
                        -----------------------------------------
Total Dipole Moment    :      0.94000       0.16670      -0.61052
                        -----------------------------------------
Magnitude (a.u.)       :      1.13320
Magnitude (Debye)      :      2.88035

Rotational constants in cm-1:     1.479323     0.158187     0.145908
Rotational constants in MHz : 44348.975049  4742.320092  4374.205903

                             ****ORCA TERMINATED NORMALLY****
TOTAL RUN TIME: 0 days 0 hours 0 minutes 8 seconds 609 msec
