                         Program Version 5.0.3 -  RELEASE  -
|  1> ! HF-3c
|  2> !TightSCF
|  3> %scf
|  4>  ConvForced true
|  5>  convergence tight
|  6>  MaxIter 500
|  7> end
|  8>
|  9> %tddft
| 10>  nroots 1
| 11> end
| 12>
| 13> # 	14106
| 14> * xyz 0 1
| 15> 		C   -1.149319  -0.336427  -0.022519
| 16> 		O   -1.441263  -1.260840   0.753657
| 17> 		C   -0.038681   0.565851   0.174628
| 18> 		C    1.196106  -0.036354  -0.168879
| 19> 		H   -1.811423  -0.051847  -0.932569
| 20> 		H   -0.094524   1.485443   0.831399
| 21> 		H    1.241904  -1.063805  -0.612831
| 22> 		H    2.134685   0.651805  -0.034578
| 23> *
| 24>
| 25>                          ****END OF INPUT****

CARTESIAN COORDINATES (ANGSTROEM)
---------------------------------
  C     -1.149319   -0.336427   -0.022519
  O     -1.441263   -1.260840    0.753657
  C     -0.038681    0.565851    0.174628
  C      1.196106   -0.036354   -0.168879
  H     -1.811423   -0.051847   -0.932569
  H     -0.094524    1.485443    0.831399
  H      1.241904   -1.063805   -0.612831
  H      2.134685    0.651805   -0.034578

 Total Charge           Charge          ....    0
 Multiplicity           Mult            ....    1
 Number of Electrons    NEL             ....   30
 Basis Dimension        Dim             ....   24

ORBITAL ENERGIES
----------------

  NO   OCC          E(Eh)            E(eV)
   0   2.0000     -20.358479      -553.9824
   1   2.0000     -11.286575      -307.1233
   2   2.0000     -11.175905      -304.1118
   3   2.0000     -11.172504      -304.0193
   4   2.0000      -1.377771       -37.4911
   5   2.0000      -1.057424       -28.7740
   6   2.0000      -0.866046       -23.5663
   7   2.0000      -0.740659       -20.1544
   8   2.0000      -0.668237       -18.1836
   9   2.0000      -0.603968       -16.4348
  10   2.0000      -0.583599       -15.8805
  11   2.0000      -0.541284       -14.7291
  12   2.0000      -0.476654       -12.9704
  13   2.0000      -0.405878       -11.0445
  14   2.0000      -0.370282       -10.0759
  15   0.0000       0.179867         4.8944
  16   0.0000       0.191168         5.2019
  17   0.0000       0.568415        15.4674
  18   0.0000       0.573120        15.5954
  19   0.0000       0.588349        16.0098

MULLIKEN ATOMIC CHARGES
-----------------------
   0 C :    0.161361
   1 O :   -0.343759
   2 C :   -0.180476
   3 C :   -0.212634
   4 H :    0.134459
   5 H :    0.159044
   6 H :    0.142811
   7 H :    0.139193
Sum of atomic charges:   -0.0000000

LOEWDIN ATOMIC CHARGES
----------------------
   0 C :    0.150402
   1 O :   -0.259567
   2 C :   -0.141385
   3 C :   -0.128073
   4 H :    0.076580
   5 H :    0.110374
   6 H :    0.095485
   7 H :    0.096185

  Mayer bond orders larger than 0.100000
B(  0-C ,  1-O ) :   1.9328 B(  0-C ,  2-C ) :   1.0162 B(  0-C ,  4-H ) :   0.9131
B(  2-C ,  3-C ) :   1.9634 B(  2-C ,  5-H ) :   0.9476 B(  3-C ,  6-H ) :   0.9656
B(  3-C ,  7-H ) :   0.9637

-----------------------------------------------------------------------------
         ABSORPTION SPECTRUM VIA TRANSITION ELECTRIC DIPOLE MOMENTS
-----------------------------------------------------------------------------
State   Energy    Wavelength  fosc         T2        TX        TY        TZ
        (cm-1)      (nm)                 (au**2)    (au)      (au)      (au)
-----------------------------------------------------------------------------
   1   32806.3    304.8   0.000090364   0.00091   0.01782  -0.00937   0.02240

Dispersion correction           -0.025105418
FINAL SINGLE POINT ENERGY      -189.300624258665

DIPOLE MOMENT
-------------
                                X             Y             Z
Electronic contribution:     -2.33282      -1.32545       0.88063
Nuclear contribution   :      2.80179       2.07032      -1.43719
                        -----------------------------------------
Total Dipole Moment    :      0.46898       0.74488      -0.55656
                        -----------------------------------------
Magnitude (a.u.)       :      1.04141
Magnitude (Debye)      :      2.64706

Rotational constants in cm-1:     0.780507     0.186095     0.167225
Rotational constants in MHz : 23399.003794  5578.973529  5013.278377

                             ****ORCA TERMINATED NORMALLY****
TOTAL RUN TIME: 0 days 0 hours 0 minutes 9 seconds 873 msec
