                         Program Version 5.0.3 -  RELEASE  -
|  1> ! B3LYP cc-pVDZ
|  2> !TightSCF
|  3> %scf
|  4>  ConvForced true
|  5>  convergence tight
|  6>  MaxIter 500
|  7> end
|  8>
|  9> %tddft
| 10>  nroots 1
| 11> end
| 12>
| 13> # 	3995
| 14> * xyz 0 1
| 15> 		C   -1.127645  -0.347843   0.045375
| 16> 		O   -2.017995  -0.545573   0.880938
| 17> 		C    0.081649   0.423486   0.284958
| 18> 		C    1.231284   0.099438  -0.208890
| 19> 		H   -1.274848  -0.829751  -1.040466
| 20> 		H   -0.177014   1.212442   0.981119
| 21> 		H    1.266111  -0.748924  -0.928347
| 22> 		H    1.974787   0.730796  -0.031441
| 23> *
| 24>
| 25>                          ****END OF INPUT****

CARTESIAN COORDINATES (ANGSTROEM)
---------------------------------
  C     -1.127645   -0.347843    0.045375
  O     -2.017995   -0.545573    0.880938
  C      0.081649    0.423486    0.284958
  C      1.231284    0.099438   -0.208890
  H     -1.274848   -0.829751   -1.040466
  H     -0.177014    1.212442    0.981119
  H      1.266111   -0.748924   -0.928347
  H      1.974787    0.730796   -0.031441

 Total Charge           Charge          ....    0
 Multiplicity           Mult            ....    1
 Number of Electrons    NEL             ....   30
 Basis Dimension        Dim             ....   76

ORBITAL ENERGIES
----------------

  NO   OCC          E(Eh)            E(eV)
   0   2.0000     -19.141210      -520.8588
   1   2.0000     -10.280755      -279.7536
   2   2.0000     -10.206430      -277.7311
   3   2.0000     -10.204057      -277.6665
   4   2.0000      -1.033745       -28.1296
   5   2.0000      -0.819350       -22.2957
   6   2.0000      -0.659773       -17.9533
   7   2.0000      -0.559711       -15.2305
   8   2.0000      -0.492175       -13.3928
   9   2.0000      -0.470022       -12.7899
  10   2.0000      -0.426484       -11.6052
  11   2.0000      -0.397851       -10.8261
  12   2.0000      -0.377256       -10.2657
  13   2.0000      -0.300849        -8.1865
  14   2.0000      -0.254424        -6.9232
  15   0.0000      -0.063676        -1.7327
  16   0.0000       0.035516         0.9664
  17   0.0000       0.073698         2.0054
  18   0.0000       0.090928         2.4743
  19   0.0000       0.108403         2.9498

MULLIKEN ATOMIC CHARGES
-----------------------
   0 C :    0.122303
   1 O :   -0.209149
   2 C :   -0.071422
   3 C :    0.149361
   4 H :   -0.013333
   5 H :   -0.000664
   6 H :    0.027348
   7 H :   -0.004445
Sum of atomic charges:   -0.0000000

LOEWDIN ATOMIC CHARGES
----------------------
   0 C :   -0.021837
   1 O :   -0.024321
   2 C :   -0.056442
   3 C :    0.015719
   4 H :   -0.002122
   5 H :    0.036694
   6 H :    0.042741
   7 H :    0.009569

  Mayer bond orders larger than 0.100000
B(  0-C ,  1-O ) :   2.1500 B(  0-C ,  2-C ) :   1.0648 B(  0-C ,  4-H ) :   0.9046
B(  2-C ,  3-C ) :   1.9773 B(  2-C ,  5-H ) :   0.9408 B(  3-C ,  6-H ) :   0.9307
B(  3-C ,  7-H ) :   0.9215

-----------------------------------------------------------------------------
         ABSORPTION SPECTRUM VIA TRANSITION ELECTRIC DIPOLE MOMENTS
-----------------------------------------------------------------------------
State   Energy    Wavelength  fosc         T2        TX        TY        TZ
        (cm-1)      (nm)                 (au**2)    (au)      (au)      (au)
-----------------------------------------------------------------------------
   1   28619.2    349.4   0.000584294   0.00672   0.07868  -0.02047  -0.01060

FINAL SINGLE POINT ENERGY      -191.657157186178

DIPOLE MOMENT
-------------
                                X             Y             Z
Electronic contribution:     -2.60869      -0.43757       1.38170
Nuclear contribution   :      3.54746       0.75451      -1.91921
                        -----------------------------------------
Total Dipole Moment    :      0.93877       0.31694      -0.53751
                        -----------------------------------------
Magnitude (a.u.)       :      1.12723
Magnitude (Debye)      :      2.86519

Rotational constants in cm-1:     1.428627     0.158880     0.148093
Rotational constants in MHz : 42829.150080  4763.104147  4439.722601

                             ****ORCA TERMINATED NORMALLY****
TOTAL RUN TIME: 0 days 0 hours 3 minutes 26 seconds 382 msec
