                         Program Version 5.0.3 -  RELEASE  -
|  1> ! HF-3c
|  2> !TightSCF
|  3> %scf
|  4>  ConvForced true
|  5>  convergence tight
|  6>  MaxIter 500
|  7> end
|  8>
|  9> %tddft
| 10>  nroots 1
| 11> end
| 12>
| 13> # 	28265
| 14> * xyz 0 1
| 15> 		C   -0.558096  -0.443694  -0.027488
| 16> 		O   -0.539678  -1.603932   0.003560
| 17> 		C    0.634929   0.448639   0.003290
| 18> 		C    1.782803  -0.185868  -0.014851
| 19> 		H   -1.526999   0.238664   0.142749
| 20> 		H    0.373241   1.538252   0.094167
| 21> 		H    1.768472  -1.346099   0.213656
| 22> 		H    2.752094   0.451205  -0.045165
| 23> *
| 24>
| 25>                          ****END OF INPUT****

CARTESIAN COORDINATES (ANGSTROEM)
---------------------------------
  C     -0.558096   -0.443694   -0.027488
  O     -0.539678   -1.603932    0.003560
  C      0.634929    0.448639    0.003290
  C      1.782803   -0.185868   -0.014851
  H     -1.526999    0.238664    0.142749
  H      0.373241    1.538252    0.094167
  H      1.768472   -1.346099    0.213656
  H      2.752094    0.451205   -0.045165

 Total Charge           Charge          ....    0
 Multiplicity           Mult            ....    1
 Number of Electrons    NEL             ....   30
 Basis Dimension        Dim             ....   24

ORBITAL ENERGIES
----------------

  NO   OCC          E(Eh)            E(eV)
   0   2.0000     -20.373435      -554.3894
   1   2.0000     -11.297336      -307.4162
   2   2.0000     -11.182713      -304.2971
   3   2.0000     -11.172036      -304.0065
   4   2.0000      -1.436036       -39.0765
   5   2.0000      -1.075725       -29.2720
   6   2.0000      -0.867031       -23.5931
   7   2.0000      -0.709806       -19.3148
   8   2.0000      -0.697895       -18.9907
   9   2.0000      -0.613395       -16.6913
  10   2.0000      -0.580575       -15.7983
  11   2.0000      -0.561338       -15.2748
  12   2.0000      -0.517710       -14.0876
  13   2.0000      -0.398851       -10.8533
  14   2.0000      -0.385460       -10.4889
  15   0.0000       0.150447         4.0939
  16   0.0000       0.322909         8.7868
  17   0.0000       0.505486        13.7550
  18   0.0000       0.548179        14.9167
  19   0.0000       0.613565        16.6960

MULLIKEN ATOMIC CHARGES
-----------------------
   0 C :    0.202574
   1 O :   -0.379333
   2 C :   -0.192886
   3 C :   -0.204751
   4 H :    0.116815
   5 H :    0.142360
   6 H :    0.171983
   7 H :    0.143239
Sum of atomic charges:   -0.0000000

LOEWDIN ATOMIC CHARGES
----------------------
   0 C :    0.160332
   1 O :   -0.265522
   2 C :   -0.155475
   3 C :   -0.116325
   4 H :    0.060769
   5 H :    0.094042
   6 H :    0.123802
   7 H :    0.098377

  Mayer bond orders larger than 0.100000
B(  0-C ,  1-O ) :   1.9200 B(  0-C ,  2-C ) :   0.9991 B(  0-C ,  4-H ) :   0.9058
B(  2-C ,  3-C ) :   1.9547 B(  2-C ,  5-H ) :   0.9591 B(  3-C ,  6-H ) :   0.9454
B(  3-C ,  7-H ) :   0.9603

-----------------------------------------------------------------------------
         ABSORPTION SPECTRUM VIA TRANSITION ELECTRIC DIPOLE MOMENTS
-----------------------------------------------------------------------------
State   Energy    Wavelength  fosc         T2        TX        TY        TZ
        (cm-1)      (nm)                 (au**2)    (au)      (au)      (au)
-----------------------------------------------------------------------------
   1   35870.1    278.8   0.000222391   0.00204   0.03940  -0.00482  -0.02158

Dispersion correction           -0.026246550
FINAL SINGLE POINT ENERGY      -189.299227866406

DIPOLE MOMENT
-------------
                                X             Y             Z
Electronic contribution:     -1.67976      -1.72205      -0.30452
Nuclear contribution   :      2.00186       2.61449       0.38063
                        -----------------------------------------
Total Dipole Moment    :      0.32210       0.89245       0.07611
                        -----------------------------------------
Magnitude (a.u.)       :      0.95184
Magnitude (Debye)      :      2.41939

Rotational constants in cm-1:     0.737193     0.225746     0.173141
Rotational constants in MHz : 22100.484751  6767.702478  5190.647276

                             ****ORCA TERMINATED NORMALLY****
TOTAL RUN TIME: 0 days 0 hours 0 minutes 11 seconds 226 msec
