                         Program Version 5.0.3 -  RELEASE  -
|  1> ! B3LYP cc-pVDZ
|  2> !TightSCF
|  3> %scf
|  4>  ConvForced true
|  5>  convergence tight
|  6>  MaxIter 500
|  7> end
|  8>
|  9> %tddft
| 10>  nroots 1
| 11> end
| 12>
| 13> # 	29043
| 14> * xyz 0 1
| 15> 		C   -0.616686  -0.408379   0.022458
| 16> 		O   -0.546285  -1.619277  -0.008055
| 17> 		C    0.596159   0.419201  -0.015237
| 18> 		C    1.867868  -0.174282   0.014942
| 19> 		H   -1.535477   0.032309  -0.136618
| 20> 		H    0.476313   1.651896   0.133225
| 21> 		H    2.125742  -1.178129   0.083007
| 22> 		H    2.551932   0.427213  -0.221461
| 23> *
| 24>
| 25>                          ****END OF INPUT****

CARTESIAN COORDINATES (ANGSTROEM)
---------------------------------
  C     -0.616686   -0.408379    0.022458
  O     -0.546285   -1.619277   -0.008055
  C      0.596159    0.419201   -0.015237
  C      1.867868   -0.174282    0.014942
  H     -1.535477    0.032309   -0.136618
  H      0.476313    1.651896    0.133225
  H      2.125742   -1.178129    0.083007
  H      2.551932    0.427213   -0.221461

 Total Charge           Charge          ....    0
 Multiplicity           Mult            ....    1
 Number of Electrons    NEL             ....   30
 Basis Dimension        Dim             ....   76

ORBITAL ENERGIES
----------------

  NO   OCC          E(Eh)            E(eV)
   0   2.0000     -19.131219      -520.5869
   1   2.0000     -10.263771      -279.2914
   2   2.0000     -10.223307      -278.1903
   3   2.0000     -10.203775      -277.6588
   4   2.0000      -1.041492       -28.3404
   5   2.0000      -0.784278       -21.3413
   6   2.0000      -0.672043       -18.2872
   7   2.0000      -0.558736       -15.2040
   8   2.0000      -0.502095       -13.6627
   9   2.0000      -0.444331       -12.0909
  10   2.0000      -0.423031       -11.5113
  11   2.0000      -0.399649       -10.8750
  12   2.0000      -0.381213       -10.3733
  13   2.0000      -0.275000        -7.4831
  14   2.0000      -0.252421        -6.8687
  15   0.0000      -0.079091        -2.1522
  16   0.0000       0.045045         1.2257
  17   0.0000       0.064216         1.7474
  18   0.0000       0.104231         2.8363
  19   0.0000       0.119810         3.2602

MULLIKEN ATOMIC CHARGES
-----------------------
   0 C :    0.241360
   1 O :   -0.202245
   2 C :   -0.231466
   3 C :    0.195773
   4 H :   -0.038618
   5 H :    0.036651
   6 H :    0.023966
   7 H :   -0.025421
Sum of atomic charges:   -0.0000000

LOEWDIN ATOMIC CHARGES
----------------------
   0 C :   -0.038585
   1 O :   -0.007619
   2 C :   -0.072620
   3 C :    0.074692
   4 H :   -0.015938
   5 H :    0.050506
   6 H :    0.023590
   7 H :   -0.014026

  Mayer bond orders larger than 0.100000
B(  0-C ,  1-O ) :   2.1715 B(  0-C ,  2-C ) :   1.0673 B(  0-C ,  4-H ) :   0.9366
B(  1-O ,  3-C ) :   0.1061 B(  2-C ,  3-C ) :   1.9269 B(  2-C ,  5-H ) :   0.9285
B(  3-C ,  6-H ) :   0.9593 B(  3-C ,  7-H ) :   0.9360

-----------------------------------------------------------------------------
         ABSORPTION SPECTRUM VIA TRANSITION ELECTRIC DIPOLE MOMENTS
-----------------------------------------------------------------------------
State   Energy    Wavelength  fosc         T2        TX        TY        TZ
        (cm-1)      (nm)                 (au**2)    (au)      (au)      (au)
-----------------------------------------------------------------------------
   1   25511.8    392.0   0.000288561   0.00372   0.05156   0.02620   0.01947

FINAL SINGLE POINT ENERGY      -191.641252896077

DIPOLE MOMENT
-------------
                                X             Y             Z
Electronic contribution:     -1.86970      -1.79937       0.13691
Nuclear contribution   :      2.23788       2.66129      -0.13282
                        -----------------------------------------
Total Dipole Moment    :      0.36818       0.86192       0.00409
                        -----------------------------------------
Magnitude (a.u.)       :      0.93727
Magnitude (Debye)      :      2.38236

Rotational constants in cm-1:     0.706272     0.215572     0.165503
Rotational constants in MHz : 21173.501084  6462.689483  4961.668819

                             ****ORCA TERMINATED NORMALLY****
TOTAL RUN TIME: 0 days 0 hours 3 minutes 28 seconds 594 msec
