                         Program Version 5.0.3 -  RELEASE  -
|  1> ! HF-3c
|  2> !TightSCF
|  3> %scf
|  4>  ConvForced true
|  5>  convergence tight
|  6>  MaxIter 500
|  7> end
|  8>
|  9> %tddft
| 10>  nroots 1
| 11> end
| 12>
| 13> # 	15477
| 14> * xyz 0 1
| 15> 		C   -1.105513  -0.320533   0.042638
| 16> 		O   -2.041984  -0.504108   0.835507
| 17> 		C    0.104943   0.341017   0.391059
| 18> 		C    1.245132   0.049318  -0.247703
| 19> 		H   -1.343285  -0.855709  -1.041563
| 20> 		H   -0.124455   1.209845   1.088010
| 21> 		H    1.326052  -0.589106  -1.046073
| 22> 		H    1.943041   0.645974  -0.081457
| 23> *
| 24>
| 25>                          ****END OF INPUT****

CARTESIAN COORDINATES (ANGSTROEM)
---------------------------------
  C     -1.105513   -0.320533    0.042638
  O     -2.041984   -0.504108    0.835507
  C      0.104943    0.341017    0.391059
  C      1.245132    0.049318   -0.247703
  H     -1.343285   -0.855709   -1.041563
  H     -0.124455    1.209845    1.088010
  H      1.326052   -0.589106   -1.046073
  H      1.943041    0.645974   -0.081457

 Total Charge           Charge          ....    0
 Multiplicity           Mult            ....    1
 Number of Electrons    NEL             ....   30
 Basis Dimension        Dim             ....   24

ORBITAL ENERGIES
----------------

  NO   OCC          E(Eh)            E(eV)
   0   2.0000     -20.348028      -553.6980
   1   2.0000     -11.280284      -306.9521
   2   2.0000     -11.211941      -305.0924
   3   2.0000     -11.202849      -304.8450
   4   2.0000      -1.377471       -37.4829
   5   2.0000      -1.105732       -30.0885
   6   2.0000      -0.909247       -24.7419
   7   2.0000      -0.759249       -20.6602
   8   2.0000      -0.675590       -18.3837
   9   2.0000      -0.669163       -18.2089
  10   2.0000      -0.580079       -15.7847
  11   2.0000      -0.561931       -15.2909
  12   2.0000      -0.511777       -13.9261
  13   2.0000      -0.405337       -11.0298
  14   2.0000      -0.398800       -10.8519
  15   0.0000       0.120370         3.2754
  16   0.0000       0.282924         7.6988
  17   0.0000       0.505627        13.7588
  18   0.0000       0.563683        15.3386
  19   0.0000       0.712188        19.3796

MULLIKEN ATOMIC CHARGES
-----------------------
   0 C :    0.154399
   1 O :   -0.349344
   2 C :   -0.143728
   3 C :   -0.273498
   4 H :    0.138860
   5 H :    0.171210
   6 H :    0.155004
   7 H :    0.147097
Sum of atomic charges:    0.0000000

LOEWDIN ATOMIC CHARGES
----------------------
   0 C :    0.131253
   1 O :   -0.264721
   2 C :   -0.093744
   3 C :   -0.160322
   4 H :    0.086363
   5 H :    0.117787
   6 H :    0.098658
   7 H :    0.084726

  Mayer bond orders larger than 0.100000
B(  0-C ,  1-O ) :   1.8922 B(  0-C ,  2-C ) :   1.0519 B(  0-C ,  4-H ) :   0.9174
B(  2-C ,  3-C ) :   1.9417 B(  2-C ,  5-H ) :   0.9459 B(  3-C ,  6-H ) :   0.9642
B(  3-C ,  7-H ) :   0.9681

-----------------------------------------------------------------------------
         ABSORPTION SPECTRUM VIA TRANSITION ELECTRIC DIPOLE MOMENTS
-----------------------------------------------------------------------------
State   Energy    Wavelength  fosc         T2        TX        TY        TZ
        (cm-1)      (nm)                 (au**2)    (au)      (au)      (au)
-----------------------------------------------------------------------------
   1   29563.5    338.3   0.000105759   0.00118   0.00091   0.02693   0.02125

Dispersion correction           -0.025588264
FINAL SINGLE POINT ENERGY      -189.298990255902

DIPOLE MOMENT
-------------
                                X             Y             Z
Electronic contribution:     -2.74672      -0.57297       1.33371
Nuclear contribution   :      3.53577       0.83594      -1.97706
                        -----------------------------------------
Total Dipole Moment    :      0.78905       0.26297      -0.64336
                        -----------------------------------------
Magnitude (a.u.)       :      1.05150
Magnitude (Debye)      :      2.67271

Rotational constants in cm-1:     1.453385     0.159552     0.147063
Rotational constants in MHz : 43571.380881  4783.235574  4408.832834

                             ****ORCA TERMINATED NORMALLY****
TOTAL RUN TIME: 0 days 0 hours 0 minutes 15 seconds 285 msec
