                         Program Version 5.0.3 -  RELEASE  -
|  1> ! HF-3c
|  2> !TightSCF
|  3> %scf
|  4>  ConvForced true
|  5>  convergence tight
|  6>  MaxIter 500
|  7> end
|  8>
|  9> %tddft
| 10>  nroots 1
| 11> end
| 12>
| 13> # 	2873
| 14> * xyz 0 1
| 15> 		C   -1.218797  -0.344986   0.048221
| 16> 		O   -1.875228  -0.904770  -0.772733
| 17> 		C   -0.057868   0.422322  -0.239774
| 18> 		C    1.218851   0.112366   0.122960
| 19> 		H   -1.377226  -0.525714   1.075891
| 20> 		H   -0.185402   1.342544  -1.040937
| 21> 		H    1.267724  -0.792321   0.772237
| 22> 		H    2.164941   0.722101  -0.029854
| 23> *
| 24>
| 25>                          ****END OF INPUT****

CARTESIAN COORDINATES (ANGSTROEM)
---------------------------------
  C     -1.218797   -0.344986    0.048221
  O     -1.875228   -0.904770   -0.772733
  C     -0.057868    0.422322   -0.239774
  C      1.218851    0.112366    0.122960
  H     -1.377226   -0.525714    1.075891
  H     -0.185402    1.342544   -1.040937
  H      1.267724   -0.792321    0.772237
  H      2.164941    0.722101   -0.029854

 Total Charge           Charge          ....    0
 Multiplicity           Mult            ....    1
 Number of Electrons    NEL             ....   30
 Basis Dimension        Dim             ....   24

ORBITAL ENERGIES
----------------

  NO   OCC          E(Eh)            E(eV)
   0   2.0000     -20.381736      -554.6152
   1   2.0000     -11.309660      -307.7515
   2   2.0000     -11.183537      -304.3195
   3   2.0000     -11.179152      -304.2002
   4   2.0000      -1.424827       -38.7715
   5   2.0000      -1.071557       -29.1586
   6   2.0000      -0.890140       -24.2219
   7   2.0000      -0.770137       -20.9565
   8   2.0000      -0.664018       -18.0688
   9   2.0000      -0.640498       -17.4288
  10   2.0000      -0.603074       -16.4105
  11   2.0000      -0.543781       -14.7970
  12   2.0000      -0.493675       -13.4336
  13   2.0000      -0.418700       -11.3934
  14   2.0000      -0.385959       -10.5025
  15   0.0000       0.149201         4.0600
  16   0.0000       0.255567         6.9543
  17   0.0000       0.524906        14.2834
  18   0.0000       0.592322        16.1179
  19   0.0000       0.626161        17.0387

MULLIKEN ATOMIC CHARGES
-----------------------
   0 C :    0.151409
   1 O :   -0.338947
   2 C :   -0.156047
   3 C :   -0.228659
   4 H :    0.139535
   5 H :    0.152014
   6 H :    0.130535
   7 H :    0.150160
Sum of atomic charges:    0.0000000

LOEWDIN ATOMIC CHARGES
----------------------
   0 C :    0.138845
   1 O :   -0.238957
   2 C :   -0.125340
   3 C :   -0.142637
   4 H :    0.070158
   5 H :    0.110049
   6 H :    0.084888
   7 H :    0.102995

  Mayer bond orders larger than 0.100000
B(  0-C ,  1-O ) :   1.9191 B(  0-C ,  2-C ) :   1.0264 B(  0-C ,  4-H ) :   0.9216
B(  2-C ,  3-C ) :   1.9687 B(  2-C ,  5-H ) :   0.9397 B(  3-C ,  6-H ) :   0.9654
B(  3-C ,  7-H ) :   0.9624

-----------------------------------------------------------------------------
         ABSORPTION SPECTRUM VIA TRANSITION ELECTRIC DIPOLE MOMENTS
-----------------------------------------------------------------------------
State   Energy    Wavelength  fosc         T2        TX        TY        TZ
        (cm-1)      (nm)                 (au**2)    (au)      (au)      (au)
-----------------------------------------------------------------------------
   1   33964.4    294.4   0.000095452   0.00093   0.02387   0.00721   0.01741

Dispersion correction           -0.025243480
FINAL SINGLE POINT ENERGY      -189.300708669001

DIPOLE MOMENT
-------------
                                X             Y             Z
Electronic contribution:     -2.93438      -0.96552      -0.98921
Nuclear contribution   :      3.66280       1.45613       1.55135
                        -----------------------------------------
Total Dipole Moment    :      0.72842       0.49061       0.56214
                        -----------------------------------------
Magnitude (a.u.)       :      1.04273
Magnitude (Debye)      :      2.65041

Rotational constants in cm-1:     1.200830     0.160271     0.155602
Rotational constants in MHz : 35999.986408  4804.808143  4664.840264

                             ****ORCA TERMINATED NORMALLY****
TOTAL RUN TIME: 0 days 0 hours 0 minutes 12 seconds 50 msec
