                         Program Version 5.0.3 -  RELEASE  -
|  1> ! B3LYP cc-pVDZ
|  2> !TightSCF
|  3> %scf
|  4>  ConvForced true
|  5>  convergence tight
|  6>  MaxIter 500
|  7> end
|  8>
|  9> %tddft
| 10>  nroots 1
| 11> end
| 12>
| 13> # 	28843
| 14> * xyz 0 1
| 15> 		C   -0.617765  -0.430529   0.037525
| 16> 		O   -0.575998  -1.640873  -0.032870
| 17> 		C    0.664134   0.438518  -0.024034
| 18> 		C    1.856491  -0.129238   0.035315
| 19> 		H   -1.536211  -0.162216   0.153447
| 20> 		H    0.528934   1.537181  -0.148601
| 21> 		H    1.770404  -1.239897   0.153971
| 22> 		H    2.688323   0.554061  -0.243234
| 23> *
| 24>
| 25>                          ****END OF INPUT****

CARTESIAN COORDINATES (ANGSTROEM)
---------------------------------
  C     -0.617765   -0.430529    0.037525
  O     -0.575998   -1.640873   -0.032870
  C      0.664134    0.438518   -0.024034
  C      1.856491   -0.129238    0.035315
  H     -1.536211   -0.162216    0.153447
  H      0.528934    1.537181   -0.148601
  H      1.770404   -1.239897    0.153971
  H      2.688323    0.554061   -0.243234

 Total Charge           Charge          ....    0
 Multiplicity           Mult            ....    1
 Number of Electrons    NEL             ....   30
 Basis Dimension        Dim             ....   76

ORBITAL ENERGIES
----------------

  NO   OCC          E(Eh)            E(eV)
   0   2.0000     -19.135370      -520.6999
   1   2.0000     -10.264496      -279.3111
   2   2.0000     -10.208241      -277.7804
   3   2.0000     -10.205769      -277.7131
   4   2.0000      -1.047548       -28.5052
   5   2.0000      -0.789812       -21.4919
   6   2.0000      -0.649059       -17.6618
   7   2.0000      -0.555928       -15.1276
   8   2.0000      -0.513394       -13.9702
   9   2.0000      -0.436178       -11.8690
  10   2.0000      -0.425747       -11.5852
  11   2.0000      -0.393444       -10.7061
  12   2.0000      -0.376305       -10.2398
  13   2.0000      -0.287259        -7.8167
  14   2.0000      -0.253506        -6.8983
  15   0.0000      -0.062369        -1.6971
  16   0.0000       0.053334         1.4513
  17   0.0000       0.068420         1.8618
  18   0.0000       0.097988         2.6664
  19   0.0000       0.123211         3.3527

MULLIKEN ATOMIC CHARGES
-----------------------
   0 C :    0.259561
   1 O :   -0.205769
   2 C :   -0.145392
   3 C :    0.073975
   4 H :   -0.062873
   5 H :   -0.003796
   6 H :    0.043516
   7 H :    0.040777
Sum of atomic charges:   -0.0000000

LOEWDIN ATOMIC CHARGES
----------------------
   0 C :    0.004960
   1 O :   -0.003925
   2 C :   -0.079632
   3 C :   -0.001306
   4 H :   -0.031949
   5 H :    0.025830
   6 H :    0.042622
   7 H :    0.043400

  Mayer bond orders larger than 0.100000
B(  0-C ,  1-O ) :   2.1518 B(  0-C ,  2-C ) :   0.9994 B(  0-C ,  4-H ) :   0.9615
B(  2-C ,  3-C ) :   1.9945 B(  2-C ,  5-H ) :   0.9467 B(  3-C ,  6-H ) :   0.9094
B(  3-C ,  7-H ) :   0.9356

-----------------------------------------------------------------------------
         ABSORPTION SPECTRUM VIA TRANSITION ELECTRIC DIPOLE MOMENTS
-----------------------------------------------------------------------------
State   Energy    Wavelength  fosc         T2        TX        TY        TZ
        (cm-1)      (nm)                 (au**2)    (au)      (au)      (au)
-----------------------------------------------------------------------------
   1   28435.8    351.7   0.000090289   0.00105   0.01603   0.00606  -0.02742

FINAL SINGLE POINT ENERGY      -191.644673030772

DIPOLE MOMENT
-------------
                                X             Y             Z
Electronic contribution:     -1.89161      -1.54522       0.07449
Nuclear contribution   :      2.07916       2.43760      -0.07802
                        -----------------------------------------
Total Dipole Moment    :      0.18755       0.89238      -0.00353
                        -----------------------------------------
Magnitude (a.u.)       :      0.91188
Magnitude (Debye)      :      2.31782

Rotational constants in cm-1:     0.779641     0.204889     0.162831
Rotational constants in MHz : 23373.041235  6142.409751  4881.538324

                             ****ORCA TERMINATED NORMALLY****
TOTAL RUN TIME: 0 days 0 hours 2 minutes 52 seconds 133 msec
