                         Program Version 5.0.3 -  RELEASE  -
|  1> ! HF-3c
|  2> !TightSCF
|  3> %scf
|  4>  ConvForced true
|  5>  convergence tight
|  6>  MaxIter 500
|  7> end
|  8>
|  9> %tddft
| 10>  nroots 1
| 11> end
| 12>
| 13> # 	23844
| 14> * xyz 0 1
| 15> 		C   -0.581932  -0.383034   0.019253
| 16> 		O   -0.570220  -1.671119  -0.013675
| 17> 		C    0.622998   0.409434  -0.029408
| 18> 		C    1.851652  -0.126099  -0.011017
| 19> 		H   -1.570067   0.187172   0.262176
| 20> 		H    0.579256   1.423919  -0.157992
| 21> 		H    1.841323  -1.174353   0.052176
| 22> 		H    2.611734   0.524853   0.318385
| 23> *
| 24>
| 25>                          ****END OF INPUT****

CARTESIAN COORDINATES (ANGSTROEM)
---------------------------------
  C     -0.581932   -0.383034    0.019253
  O     -0.570220   -1.671119   -0.013675
  C      0.622998    0.409434   -0.029408
  C      1.851652   -0.126099   -0.011017
  H     -1.570067    0.187172    0.262176
  H      0.579256    1.423919   -0.157992
  H      1.841323   -1.174353    0.052176
  H      2.611734    0.524853    0.318385

 Total Charge           Charge          ....    0
 Multiplicity           Mult            ....    1
 Number of Electrons    NEL             ....   30
 Basis Dimension        Dim             ....   24

ORBITAL ENERGIES
----------------

  NO   OCC          E(Eh)            E(eV)
   0   2.0000     -20.340361      -553.4894
   1   2.0000     -11.280153      -306.9486
   2   2.0000     -11.196149      -304.6627
   3   2.0000     -11.193095      -304.5796
   4   2.0000      -1.345586       -36.6152
   5   2.0000      -1.095067       -29.7983
   6   2.0000      -0.902763       -24.5654
   7   2.0000      -0.751774       -20.4568
   8   2.0000      -0.707531       -19.2529
   9   2.0000      -0.601621       -16.3709
  10   2.0000      -0.590416       -16.0660
  11   2.0000      -0.542174       -14.7533
  12   2.0000      -0.509695       -13.8695
  13   2.0000      -0.417583       -11.3630
  14   2.0000      -0.383338       -10.4312
  15   0.0000       0.107216         2.9175
  16   0.0000       0.288701         7.8560
  17   0.0000       0.557345        15.1661
  18   0.0000       0.635506        17.2930
  19   0.0000       0.677008        18.4223

MULLIKEN ATOMIC CHARGES
-----------------------
   0 C :    0.145667
   1 O :   -0.345657
   2 C :   -0.185621
   3 C :   -0.223448
   4 H :    0.143003
   5 H :    0.142871
   6 H :    0.166906
   7 H :    0.156279
Sum of atomic charges:   -0.0000000

LOEWDIN ATOMIC CHARGES
----------------------
   0 C :    0.141154
   1 O :   -0.274924
   2 C :   -0.132153
   3 C :   -0.115762
   4 H :    0.086473
   5 H :    0.085526
   6 H :    0.107777
   7 H :    0.101909

  Mayer bond orders larger than 0.100000
B(  0-C ,  1-O ) :   1.8788 B(  0-C ,  2-C ) :   1.0654 B(  0-C ,  4-H ) :   0.9269
B(  2-C ,  3-C ) :   1.9136 B(  2-C ,  5-H ) :   0.9616 B(  3-C ,  6-H ) :   0.9578
B(  3-C ,  7-H ) :   0.9638

-----------------------------------------------------------------------------
         ABSORPTION SPECTRUM VIA TRANSITION ELECTRIC DIPOLE MOMENTS
-----------------------------------------------------------------------------
State   Energy    Wavelength  fosc         T2        TX        TY        TZ
        (cm-1)      (nm)                 (au**2)    (au)      (au)      (au)
-----------------------------------------------------------------------------
   1   28219.0    354.4   0.000078867   0.00092   0.02387   0.00311  -0.01846

Dispersion correction           -0.026189334
FINAL SINGLE POINT ENERGY      -189.335054952657

DIPOLE MOMENT
-------------
                                X             Y             Z
Electronic contribution:     -1.80730      -1.69058      -0.31436
Nuclear contribution   :      2.09062       2.68943       0.44483
                        -----------------------------------------
Total Dipole Moment    :      0.28332       0.99885       0.13046
                        -----------------------------------------
Magnitude (a.u.)       :      1.04642
Magnitude (Debye)      :      2.65979

Rotational constants in cm-1:     0.740799     0.210410     0.164565
Rotational constants in MHz : 22208.589227  6307.939627  4933.539109

                             ****ORCA TERMINATED NORMALLY****
TOTAL RUN TIME: 0 days 0 hours 0 minutes 12 seconds 225 msec
