                         Program Version 5.0.3 -  RELEASE  -
|  1> ! HF-3c
|  2> !TightSCF
|  3> %scf
|  4>  ConvForced true
|  5>  convergence tight
|  6>  MaxIter 500
|  7> end
|  8>
|  9> %tddft
| 10>  nroots 1
| 11> end
| 12>
| 13> # 	25851
| 14> * xyz 0 1
| 15> 		C   -0.533644  -0.449209   0.011507
| 16> 		O   -0.622641  -1.623851  -0.009303
| 17> 		C    0.619554   0.353266  -0.059499
| 18> 		C    1.840195  -0.081723   0.049388
| 19> 		H   -1.499551   0.318159   0.320661
| 20> 		H    0.577590   1.478203  -0.098332
| 21> 		H    2.222353  -1.134400  -0.225553
| 22> 		H    2.611465   0.523770   0.135606
| 23> *
| 24>
| 25>                          ****END OF INPUT****

CARTESIAN COORDINATES (ANGSTROEM)
---------------------------------
  C     -0.533644   -0.449209    0.011507
  O     -0.622641   -1.623851   -0.009303
  C      0.619554    0.353266   -0.059499
  C      1.840195   -0.081723    0.049388
  H     -1.499551    0.318159    0.320661
  H      0.577590    1.478203   -0.098332
  H      2.222353   -1.134400   -0.225553
  H      2.611465    0.523770    0.135606

 Total Charge           Charge          ....    0
 Multiplicity           Mult            ....    1
 Number of Electrons    NEL             ....   30
 Basis Dimension        Dim             ....   24

ORBITAL ENERGIES
----------------

  NO   OCC          E(Eh)            E(eV)
   0   2.0000     -20.375176      -554.4367
   1   2.0000     -11.305457      -307.6371
   2   2.0000     -11.197693      -304.7047
   3   2.0000     -11.194597      -304.6205
   4   2.0000      -1.424152       -38.7532
   5   2.0000      -1.102314       -29.9955
   6   2.0000      -0.907303       -24.6890
   7   2.0000      -0.733686       -19.9646
   8   2.0000      -0.705132       -19.1876
   9   2.0000      -0.629172       -17.1206
  10   2.0000      -0.599061       -16.3013
  11   2.0000      -0.564981       -15.3739
  12   2.0000      -0.516105       -14.0439
  13   2.0000      -0.403470       -10.9790
  14   2.0000      -0.396236       -10.7821
  15   0.0000       0.128968         3.5094
  16   0.0000       0.321356         8.7445
  17   0.0000       0.488164        13.2836
  18   0.0000       0.575876        15.6704
  19   0.0000       0.620549        16.8860

MULLIKEN ATOMIC CHARGES
-----------------------
   0 C :    0.196793
   1 O :   -0.361515
   2 C :   -0.187243
   3 C :   -0.214544
   4 H :    0.117346
   5 H :    0.150608
   6 H :    0.160597
   7 H :    0.137958
Sum of atomic charges:   -0.0000000

LOEWDIN ATOMIC CHARGES
----------------------
   0 C :    0.155528
   1 O :   -0.255589
   2 C :   -0.145320
   3 C :   -0.112588
   4 H :    0.067030
   5 H :    0.100392
   6 H :    0.110865
   7 H :    0.079680

  Mayer bond orders larger than 0.100000
B(  0-C ,  1-O ) :   1.9069 B(  0-C ,  2-C ) :   1.0462 B(  0-C ,  4-H ) :   0.8938
B(  2-C ,  3-C ) :   1.9312 B(  2-C ,  5-H ) :   0.9516 B(  3-C ,  6-H ) :   0.9568
B(  3-C ,  7-H ) :   0.9679

-----------------------------------------------------------------------------
         ABSORPTION SPECTRUM VIA TRANSITION ELECTRIC DIPOLE MOMENTS
-----------------------------------------------------------------------------
State   Energy    Wavelength  fosc         T2        TX        TY        TZ
        (cm-1)      (nm)                 (au**2)    (au)      (au)      (au)
-----------------------------------------------------------------------------
   1   33339.8    299.9   0.000203374   0.00201   0.04286   0.00686   0.01115

Dispersion correction           -0.025794123
FINAL SINGLE POINT ENERGY      -189.288305878174

DIPOLE MOMENT
-------------
                                X             Y             Z
Electronic contribution:     -2.07314      -1.93530      -0.10926
Nuclear contribution   :      2.51061       2.89735       0.12397
                        -----------------------------------------
Total Dipole Moment    :      0.43747       0.96205       0.01471
                        -----------------------------------------
Magnitude (a.u.)       :      1.05694
Magnitude (Debye)      :      2.68654

Rotational constants in cm-1:     0.825047     0.207191     0.166443
Rotational constants in MHz : 24734.298582  6211.416714  4989.836449

                             ****ORCA TERMINATED NORMALLY****
TOTAL RUN TIME: 0 days 0 hours 0 minutes 11 seconds 791 msec
