                         Program Version 5.0.3 -  RELEASE  -
|  1> ! HF-3c
|  2> !TightSCF
|  3> %scf
|  4>  ConvForced true
|  5>  convergence tight
|  6>  MaxIter 500
|  7> end
|  8>
|  9> %tddft
| 10>  nroots 1
| 11> end
| 12>
| 13> # 	32693
| 14> * xyz 0 1
| 15> 		C   -0.567728  -0.382182   0.016705
| 16> 		O   -0.544039  -1.617419  -0.009460
| 17> 		C    0.572980   0.397646  -0.003342
| 18> 		C    1.837716  -0.173885  -0.001247
| 19> 		H   -1.701321  -0.002602  -0.019791
| 20> 		H    0.534665   1.565200  -0.020315
| 21> 		H    1.971895  -1.208265   0.085769
| 22> 		H    2.825702   0.465408  -0.044301
| 23> *
| 24>
| 25>                          ****END OF INPUT****

CARTESIAN COORDINATES (ANGSTROEM)
---------------------------------
  C     -0.567728   -0.382182    0.016705
  O     -0.544039   -1.617419   -0.009460
  C      0.572980    0.397646   -0.003342
  C      1.837716   -0.173885   -0.001247
  H     -1.701321   -0.002602   -0.019791
  H      0.534665    1.565200   -0.020315
  H      1.971895   -1.208265    0.085769
  H      2.825702    0.465408   -0.044301

 Total Charge           Charge          ....    0
 Multiplicity           Mult            ....    1
 Number of Electrons    NEL             ....   30
 Basis Dimension        Dim             ....   24

ORBITAL ENERGIES
----------------

  NO   OCC          E(Eh)            E(eV)
   0   2.0000     -20.329830      -553.2028
   1   2.0000     -11.278938      -306.9155
   2   2.0000     -11.196374      -304.6688
   3   2.0000     -11.189200      -304.4736
   4   2.0000      -1.372919       -37.3590
   5   2.0000      -1.068760       -29.0824
   6   2.0000      -0.889204       -24.1965
   7   2.0000      -0.726615       -19.7722
   8   2.0000      -0.692122       -18.8336
   9   2.0000      -0.602948       -16.4070
  10   2.0000      -0.564717       -15.3667
  11   2.0000      -0.531810       -14.4713
  12   2.0000      -0.512770       -13.9532
  13   2.0000      -0.402148       -10.9430
  14   2.0000      -0.368802       -10.0356
  15   0.0000       0.113939         3.1004
  16   0.0000       0.324484         8.8297
  17   0.0000       0.473235        12.8774
  18   0.0000       0.590096        16.0573
  19   0.0000       0.611584        16.6420

MULLIKEN ATOMIC CHARGES
-----------------------
   0 C :    0.137628
   1 O :   -0.361238
   2 C :   -0.184392
   3 C :   -0.185920
   4 H :    0.142040
   5 H :    0.147680
   6 H :    0.155209
   7 H :    0.148993
Sum of atomic charges:   -0.0000000

LOEWDIN ATOMIC CHARGES
----------------------
   0 C :    0.123017
   1 O :   -0.279382
   2 C :   -0.145772
   3 C :   -0.087220
   4 H :    0.086438
   5 H :    0.101608
   6 H :    0.096881
   7 H :    0.104428

  Mayer bond orders larger than 0.100000
B(  0-C ,  1-O ) :   1.8491 B(  0-C ,  2-C ) :   1.1009 B(  0-C ,  4-H ) :   0.9249
B(  1-O ,  3-C ) :   0.1054 B(  2-C ,  3-C ) :   1.8844 B(  2-C ,  5-H ) :   0.9548
B(  3-C ,  6-H ) :   0.9629 B(  3-C ,  7-H ) :   0.9642

-----------------------------------------------------------------------------
         ABSORPTION SPECTRUM VIA TRANSITION ELECTRIC DIPOLE MOMENTS
-----------------------------------------------------------------------------
State   Energy    Wavelength  fosc         T2        TX        TY        TZ
        (cm-1)      (nm)                 (au**2)    (au)      (au)      (au)
-----------------------------------------------------------------------------
   1   28826.5    346.9   0.000047603   0.00054  -0.00014  -0.00015  -0.02332

Dispersion correction           -0.025522453
FINAL SINGLE POINT ENERGY      -189.323827959035

DIPOLE MOMENT
-------------
                                X             Y             Z
Electronic contribution:     -1.80062      -1.55617       0.01243
Nuclear contribution   :      2.24985       2.55642       0.00144
                        -----------------------------------------
Total Dipole Moment    :      0.44923       1.00025       0.01386
                        -----------------------------------------
Magnitude (a.u.)       :      1.09658
Magnitude (Debye)      :      2.78729

Rotational constants in cm-1:     0.727587     0.218903     0.168326
Rotational constants in MHz : 21812.522769  6562.556359  5046.300743

                             ****ORCA TERMINATED NORMALLY****
TOTAL RUN TIME: 0 days 0 hours 0 minutes 16 seconds 63 msec
