                         Program Version 5.0.3 -  RELEASE  -
|  1> ! HF-3c
|  2> !TightSCF
|  3> %scf
|  4>  ConvForced true
|  5>  convergence tight
|  6>  MaxIter 500
|  7> end
|  8>
|  9> %tddft
| 10>  nroots 1
| 11> end
| 12>
| 13> # 	21993
| 14> * xyz 0 1
| 15> 		C   -0.615623  -0.420128   0.073326
| 16> 		O   -0.554814  -1.624047  -0.033199
| 17> 		C    0.626656   0.378383   0.011089
| 18> 		C    1.832900  -0.120154  -0.001148
| 19> 		H   -1.451573   0.134003  -0.294893
| 20> 		H    0.606450   1.603022  -0.134922
| 21> 		H    1.891076  -1.127776   0.181751
| 22> 		H    2.745768   0.353504  -0.234651
| 23> *
| 24>
| 25>                          ****END OF INPUT****

CARTESIAN COORDINATES (ANGSTROEM)
---------------------------------
  C     -0.615623   -0.420128    0.073326
  O     -0.554814   -1.624047   -0.033199
  C      0.626656    0.378383    0.011089
  C      1.832900   -0.120154   -0.001148
  H     -1.451573    0.134003   -0.294893
  H      0.606450    1.603022   -0.134922
  H      1.891076   -1.127776    0.181751
  H      2.745768    0.353504   -0.234651

 Total Charge           Charge          ....    0
 Multiplicity           Mult            ....    1
 Number of Electrons    NEL             ....   30
 Basis Dimension        Dim             ....   24

ORBITAL ENERGIES
----------------

  NO   OCC          E(Eh)            E(eV)
   0   2.0000     -20.378324      -554.5224
   1   2.0000     -11.304500      -307.6111
   2   2.0000     -11.186491      -304.3999
   3   2.0000     -11.182845      -304.3007
   4   2.0000      -1.412854       -38.4457
   5   2.0000      -1.081834       -29.4382
   6   2.0000      -0.902839       -24.5675
   7   2.0000      -0.753613       -20.5069
   8   2.0000      -0.700265       -19.0552
   9   2.0000      -0.619175       -16.8486
  10   2.0000      -0.609886       -16.5958
  11   2.0000      -0.549452       -14.9513
  12   2.0000      -0.503461       -13.6999
  13   2.0000      -0.423120       -11.5137
  14   2.0000      -0.396903       -10.8003
  15   0.0000       0.127710         3.4752
  16   0.0000       0.299094         8.1388
  17   0.0000       0.499064        13.5802
  18   0.0000       0.595987        16.2176
  19   0.0000       0.719869        19.5886

MULLIKEN ATOMIC CHARGES
-----------------------
   0 C :    0.150907
   1 O :   -0.336769
   2 C :   -0.147564
   3 C :   -0.251484
   4 H :    0.145190
   5 H :    0.140285
   6 H :    0.151054
   7 H :    0.148380
Sum of atomic charges:    0.0000000

LOEWDIN ATOMIC CHARGES
----------------------
   0 C :    0.138131
   1 O :   -0.241463
   2 C :   -0.116216
   3 C :   -0.145967
   4 H :    0.077593
   5 H :    0.099269
   6 H :    0.093363
   7 H :    0.095291

  Mayer bond orders larger than 0.100000
B(  0-C ,  1-O ) :   1.9075 B(  0-C ,  2-C ) :   1.0209 B(  0-C ,  4-H ) :   0.9274
B(  2-C ,  3-C ) :   1.9576 B(  2-C ,  5-H ) :   0.9525 B(  3-C ,  6-H ) :   0.9590
B(  3-C ,  7-H ) :   0.9646

-----------------------------------------------------------------------------
         ABSORPTION SPECTRUM VIA TRANSITION ELECTRIC DIPOLE MOMENTS
-----------------------------------------------------------------------------
State   Energy    Wavelength  fosc         T2        TX        TY        TZ
        (cm-1)      (nm)                 (au**2)    (au)      (au)      (au)
-----------------------------------------------------------------------------
   1   30654.3    326.2   0.000139047   0.00149  -0.03472  -0.00565  -0.01601

Dispersion correction           -0.026006226
FINAL SINGLE POINT ENERGY      -189.318424104395

DIPOLE MOMENT
-------------
                                X             Y             Z
Electronic contribution:     -2.21049      -1.74596       0.39676
Nuclear contribution   :      2.40045       2.69074      -0.45218
                        -----------------------------------------
Total Dipole Moment    :      0.18996       0.94478      -0.05542
                        -----------------------------------------
Magnitude (a.u.)       :      0.96528
Magnitude (Debye)      :      2.45354

Rotational constants in cm-1:     0.773040     0.213260     0.168075
Rotational constants in MHz : 23175.148021  6393.369288  5038.772262

                             ****ORCA TERMINATED NORMALLY****
TOTAL RUN TIME: 0 days 0 hours 0 minutes 16 seconds 31 msec
