                         Program Version 5.0.3 -  RELEASE  -
|  1> ! HF-3c
|  2> !TightSCF
|  3> %scf
|  4>  ConvForced true
|  5>  convergence tight
|  6>  MaxIter 500
|  7> end
|  8>
|  9> %tddft
| 10>  nroots 1
| 11> end
| 12>
| 13> # 	8244
| 14> * xyz 0 1
| 15> 		C   -1.132821  -0.354290  -0.025013
| 16> 		O   -1.408662  -1.459062  -0.472232
| 17> 		C    0.044013   0.513890  -0.246710
| 18> 		C    1.262813   0.006999   0.055078
| 19> 		H   -1.938699   0.116986   0.753695
| 20> 		H   -0.252966   1.447374  -0.403442
| 21> 		H    1.355204  -0.957554   0.392168
| 22> 		H    2.036797   0.669658  -0.143619
| 23> *
| 24>
| 25>                          ****END OF INPUT****

CARTESIAN COORDINATES (ANGSTROEM)
---------------------------------
  C     -1.132821   -0.354290   -0.025013
  O     -1.408662   -1.459062   -0.472232
  C      0.044013    0.513890   -0.246710
  C      1.262813    0.006999    0.055078
  H     -1.938699    0.116986    0.753695
  H     -0.252966    1.447374   -0.403442
  H      1.355204   -0.957554    0.392168
  H      2.036797    0.669658   -0.143619

 Total Charge           Charge          ....    0
 Multiplicity           Mult            ....    1
 Number of Electrons    NEL             ....   30
 Basis Dimension        Dim             ....   24

ORBITAL ENERGIES
----------------

  NO   OCC          E(Eh)            E(eV)
   0   2.0000     -20.362430      -554.0899
   1   2.0000     -11.287387      -307.1454
   2   2.0000     -11.203489      -304.8624
   3   2.0000     -11.200525      -304.7818
   4   2.0000      -1.388508       -37.7832
   5   2.0000      -1.095769       -29.8174
   6   2.0000      -0.902073       -24.5467
   7   2.0000      -0.757538       -20.6137
   8   2.0000      -0.698171       -18.9982
   9   2.0000      -0.629509       -17.1298
  10   2.0000      -0.614183       -16.7128
  11   2.0000      -0.566073       -15.4036
  12   2.0000      -0.508183       -13.8284
  13   2.0000      -0.415116       -11.2959
  14   2.0000      -0.388791       -10.5796
  15   0.0000       0.145604         3.9621
  16   0.0000       0.249115         6.7788
  17   0.0000       0.529232        14.4011
  18   0.0000       0.631681        17.1889
  19   0.0000       0.690644        18.7934

MULLIKEN ATOMIC CHARGES
-----------------------
   0 C :    0.181165
   1 O :   -0.352822
   2 C :   -0.173954
   3 C :   -0.239938
   4 H :    0.123633
   5 H :    0.150468
   6 H :    0.158392
   7 H :    0.153056
Sum of atomic charges:    0.0000000

LOEWDIN ATOMIC CHARGES
----------------------
   0 C :    0.154052
   1 O :   -0.261503
   2 C :   -0.118077
   3 C :   -0.132806
   4 H :    0.070869
   5 H :    0.089966
   6 H :    0.100076
   7 H :    0.097422

  Mayer bond orders larger than 0.100000
B(  0-C ,  1-O ) :   1.9329 B(  0-C ,  2-C ) :   1.0102 B(  0-C ,  4-H ) :   0.9087
B(  2-C ,  3-C ) :   1.9614 B(  2-C ,  5-H ) :   0.9592 B(  3-C ,  6-H ) :   0.9646
B(  3-C ,  7-H ) :   0.9645

-----------------------------------------------------------------------------
         ABSORPTION SPECTRUM VIA TRANSITION ELECTRIC DIPOLE MOMENTS
-----------------------------------------------------------------------------
State   Energy    Wavelength  fosc         T2        TX        TY        TZ
        (cm-1)      (nm)                 (au**2)    (au)      (au)      (au)
-----------------------------------------------------------------------------
   1   33080.4    302.3   0.000584932   0.00582   0.07517  -0.00633   0.01141

Dispersion correction           -0.025611635
FINAL SINGLE POINT ENERGY      -189.307760400200

DIPOLE MOMENT
-------------
                                X             Y             Z
Electronic contribution:     -1.98091      -1.63144      -0.77810
Nuclear contribution   :      2.39804       2.52372       1.19681
                        -----------------------------------------
Total Dipole Moment    :      0.41713       0.89228       0.41871
                        -----------------------------------------
Magnitude (a.u.)       :      1.07027
Magnitude (Debye)      :      2.72042

Rotational constants in cm-1:     0.849953     0.184992     0.159524
Rotational constants in MHz : 25480.937019  5545.925853  4782.399507

                             ****ORCA TERMINATED NORMALLY****
TOTAL RUN TIME: 0 days 0 hours 0 minutes 12 seconds 337 msec
