                         Program Version 5.0.3 -  RELEASE  -
|  1> ! HF-3c
|  2> !TightSCF
|  3> %scf
|  4>  ConvForced true
|  5>  convergence tight
|  6>  MaxIter 500
|  7> end
|  8>
|  9> %tddft
| 10>  nroots 1
| 11> end
| 12>
| 13> # 	25574
| 14> * xyz 0 1
| 15> 		C   -0.557240  -0.385062   0.037648
| 16> 		O   -0.573340  -1.634040  -0.026160
| 17> 		C    0.629211   0.364946  -0.056443
| 18> 		C    1.808104  -0.129589   0.037988
| 19> 		H   -1.608016   0.262119   0.208868
| 20> 		H    0.432525   1.439898  -0.028619
| 21> 		H    2.129742  -1.196170   0.083834
| 22> 		H    2.699269   0.519669  -0.088443
| 23> *
| 24>
| 25>                          ****END OF INPUT****

CARTESIAN COORDINATES (ANGSTROEM)
---------------------------------
  C     -0.557240   -0.385062    0.037648
  O     -0.573340   -1.634040   -0.026160
  C      0.629211    0.364946   -0.056443
  C      1.808104   -0.129589    0.037988
  H     -1.608016    0.262119    0.208868
  H      0.432525    1.439898   -0.028619
  H      2.129742   -1.196170    0.083834
  H      2.699269    0.519669   -0.088443

 Total Charge           Charge          ....    0
 Multiplicity           Mult            ....    1
 Number of Electrons    NEL             ....   30
 Basis Dimension        Dim             ....   24

ORBITAL ENERGIES
----------------

  NO   OCC          E(Eh)            E(eV)
   0   2.0000     -20.341734      -553.5267
   1   2.0000     -11.279174      -306.9219
   2   2.0000     -11.199964      -304.7665
   3   2.0000     -11.196394      -304.6694
   4   2.0000      -1.365589       -37.1596
   5   2.0000      -1.100065       -29.9343
   6   2.0000      -0.899090       -24.4655
   7   2.0000      -0.727973       -19.8091
   8   2.0000      -0.693774       -18.8786
   9   2.0000      -0.623627       -16.9698
  10   2.0000      -0.572458       -15.5774
  11   2.0000      -0.529954       -14.4208
  12   2.0000      -0.512887       -13.9564
  13   2.0000      -0.404835       -11.0161
  14   2.0000      -0.396838       -10.7985
  15   0.0000       0.126685         3.4473
  16   0.0000       0.329774         8.9736
  17   0.0000       0.473680        12.8895
  18   0.0000       0.579528        15.7697
  19   0.0000       0.657063        17.8796

MULLIKEN ATOMIC CHARGES
-----------------------
   0 C :    0.166125
   1 O :   -0.353618
   2 C :   -0.200832
   3 C :   -0.199531
   4 H :    0.132798
   5 H :    0.147310
   6 H :    0.162946
   7 H :    0.144803
Sum of atomic charges:    0.0000000

LOEWDIN ATOMIC CHARGES
----------------------
   0 C :    0.144070
   1 O :   -0.272325
   2 C :   -0.150563
   3 C :   -0.103079
   4 H :    0.082376
   5 H :    0.095068
   6 H :    0.109283
   7 H :    0.095169

  Mayer bond orders larger than 0.100000
B(  0-C ,  1-O ) :   1.8841 B(  0-C ,  2-C ) :   1.0612 B(  0-C ,  4-H ) :   0.9154
B(  2-C ,  3-C ) :   1.9318 B(  2-C ,  5-H ) :   0.9506 B(  3-C ,  6-H ) :   0.9562
B(  3-C ,  7-H ) :   0.9609

-----------------------------------------------------------------------------
         ABSORPTION SPECTRUM VIA TRANSITION ELECTRIC DIPOLE MOMENTS
-----------------------------------------------------------------------------
State   Energy    Wavelength  fosc         T2        TX        TY        TZ
        (cm-1)      (nm)                 (au**2)    (au)      (au)      (au)
-----------------------------------------------------------------------------
   1   29820.2    335.3   0.000050628   0.00056  -0.01849  -0.00267  -0.01448

Dispersion correction           -0.025816396
FINAL SINGLE POINT ENERGY      -189.330898613709

DIPOLE MOMENT
-------------
                                X             Y             Z
Electronic contribution:     -1.88981      -1.76075      -0.08798
Nuclear contribution   :      2.27062       2.74612       0.16513
                        -----------------------------------------
Total Dipole Moment    :      0.38082       0.98538       0.07715
                        -----------------------------------------
Magnitude (a.u.)       :      1.05922
Magnitude (Debye)      :      2.69231

Rotational constants in cm-1:     0.758161     0.216612     0.168960
Rotational constants in MHz : 22729.087365  6493.870547  5065.306835

                             ****ORCA TERMINATED NORMALLY****
TOTAL RUN TIME: 0 days 0 hours 0 minutes 9 seconds 997 msec
