                         Program Version 5.0.3 -  RELEASE  -
|  1> ! HF-3c
|  2> !TightSCF
|  3> %scf
|  4>  ConvForced true
|  5>  convergence tight
|  6>  MaxIter 500
|  7> end
|  8>
|  9> %tddft
| 10>  nroots 1
| 11> end
| 12>
| 13> # 	27285
| 14> * xyz 0 1
| 15> 		C   -0.622994  -0.447251  -0.061083
| 16> 		O   -0.551954  -1.604680   0.015989
| 17> 		C    0.626769   0.416114  -0.005398
| 18> 		C    1.862490  -0.153980   0.008297
| 19> 		H   -1.580598   0.122180   0.296272
| 20> 		H    0.465600   1.531841   0.134024
| 21> 		H    1.939410  -1.143124   0.067147
| 22> 		H    2.635450   0.425422  -0.060232
| 23> *
| 24>
| 25>                          ****END OF INPUT****

CARTESIAN COORDINATES (ANGSTROEM)
---------------------------------
  C     -0.622994   -0.447251   -0.061083
  O     -0.551954   -1.604680    0.015989
  C      0.626769    0.416114   -0.005398
  C      1.862490   -0.153980    0.008297
  H     -1.580598    0.122180    0.296272
  H      0.465600    1.531841    0.134024
  H      1.939410   -1.143124    0.067147
  H      2.635450    0.425422   -0.060232

 Total Charge           Charge          ....    0
 Multiplicity           Mult            ....    1
 Number of Electrons    NEL             ....   30
 Basis Dimension        Dim             ....   24

ORBITAL ENERGIES
----------------

  NO   OCC          E(Eh)            E(eV)
   0   2.0000     -20.388642      -554.8032
   1   2.0000     -11.308873      -307.7301
   2   2.0000     -11.188533      -304.4555
   3   2.0000     -11.187069      -304.4156
   4   2.0000      -1.445735       -39.3405
   5   2.0000      -1.072929       -29.1959
   6   2.0000      -0.892794       -24.2942
   7   2.0000      -0.749856       -20.4046
   8   2.0000      -0.712264       -19.3817
   9   2.0000      -0.629868       -17.1396
  10   2.0000      -0.614270       -16.7151
  11   2.0000      -0.562251       -15.2996
  12   2.0000      -0.549557       -14.9542
  13   2.0000      -0.411437       -11.1958
  14   2.0000      -0.386867       -10.5272
  15   0.0000       0.129926         3.5355
  16   0.0000       0.291047         7.9198
  17   0.0000       0.548371        14.9219
  18   0.0000       0.593716        16.1558
  19   0.0000       0.662670        18.0322

MULLIKEN ATOMIC CHARGES
-----------------------
   0 C :    0.184363
   1 O :   -0.355739
   2 C :   -0.136350
   3 C :   -0.270813
   4 H :    0.133605
   5 H :    0.140453
   6 H :    0.159285
   7 H :    0.145195
Sum of atomic charges:    0.0000000

LOEWDIN ATOMIC CHARGES
----------------------
   0 C :    0.144529
   1 O :   -0.241301
   2 C :   -0.099377
   3 C :   -0.155727
   4 H :    0.074266
   5 H :    0.092504
   6 H :    0.098300
   7 H :    0.086805

  Mayer bond orders larger than 0.100000
B(  0-C ,  1-O ) :   1.9273 B(  0-C ,  2-C ) :   0.9942 B(  0-C ,  4-H ) :   0.9106
B(  2-C ,  3-C ) :   1.9596 B(  2-C ,  5-H ) :   0.9625 B(  3-C ,  6-H ) :   0.9628
B(  3-C ,  7-H ) :   0.9693

-----------------------------------------------------------------------------
         ABSORPTION SPECTRUM VIA TRANSITION ELECTRIC DIPOLE MOMENTS
-----------------------------------------------------------------------------
State   Energy    Wavelength  fosc         T2        TX        TY        TZ
        (cm-1)      (nm)                 (au**2)    (au)      (au)      (au)
-----------------------------------------------------------------------------
   1   33237.1    300.9   0.000330227   0.00327   0.05406   0.00099  -0.01864

Dispersion correction           -0.025830699
FINAL SINGLE POINT ENERGY      -189.301188763569

DIPOLE MOMENT
-------------
                                X             Y             Z
Electronic contribution:     -2.01780      -1.74538      -0.36006
Nuclear contribution   :      2.09053       2.66593       0.41057
                        -----------------------------------------
Total Dipole Moment    :      0.07273       0.92056       0.05052
                        -----------------------------------------
Magnitude (a.u.)       :      0.92480
Magnitude (Debye)      :      2.35067

Rotational constants in cm-1:     0.753211     0.213159     0.166683
Rotational constants in MHz : 22580.705813  6390.350248  4997.023657

                             ****ORCA TERMINATED NORMALLY****
TOTAL RUN TIME: 0 days 0 hours 0 minutes 9 seconds 677 msec
