                         Program Version 5.0.3 -  RELEASE  -
|  1> ! HF-3c
|  2> !TightSCF
|  3> %scf
|  4>  ConvForced true
|  5>  convergence tight
|  6>  MaxIter 500
|  7> end
|  8>
|  9> %tddft
| 10>  nroots 1
| 11> end
| 12>
| 13> # 	2716
| 14> * xyz 0 1
| 15> 		C   -1.171430  -0.412189   0.093721
| 16> 		O   -2.105802  -0.415817   0.780643
| 17> 		C    0.007644   0.459103   0.327409
| 18> 		C    1.189141   0.120298  -0.291383
| 19> 		H   -1.154815  -0.944017  -0.822755
| 20> 		H    0.019714   1.238042   1.103355
| 21> 		H    1.154548  -0.618489  -1.161216
| 22> 		H    2.068487   0.546910   0.038764
| 23> *
| 24>
| 25>                          ****END OF INPUT****

CARTESIAN COORDINATES (ANGSTROEM)
---------------------------------
  C     -1.171430   -0.412189    0.093721
  O     -2.105802   -0.415817    0.780643
  C      0.007644    0.459103    0.327409
  C      1.189141    0.120298   -0.291383
  H     -1.154815   -0.944017   -0.822755
  H      0.019714    1.238042    1.103355
  H      1.154548   -0.618489   -1.161216
  H      2.068487    0.546910    0.038764

 Total Charge           Charge          ....    0
 Multiplicity           Mult            ....    1
 Number of Electrons    NEL             ....   30
 Basis Dimension        Dim             ....   24

ORBITAL ENERGIES
----------------

  NO   OCC          E(Eh)            E(eV)
   0   2.0000     -20.382067      -554.6242
   1   2.0000     -11.313388      -307.8529
   2   2.0000     -11.188070      -304.4429
   3   2.0000     -11.183207      -304.3105
   4   2.0000      -1.443927       -39.2913
   5   2.0000      -1.074110       -29.2280
   6   2.0000      -0.878878       -23.9155
   7   2.0000      -0.789095       -21.4724
   8   2.0000      -0.673794       -18.3349
   9   2.0000      -0.655310       -17.8319
  10   2.0000      -0.587411       -15.9843
  11   2.0000      -0.567222       -15.4349
  12   2.0000      -0.543083       -14.7780
  13   2.0000      -0.414953       -11.2915
  14   2.0000      -0.385328       -10.4853
  15   0.0000       0.136090         3.7032
  16   0.0000       0.295498         8.0409
  17   0.0000       0.574594        15.6355
  18   0.0000       0.595155        16.1950
  19   0.0000       0.658625        17.9221

MULLIKEN ATOMIC CHARGES
-----------------------
   0 C :    0.173693
   1 O :   -0.357275
   2 C :   -0.161551
   3 C :   -0.228559
   4 H :    0.134170
   5 H :    0.153003
   6 H :    0.143679
   7 H :    0.142840
Sum of atomic charges:    0.0000000

LOEWDIN ATOMIC CHARGES
----------------------
   0 C :    0.146261
   1 O :   -0.245306
   2 C :   -0.122795
   3 C :   -0.129998
   4 H :    0.065579
   5 H :    0.099941
   6 H :    0.098075
   7 H :    0.088242

  Mayer bond orders larger than 0.100000
B(  0-C ,  1-O ) :   1.9112 B(  0-C ,  2-C ) :   1.0168 B(  0-C ,  4-H ) :   0.9215
B(  2-C ,  3-C ) :   1.9413 B(  2-C ,  5-H ) :   0.9581 B(  3-C ,  6-H ) :   0.9641
B(  3-C ,  7-H ) :   0.9688

-----------------------------------------------------------------------------
         ABSORPTION SPECTRUM VIA TRANSITION ELECTRIC DIPOLE MOMENTS
-----------------------------------------------------------------------------
State   Energy    Wavelength  fosc         T2        TX        TY        TZ
        (cm-1)      (nm)                 (au**2)    (au)      (au)      (au)
-----------------------------------------------------------------------------
   1   35756.8    279.7   0.000134734   0.00124   0.01833   0.02584   0.01539

Dispersion correction           -0.025670620
FINAL SINGLE POINT ENERGY      -189.313694149178

DIPOLE MOMENT
-------------
                                X             Y             Z
Electronic contribution:     -3.07287      -0.45942       1.11307
Nuclear contribution   :      4.02982       0.49957      -1.66525
                        -----------------------------------------
Total Dipole Moment    :      0.95695       0.04015      -0.55218
                        -----------------------------------------
Magnitude (a.u.)       :      1.10556
Magnitude (Debye)      :      2.81012

Rotational constants in cm-1:     1.463730     0.159494     0.145389
Rotational constants in MHz : 43881.515460  4781.515895  4358.654332

                             ****ORCA TERMINATED NORMALLY****
TOTAL RUN TIME: 0 days 0 hours 0 minutes 12 seconds 83 msec
