                         Program Version 5.0.3 -  RELEASE  -
|  1> ! HF-3c
|  2> !TightSCF
|  3> %scf
|  4>  ConvForced true
|  5>  convergence tight
|  6>  MaxIter 500
|  7> end
|  8>
|  9> %tddft
| 10>  nroots 1
| 11> end
| 12>
| 13> # 	3404
| 14> * xyz 0 1
| 15> 		C   -1.214680  -0.344361  -0.029313
| 16> 		O   -1.423770  -1.489794  -0.387496
| 17> 		C   -0.011071   0.446233  -0.113081
| 18> 		C    1.195618   0.073949   0.027740
| 19> 		H   -2.068303   0.243286   0.385794
| 20> 		H   -0.120600   1.507627  -0.274130
| 21> 		H    1.430375  -1.026046   0.496043
| 22> 		H    2.190835   0.596049  -0.067161
| 23> *
| 24>
| 25>                          ****END OF INPUT****

CARTESIAN COORDINATES (ANGSTROEM)
---------------------------------
  C     -1.214680   -0.344361   -0.029313
  O     -1.423770   -1.489794   -0.387496
  C     -0.011071    0.446233   -0.113081
  C      1.195618    0.073949    0.027740
  H     -2.068303    0.243286    0.385794
  H     -0.120600    1.507627   -0.274130
  H      1.430375   -1.026046    0.496043
  H      2.190835    0.596049   -0.067161

 Total Charge           Charge          ....    0
 Multiplicity           Mult            ....    1
 Number of Electrons    NEL             ....   30
 Basis Dimension        Dim             ....   24

ORBITAL ENERGIES
----------------

  NO   OCC          E(Eh)            E(eV)
   0   2.0000     -20.368024      -554.2421
   1   2.0000     -11.298375      -307.4444
   2   2.0000     -11.194160      -304.6086
   3   2.0000     -11.193547      -304.5919
   4   2.0000      -1.395857       -37.9832
   5   2.0000      -1.098059       -29.8797
   6   2.0000      -0.896533       -24.3959
   7   2.0000      -0.739757       -20.1298
   8   2.0000      -0.700920       -19.0730
   9   2.0000      -0.630022       -17.1438
  10   2.0000      -0.601036       -16.3550
  11   2.0000      -0.528463       -14.3802
  12   2.0000      -0.496067       -13.4987
  13   2.0000      -0.420929       -11.4541
  14   2.0000      -0.401299       -10.9199
  15   0.0000       0.142570         3.8795
  16   0.0000       0.304946         8.2980
  17   0.0000       0.491858        13.3841
  18   0.0000       0.592101        16.1119
  19   0.0000       0.642746        17.4900

MULLIKEN ATOMIC CHARGES
-----------------------
   0 C :    0.169299
   1 O :   -0.344551
   2 C :   -0.210187
   3 C :   -0.188759
   4 H :    0.132565
   5 H :    0.150896
   6 H :    0.141411
   7 H :    0.149326
Sum of atomic charges:   -0.0000000

LOEWDIN ATOMIC CHARGES
----------------------
   0 C :    0.152701
   1 O :   -0.252813
   2 C :   -0.162064
   3 C :   -0.104822
   4 H :    0.070232
   5 H :    0.098063
   6 H :    0.098859
   7 H :    0.099844

  Mayer bond orders larger than 0.100000
B(  0-C ,  1-O ) :   1.9139 B(  0-C ,  2-C ) :   1.0278 B(  0-C ,  4-H ) :   0.9223
B(  2-C ,  3-C ) :   1.9622 B(  2-C ,  5-H ) :   0.9439 B(  3-C ,  6-H ) :   0.9554
B(  3-C ,  7-H ) :   0.9608

-----------------------------------------------------------------------------
         ABSORPTION SPECTRUM VIA TRANSITION ELECTRIC DIPOLE MOMENTS
-----------------------------------------------------------------------------
State   Energy    Wavelength  fosc         T2        TX        TY        TZ
        (cm-1)      (nm)                 (au**2)    (au)      (au)      (au)
-----------------------------------------------------------------------------
   1   32601.3    306.7   0.000212691   0.00215  -0.04557  -0.00591  -0.00599

Dispersion correction           -0.025294973
FINAL SINGLE POINT ENERGY      -189.315589295385

DIPOLE MOMENT
-------------
                                X             Y             Z
Electronic contribution:     -2.23422      -1.69092      -0.61999
Nuclear contribution   :      2.78074       2.58756       0.97393
                        -----------------------------------------
Total Dipole Moment    :      0.54652       0.89664       0.35394
                        -----------------------------------------
Magnitude (a.u.)       :      1.10812
Magnitude (Debye)      :      2.81661

Rotational constants in cm-1:     0.904172     0.185899     0.157819
Rotational constants in MHz : 27106.389315  5573.116144  4731.288736

                             ****ORCA TERMINATED NORMALLY****
TOTAL RUN TIME: 0 days 0 hours 0 minutes 12 seconds 779 msec
