                         Program Version 5.0.3 -  RELEASE  -
|  1> ! HF-3c
|  2> !TightSCF
|  3> %scf
|  4>  ConvForced true
|  5>  convergence tight
|  6>  MaxIter 500
|  7> end
|  8>
|  9> %tddft
| 10>  nroots 1
| 11> end
| 12>
| 13> # 	3910
| 14> * xyz 0 1
| 15> 		C   -1.172876  -0.308123   0.025628
| 16> 		O   -1.715052  -1.070947   0.839028
| 17> 		C    0.024077   0.456135   0.293712
| 18> 		C    1.230435   0.116146  -0.227251
| 19> 		H   -1.584718  -0.106863  -1.055851
| 20> 		H   -0.206072   1.138579   0.935253
| 21> 		H    1.298640  -0.898922  -0.703478
| 22> 		H    2.170971   0.759063  -0.091702
| 23> *
| 24>
| 25>                          ****END OF INPUT****

CARTESIAN COORDINATES (ANGSTROEM)
---------------------------------
  C     -1.172876   -0.308123    0.025628
  O     -1.715052   -1.070947    0.839028
  C      0.024077    0.456135    0.293712
  C      1.230435    0.116146   -0.227251
  H     -1.584718   -0.106863   -1.055851
  H     -0.206072    1.138579    0.935253
  H      1.298640   -0.898922   -0.703478
  H      2.170971    0.759063   -0.091702

 Total Charge           Charge          ....    0
 Multiplicity           Mult            ....    1
 Number of Electrons    NEL             ....   30
 Basis Dimension        Dim             ....   24

ORBITAL ENERGIES
----------------

  NO   OCC          E(Eh)            E(eV)
   0   2.0000     -20.363168      -554.1100
   1   2.0000     -11.289421      -307.2008
   2   2.0000     -11.191078      -304.5247
   3   2.0000     -11.189416      -304.4795
   4   2.0000      -1.381719       -37.5985
   5   2.0000      -1.084518       -29.5112
   6   2.0000      -0.888307       -24.1721
   7   2.0000      -0.771304       -20.9882
   8   2.0000      -0.668741       -18.1974
   9   2.0000      -0.635574       -17.2949
  10   2.0000      -0.596535       -16.2326
  11   2.0000      -0.552252       -15.0275
  12   2.0000      -0.491050       -13.3622
  13   2.0000      -0.408268       -11.1095
  14   2.0000      -0.392896       -10.6913
  15   0.0000       0.162838         4.4310
  16   0.0000       0.221082         6.0160
  17   0.0000       0.549847        14.9621
  18   0.0000       0.588939        16.0258
  19   0.0000       0.603922        16.4336

MULLIKEN ATOMIC CHARGES
-----------------------
   0 C :    0.172451
   1 O :   -0.343221
   2 C :   -0.203380
   3 C :   -0.210800
   4 H :    0.138418
   5 H :    0.152416
   6 H :    0.144317
   7 H :    0.149799
Sum of atomic charges:   -0.0000000

LOEWDIN ATOMIC CHARGES
----------------------
   0 C :    0.156492
   1 O :   -0.257625
   2 C :   -0.145756
   3 C :   -0.124747
   4 H :    0.081280
   5 H :    0.090552
   6 H :    0.096874
   7 H :    0.102930

  Mayer bond orders larger than 0.100000
B(  0-C ,  1-O ) :   1.9412 B(  0-C ,  2-C ) :   1.0077 B(  0-C ,  4-H ) :   0.9107
B(  2-C ,  3-C ) :   1.9769 B(  2-C ,  5-H ) :   0.9531 B(  3-C ,  6-H ) :   0.9639
B(  3-C ,  7-H ) :   0.9614

-----------------------------------------------------------------------------
         ABSORPTION SPECTRUM VIA TRANSITION ELECTRIC DIPOLE MOMENTS
-----------------------------------------------------------------------------
State   Energy    Wavelength  fosc         T2        TX        TY        TZ
        (cm-1)      (nm)                 (au**2)    (au)      (au)      (au)
-----------------------------------------------------------------------------
   1   33006.4    303.0   0.000070152   0.00070  -0.01609   0.00426   0.02056

Dispersion correction           -0.025348340
FINAL SINGLE POINT ENERGY      -189.299819789717

DIPOLE MOMENT
-------------
                                X             Y             Z
Electronic contribution:     -2.56845      -1.13365       1.08636
Nuclear contribution   :      3.21396       1.69867      -1.76111
                        -----------------------------------------
Total Dipole Moment    :      0.64551       0.56501      -0.67475
                        -----------------------------------------
Magnitude (a.u.)       :      1.09143
Magnitude (Debye)      :      2.77419

Rotational constants in cm-1:     1.086333     0.160814     0.157124
Rotational constants in MHz : 32567.443409  4821.090483  4710.454719

                             ****ORCA TERMINATED NORMALLY****
TOTAL RUN TIME: 0 days 0 hours 0 minutes 11 seconds 55 msec
