                         Program Version 5.0.3 -  RELEASE  -
|  1> ! HF-3c
|  2> !TightSCF
|  3> %scf
|  4>  ConvForced true
|  5>  convergence tight
|  6>  MaxIter 500
|  7> end
|  8>
|  9> %tddft
| 10>  nroots 1
| 11> end
| 12>
| 13> # 	24591
| 14> * xyz 0 1
| 15> 		C   -0.572461  -0.454088  -0.034661
| 16> 		O   -0.604611  -1.642335   0.021215
| 17> 		C    0.647930   0.420197   0.016333
| 18> 		C    1.859883  -0.113438  -0.008466
| 19> 		H   -1.500721   0.167142  -0.020440
| 20> 		H    0.404255   1.513463   0.058993
| 21> 		H    1.951797  -1.141256  -0.138827
| 22> 		H    2.644139   0.539504   0.093132
| 23> *
| 24>
| 25>                          ****END OF INPUT****

CARTESIAN COORDINATES (ANGSTROEM)
---------------------------------
  C     -0.572461   -0.454088   -0.034661
  O     -0.604611   -1.642335    0.021215
  C      0.647930    0.420197    0.016333
  C      1.859883   -0.113438   -0.008466
  H     -1.500721    0.167142   -0.020440
  H      0.404255    1.513463    0.058993
  H      1.951797   -1.141256   -0.138827
  H      2.644139    0.539504    0.093132

 Total Charge           Charge          ....    0
 Multiplicity           Mult            ....    1
 Number of Electrons    NEL             ....   30
 Basis Dimension        Dim             ....   24

ORBITAL ENERGIES
----------------

  NO   OCC          E(Eh)            E(eV)
   0   2.0000     -20.376125      -554.4626
   1   2.0000     -11.299505      -307.4752
   2   2.0000     -11.193715      -304.5965
   3   2.0000     -11.189425      -304.4797
   4   2.0000      -1.418240       -38.5923
   5   2.0000      -1.086431       -29.5633
   6   2.0000      -0.898016       -24.4363
   7   2.0000      -0.745860       -20.2959
   8   2.0000      -0.711324       -19.3561
   9   2.0000      -0.623244       -16.9593
  10   2.0000      -0.607422       -16.5288
  11   2.0000      -0.551156       -14.9977
  12   2.0000      -0.546633       -14.8746
  13   2.0000      -0.408955       -11.1282
  14   2.0000      -0.402675       -10.9573
  15   0.0000       0.134547         3.6612
  16   0.0000       0.309862         8.4318
  17   0.0000       0.561163        15.2700
  18   0.0000       0.604817        16.4579
  19   0.0000       0.678774        18.4704

MULLIKEN ATOMIC CHARGES
-----------------------
   0 C :    0.177465
   1 O :   -0.357151
   2 C :   -0.156484
   3 C :   -0.248438
   4 H :    0.128020
   5 H :    0.142880
   6 H :    0.164162
   7 H :    0.149548
Sum of atomic charges:    0.0000000

LOEWDIN ATOMIC CHARGES
----------------------
   0 C :    0.150733
   1 O :   -0.253924
   2 C :   -0.117090
   3 C :   -0.138099
   4 H :    0.065497
   5 H :    0.093327
   6 H :    0.105578
   7 H :    0.093979

  Mayer bond orders larger than 0.100000
B(  0-C ,  1-O ) :   1.9204 B(  0-C ,  2-C ) :   1.0061 B(  0-C ,  4-H ) :   0.9211
B(  2-C ,  3-C ) :   1.9573 B(  2-C ,  5-H ) :   0.9601 B(  3-C ,  6-H ) :   0.9585
B(  3-C ,  7-H ) :   0.9651

-----------------------------------------------------------------------------
         ABSORPTION SPECTRUM VIA TRANSITION ELECTRIC DIPOLE MOMENTS
-----------------------------------------------------------------------------
State   Energy    Wavelength  fosc         T2        TX        TY        TZ
        (cm-1)      (nm)                 (au**2)    (au)      (au)      (au)
-----------------------------------------------------------------------------
   1   33602.4    297.6   0.000036522   0.00036  -0.01805  -0.00210   0.00525

Dispersion correction           -0.025884021
FINAL SINGLE POINT ENERGY      -189.335301044878

DIPOLE MOMENT
-------------
                                X             Y             Z
Electronic contribution:     -1.87569      -1.83222      -0.02417
Nuclear contribution   :      2.12507       2.79943      -0.00709
                        -----------------------------------------
Total Dipole Moment    :      0.24939       0.96721      -0.03125
                        -----------------------------------------
Magnitude (a.u.)       :      0.99933
Magnitude (Debye)      :      2.54010

Rotational constants in cm-1:     0.788164     0.205342     0.163083
Rotational constants in MHz : 23628.565953  6156.011837  4889.117418

                             ****ORCA TERMINATED NORMALLY****
TOTAL RUN TIME: 0 days 0 hours 0 minutes 15 seconds 915 msec
