                         Program Version 5.0.3 -  RELEASE  -
|  1> ! HF-3c
|  2> !TightSCF
|  3> %scf
|  4>  ConvForced true
|  5>  convergence tight
|  6>  MaxIter 500
|  7> end
|  8>
|  9> %tddft
| 10>  nroots 1
| 11> end
| 12>
| 13> # 	13554
| 14> * xyz 0 1
| 15> 		C   -1.208088  -0.364616   0.002357
| 16> 		O   -2.021024  -0.637313  -0.847914
| 17> 		C   -0.048289   0.459897  -0.276625
| 18> 		C    1.210962   0.041007   0.234678
| 19> 		H   -1.106784  -0.643237   0.846317
| 20> 		H   -0.213863   1.257045  -0.918346
| 21> 		H    1.342343  -0.818411   0.851121
| 22> 		H    2.045279   0.719675   0.106879
| 23> *
| 24>
| 25>                          ****END OF INPUT****

CARTESIAN COORDINATES (ANGSTROEM)
---------------------------------
  C     -1.208088   -0.364616    0.002357
  O     -2.021024   -0.637313   -0.847914
  C     -0.048289    0.459897   -0.276625
  C      1.210962    0.041007    0.234678
  H     -1.106784   -0.643237    0.846317
  H     -0.213863    1.257045   -0.918346
  H      1.342343   -0.818411    0.851121
  H      2.045279    0.719675    0.106879

 Total Charge           Charge          ....    0
 Multiplicity           Mult            ....    1
 Number of Electrons    NEL             ....   30
 Basis Dimension        Dim             ....   24

ORBITAL ENERGIES
----------------

  NO   OCC          E(Eh)            E(eV)
   0   2.0000     -20.387798      -554.7802
   1   2.0000     -11.312498      -307.8287
   2   2.0000     -11.190386      -304.5059
   3   2.0000     -11.186574      -304.4022
   4   2.0000      -1.416357       -38.5410
   5   2.0000      -1.080838       -29.4111
   6   2.0000      -0.918553       -24.9951
   7   2.0000      -0.822327       -22.3766
   8   2.0000      -0.678101       -18.4521
   9   2.0000      -0.649113       -17.6633
  10   2.0000      -0.602288       -16.3891
  11   2.0000      -0.573319       -15.6008
  12   2.0000      -0.531843       -14.4722
  13   2.0000      -0.427950       -11.6451
  14   2.0000      -0.377578       -10.2744
  15   0.0000       0.119191         3.2434
  16   0.0000       0.258195         7.0258
  17   0.0000       0.610232        16.6053
  18   0.0000       0.647155        17.6100
  19   0.0000       0.691107        18.8060

MULLIKEN ATOMIC CHARGES
-----------------------
   0 C :    0.127519
   1 O :   -0.325387
   2 C :   -0.157080
   3 C :   -0.227474
   4 H :    0.142411
   5 H :    0.152562
   6 H :    0.142064
   7 H :    0.145384
Sum of atomic charges:   -0.0000000

LOEWDIN ATOMIC CHARGES
----------------------
   0 C :    0.131961
   1 O :   -0.230632
   2 C :   -0.112332
   3 C :   -0.129246
   4 H :    0.060440
   5 H :    0.094526
   6 H :    0.090661
   7 H :    0.094621

  Mayer bond orders larger than 0.100000
B(  0-C ,  1-O ) :   1.9101 B(  0-C ,  2-C ) :   1.0313 B(  0-C ,  4-H ) :   0.9387
B(  2-C ,  3-C ) :   1.9389 B(  2-C ,  5-H ) :   0.9604 B(  3-C ,  6-H ) :   0.9690
B(  3-C ,  7-H ) :   0.9679

-----------------------------------------------------------------------------
         ABSORPTION SPECTRUM VIA TRANSITION ELECTRIC DIPOLE MOMENTS
-----------------------------------------------------------------------------
State   Energy    Wavelength  fosc         T2        TX        TY        TZ
        (cm-1)      (nm)                 (au**2)    (au)      (au)      (au)
-----------------------------------------------------------------------------
   1   31645.1    316.0   0.000170876   0.00178   0.03559   0.00119   0.02258

Dispersion correction           -0.025969527
FINAL SINGLE POINT ENERGY      -189.273991977387

DIPOLE MOMENT
-------------
                                X             Y             Z
Electronic contribution:     -3.12121      -0.75989      -1.08428
Nuclear contribution   :      3.97881       1.01411       1.70222
                        -----------------------------------------
Total Dipole Moment    :      0.85760       0.25422       0.61794
                        -----------------------------------------
Magnitude (a.u.)       :      1.08718
Magnitude (Debye)      :      2.76338

Rotational constants in cm-1:     1.353229     0.158461     0.149131
Rotational constants in MHz : 40568.796113  4750.553755  4470.827937

                             ****ORCA TERMINATED NORMALLY****
TOTAL RUN TIME: 0 days 0 hours 0 minutes 12 seconds 79 msec
