                         Program Version 5.0.3 -  RELEASE  -
|  1> ! B3LYP cc-pVDZ
|  2> !TightSCF
|  3> %scf
|  4>  ConvForced true
|  5>  convergence tight
|  6>  MaxIter 500
|  7> end
|  8>
|  9> %tddft
| 10>  nroots 1
| 11> end
| 12>
| 13> # 	8904
| 14> * xyz 0 1
| 15> 		C   -1.238780  -0.319209   0.011912
| 16> 		O   -1.381426  -1.366661   0.575972
| 17> 		C   -0.007542   0.595386   0.190397
| 18> 		C    1.214048   0.012499  -0.123844
| 19> 		H   -1.983886   0.073873  -0.710394
| 20> 		H   -0.138154   1.703742   0.428886
| 21> 		H    1.265723  -1.069650  -0.422601
| 22> 		H    2.215279   0.435136  -0.033785
| 23> *
| 24>
| 25>                          ****END OF INPUT****

CARTESIAN COORDINATES (ANGSTROEM)
---------------------------------
  C     -1.238780   -0.319209    0.011912
  O     -1.381426   -1.366661    0.575972
  C     -0.007542    0.595386    0.190397
  C      1.214048    0.012499   -0.123844
  H     -1.983886    0.073873   -0.710394
  H     -0.138154    1.703742    0.428886
  H      1.265723   -1.069650   -0.422601
  H      2.215279    0.435136   -0.033785

 Total Charge           Charge          ....    0
 Multiplicity           Mult            ....    1
 Number of Electrons    NEL             ....   30
 Basis Dimension        Dim             ....   76

ORBITAL ENERGIES
----------------

  NO   OCC          E(Eh)            E(eV)
   0   2.0000     -19.146133      -520.9928
   1   2.0000     -10.283567      -279.8301
   2   2.0000     -10.219723      -278.0928
   3   2.0000     -10.216248      -277.9982
   4   2.0000      -1.057914       -28.7873
   5   2.0000      -0.775683       -21.1074
   6   2.0000      -0.643172       -17.5016
   7   2.0000      -0.551387       -15.0040
   8   2.0000      -0.491764       -13.3816
   9   2.0000      -0.446215       -12.1421
  10   2.0000      -0.441849       -12.0233
  11   2.0000      -0.385679       -10.4949
  12   2.0000      -0.381264       -10.3747
  13   2.0000      -0.278872        -7.5885
  14   2.0000      -0.256929        -6.9914
  15   0.0000      -0.048720        -1.3257
  16   0.0000       0.005456         0.1485
  17   0.0000       0.077377         2.1055
  18   0.0000       0.088547         2.4095
  19   0.0000       0.100973         2.7476

MULLIKEN ATOMIC CHARGES
-----------------------
   0 C :    0.180600
   1 O :   -0.170484
   2 C :   -0.119493
   3 C :    0.008343
   4 H :   -0.008055
   5 H :    0.031040
   6 H :    0.042734
   7 H :    0.035315
Sum of atomic charges:    0.0000000

LOEWDIN ATOMIC CHARGES
----------------------
   0 C :   -0.026085
   1 O :    0.018393
   2 C :   -0.069095
   3 C :   -0.016162
   4 H :   -0.007820
   5 H :    0.039858
   6 H :    0.035506
   7 H :    0.025405

  Mayer bond orders larger than 0.100000
B(  0-C ,  1-O ) :   2.2286 B(  0-C ,  2-C ) :   0.9729 B(  0-C ,  4-H ) :   0.9101
B(  2-C ,  3-C ) :   1.9787 B(  2-C ,  5-H ) :   0.9398 B(  3-C ,  6-H ) :   0.9496
B(  3-C ,  7-H ) :   0.9603

-----------------------------------------------------------------------------
         ABSORPTION SPECTRUM VIA TRANSITION ELECTRIC DIPOLE MOMENTS
-----------------------------------------------------------------------------
State   Energy    Wavelength  fosc         T2        TX        TY        TZ
        (cm-1)      (nm)                 (au**2)    (au)      (au)      (au)
-----------------------------------------------------------------------------
   1   32239.9    310.2   0.000037969   0.00039  -0.01658  -0.00904  -0.00557

FINAL SINGLE POINT ENERGY      -191.647181389828

DIPOLE MOMENT
-------------
                                X             Y             Z
Electronic contribution:     -2.32540      -1.45742       0.92853
Nuclear contribution   :      2.67373       2.21113      -1.31635
                        -----------------------------------------
Total Dipole Moment    :      0.34833       0.75371      -0.38782
                        -----------------------------------------
Magnitude (a.u.)       :      0.91641
Magnitude (Debye)      :      2.32933

Rotational constants in cm-1:     0.758782     0.187826     0.159529
Rotational constants in MHz : 22747.705211  5630.884711  4782.558157

                             ****ORCA TERMINATED NORMALLY****
TOTAL RUN TIME: 0 days 0 hours 3 minutes 12 seconds 548 msec
