                         Program Version 5.0.3 -  RELEASE  -
|  1> ! B3LYP cc-pVDZ
|  2> !TightSCF
|  3> %scf
|  4>  ConvForced true
|  5>  convergence tight
|  6>  MaxIter 500
|  7> end
|  8>
|  9> %tddft
| 10>  nroots 1
| 11> end
| 12>
| 13> # 	29185
| 14> * xyz 0 1
| 15> 		C   -0.583727  -0.453253  -0.012139
| 16> 		O   -0.604333  -1.636172   0.010526
| 17> 		C    0.700863   0.434127   0.024369
| 18> 		C    1.806445  -0.102925   0.006056
| 19> 		H   -1.551191  -0.031144  -0.096435
| 20> 		H    0.412573   1.369223  -0.084611
| 21> 		H    1.949205  -1.067047  -0.219537
| 22> 		H    2.807094   0.381192   0.017760
| 23> *
| 24>
| 25>                          ****END OF INPUT****

CARTESIAN COORDINATES (ANGSTROEM)
---------------------------------
  C     -0.583727   -0.453253   -0.012139
  O     -0.604333   -1.636172    0.010526
  C      0.700863    0.434127    0.024369
  C      1.806445   -0.102925    0.006056
  H     -1.551191   -0.031144   -0.096435
  H      0.412573    1.369223   -0.084611
  H      1.949205   -1.067047   -0.219537
  H      2.807094    0.381192    0.017760

 Total Charge           Charge          ....    0
 Multiplicity           Mult            ....    1
 Number of Electrons    NEL             ....   30
 Basis Dimension        Dim             ....   76

ORBITAL ENERGIES
----------------

  NO   OCC          E(Eh)            E(eV)
   0   2.0000     -19.135667      -520.7080
   1   2.0000     -10.266425      -279.3636
   2   2.0000     -10.188757      -277.2502
   3   2.0000     -10.185887      -277.1721
   4   2.0000      -1.060301       -28.8522
   5   2.0000      -0.813409       -22.1340
   6   2.0000      -0.652870       -17.7655
   7   2.0000      -0.561874       -15.2894
   8   2.0000      -0.511425       -13.9166
   9   2.0000      -0.473775       -12.8921
  10   2.0000      -0.433607       -11.7990
  11   2.0000      -0.404808       -11.0154
  12   2.0000      -0.373042       -10.1510
  13   2.0000      -0.301472        -8.2035
  14   2.0000      -0.247895        -6.7456
  15   0.0000      -0.051668        -1.4060
  16   0.0000       0.064687         1.7602
  17   0.0000       0.077716         2.1148
  18   0.0000       0.104091         2.8325
  19   0.0000       0.132649         3.6096

MULLIKEN ATOMIC CHARGES
-----------------------
   0 C :    0.165030
   1 O :   -0.167243
   2 C :   -0.059319
   3 C :    0.157811
   4 H :   -0.038378
   5 H :   -0.069147
   6 H :   -0.010440
   7 H :    0.021685
Sum of atomic charges:   -0.0000000

LOEWDIN ATOMIC CHARGES
----------------------
   0 C :   -0.023414
   1 O :    0.021995
   2 C :   -0.058275
   3 C :    0.021917
   4 H :   -0.015801
   5 H :    0.000950
   6 H :    0.013127
   7 H :    0.039501

  Mayer bond orders larger than 0.100000
B(  0-C ,  1-O ) :   2.2337 B(  0-C ,  2-C ) :   0.9981 B(  0-C ,  4-H ) :   0.9278
B(  2-C ,  3-C ) :   2.0194 B(  2-C ,  5-H ) :   0.9630 B(  3-C ,  6-H ) :   0.9093
B(  3-C ,  7-H ) :   0.9410

-----------------------------------------------------------------------------
         ABSORPTION SPECTRUM VIA TRANSITION ELECTRIC DIPOLE MOMENTS
-----------------------------------------------------------------------------
State   Energy    Wavelength  fosc         T2        TX        TY        TZ
        (cm-1)      (nm)                 (au**2)    (au)      (au)      (au)
-----------------------------------------------------------------------------
   1   29731.4    336.3   0.000067442   0.00075  -0.00997  -0.01091   0.02298

FINAL SINGLE POINT ENERGY      -191.624106366761

DIPOLE MOMENT
-------------
                                X             Y             Z
Electronic contribution:     -1.94594      -1.57316       0.26498
Nuclear contribution   :      2.23717       2.40113      -0.35914
                        -----------------------------------------
Total Dipole Moment    :      0.29123       0.82798      -0.09417
                        -----------------------------------------
Magnitude (a.u.)       :      0.88274
Magnitude (Debye)      :      2.24375

Rotational constants in cm-1:     0.844509     0.204903     0.165142
Rotational constants in MHz : 25317.735845  6142.824341  4950.822764

                             ****ORCA TERMINATED NORMALLY****
TOTAL RUN TIME: 0 days 0 hours 3 minutes 17 seconds 638 msec
