                         Program Version 5.0.3 -  RELEASE  -
|  1> ! HF-3c
|  2> !TightSCF
|  3> %scf
|  4>  ConvForced true
|  5>  convergence tight
|  6>  MaxIter 500
|  7> end
|  8>
|  9> %tddft
| 10>  nroots 1
| 11> end
| 12>
| 13> # 	24872
| 14> * xyz 0 1
| 15> 		C   -0.572730  -0.438333   0.056334
| 16> 		O   -0.546009  -1.618275  -0.031950
| 17> 		C    0.587223   0.406058  -0.062466
| 18> 		C    1.824279  -0.143100   0.037117
| 19> 		H   -1.721150   0.341997   0.164746
| 20> 		H    0.556405   1.494839  -0.061860
| 21> 		H    1.880865  -1.183520   0.073078
| 22> 		H    2.976044   0.398045  -0.047517
| 23> *
| 24>
| 25>                          ****END OF INPUT****

CARTESIAN COORDINATES (ANGSTROEM)
---------------------------------
  C     -0.572730   -0.438333    0.056334
  O     -0.546009   -1.618275   -0.031950
  C      0.587223    0.406058   -0.062466
  C      1.824279   -0.143100    0.037117
  H     -1.721150    0.341997    0.164746
  H      0.556405    1.494839   -0.061860
  H      1.880865   -1.183520    0.073078
  H      2.976044    0.398045   -0.047517

 Total Charge           Charge          ....    0
 Multiplicity           Mult            ....    1
 Number of Electrons    NEL             ....   30
 Basis Dimension        Dim             ....   24

ORBITAL ENERGIES
----------------

  NO   OCC          E(Eh)            E(eV)
   0   2.0000     -20.363470      -554.1182
   1   2.0000     -11.297196      -307.4123
   2   2.0000     -11.189385      -304.4786
   3   2.0000     -11.178147      -304.1728
   4   2.0000      -1.416071       -38.5333
   5   2.0000      -1.070943       -29.1418
   6   2.0000      -0.866485       -23.5783
   7   2.0000      -0.726726       -19.7752
   8   2.0000      -0.671665       -18.2769
   9   2.0000      -0.610003       -16.5990
  10   2.0000      -0.563617       -15.3368
  11   2.0000      -0.547724       -14.9043
  12   2.0000      -0.512930       -13.9575
  13   2.0000      -0.385809       -10.4984
  14   2.0000      -0.380382       -10.3507
  15   0.0000       0.134487         3.6596
  16   0.0000       0.324032         8.8173
  17   0.0000       0.385330        10.4854
  18   0.0000       0.481985        13.1155
  19   0.0000       0.636175        17.3112

MULLIKEN ATOMIC CHARGES
-----------------------
   0 C :    0.206531
   1 O :   -0.375838
   2 C :   -0.203616
   3 C :   -0.184858
   4 H :    0.115445
   5 H :    0.142161
   6 H :    0.146250
   7 H :    0.153925
Sum of atomic charges:    0.0000000

LOEWDIN ATOMIC CHARGES
----------------------
   0 C :    0.156880
   1 O :   -0.271040
   2 C :   -0.163825
   3 C :   -0.091821
   4 H :    0.073945
   5 H :    0.091207
   6 H :    0.089151
   7 H :    0.115503

  Mayer bond orders larger than 0.100000
B(  0-C ,  1-O ) :   1.9068 B(  0-C ,  2-C ) :   1.0392 B(  0-C ,  4-H ) :   0.8789
B(  2-C ,  3-C ) :   1.9180 B(  2-C ,  5-H ) :   0.9600 B(  3-C ,  6-H ) :   0.9628
B(  3-C ,  7-H ) :   0.9584

-----------------------------------------------------------------------------
         ABSORPTION SPECTRUM VIA TRANSITION ELECTRIC DIPOLE MOMENTS
-----------------------------------------------------------------------------
State   Energy    Wavelength  fosc         T2        TX        TY        TZ
        (cm-1)      (nm)                 (au**2)    (au)      (au)      (au)
-----------------------------------------------------------------------------
   1   34164.7    292.7   0.000427763   0.00412   0.06014  -0.01176   0.01914

Dispersion correction           -0.026032483
FINAL SINGLE POINT ENERGY      -189.265224623102

DIPOLE MOMENT
-------------
                                X             Y             Z
Electronic contribution:     -1.84601      -1.79121      -0.03867
Nuclear contribution   :      2.30862       2.77262       0.12067
                        -----------------------------------------
Total Dipole Moment    :      0.46261       0.98141       0.08200
                        -----------------------------------------
Magnitude (a.u.)       :      1.08807
Magnitude (Debye)      :      2.76565

Rotational constants in cm-1:     0.731510     0.215799     0.167157
Rotational constants in MHz : 21930.123919  6469.492483  5011.246864

                             ****ORCA TERMINATED NORMALLY****
TOTAL RUN TIME: 0 days 0 hours 0 minutes 12 seconds 769 msec
