                         Program Version 5.0.3 -  RELEASE  -
|  1> ! B3LYP cc-pVDZ
|  2> !TightSCF
|  3> %scf
|  4>  ConvForced true
|  5>  convergence tight
|  6>  MaxIter 500
|  7> end
|  8>
|  9> %tddft
| 10>  nroots 1
| 11> end
| 12>
| 13> # 	7897
| 14> * xyz 0 1
| 15> 		C   -1.171370  -0.307097  -0.001655
| 16> 		O   -2.104013  -0.466055  -0.721686
| 17> 		C   -0.048075   0.382830  -0.281377
| 18> 		C    1.168531   0.047009   0.218294
| 19> 		H   -1.238053  -0.721206   0.911931
| 20> 		H   -0.103634   1.225279  -1.074228
| 21> 		H    1.340794  -0.785410   0.860670
| 22> 		H    2.218649   0.630803   0.108368
| 23> *
| 24>
| 25>                          ****END OF INPUT****

CARTESIAN COORDINATES (ANGSTROEM)
---------------------------------
  C     -1.171370   -0.307097   -0.001655
  O     -2.104013   -0.466055   -0.721686
  C     -0.048075    0.382830   -0.281377
  C      1.168531    0.047009    0.218294
  H     -1.238053   -0.721206    0.911931
  H     -0.103634    1.225279   -1.074228
  H      1.340794   -0.785410    0.860670
  H      2.218649    0.630803    0.108368

 Total Charge           Charge          ....    0
 Multiplicity           Mult            ....    1
 Number of Electrons    NEL             ....   30
 Basis Dimension        Dim             ....   76

ORBITAL ENERGIES
----------------

  NO   OCC          E(Eh)            E(eV)
   0   2.0000     -19.126317      -520.4535
   1   2.0000     -10.249978      -278.9161
   2   2.0000     -10.232110      -278.4299
   3   2.0000     -10.209646      -277.8186
   4   2.0000      -1.053930       -28.6789
   5   2.0000      -0.813953       -22.1488
   6   2.0000      -0.663128       -18.0446
   7   2.0000      -0.579812       -15.7775
   8   2.0000      -0.497498       -13.5376
   9   2.0000      -0.464971       -12.6525
  10   2.0000      -0.427943       -11.6449
  11   2.0000      -0.392162       -10.6713
  12   2.0000      -0.376711       -10.2508
  13   2.0000      -0.290061        -7.8930
  14   2.0000      -0.250381        -6.8132
  15   0.0000      -0.071357        -1.9417
  16   0.0000       0.043491         1.1834
  17   0.0000       0.072251         1.9660
  18   0.0000       0.080061         2.1786
  19   0.0000       0.127971         3.4823

MULLIKEN ATOMIC CHARGES
-----------------------
   0 C :    0.236546
   1 O :   -0.191550
   2 C :   -0.071850
   3 C :   -0.010868
   4 H :   -0.074171
   5 H :    0.026786
   6 H :    0.022728
   7 H :    0.062379
Sum of atomic charges:   -0.0000000

LOEWDIN ATOMIC CHARGES
----------------------
   0 C :   -0.079935
   1 O :    0.023493
   2 C :   -0.061233
   3 C :    0.009993
   4 H :   -0.019479
   5 H :    0.053776
   6 H :    0.019258
   7 H :    0.054127

  Mayer bond orders larger than 0.100000
B(  0-C ,  1-O ) :   2.1762 B(  0-C ,  2-C ) :   1.1345 B(  0-C ,  4-H ) :   0.9403
B(  1-O ,  3-C ) :   0.1099 B(  2-C ,  3-C ) :   1.8977 B(  2-C ,  5-H ) :   0.9292
B(  3-C ,  6-H ) :   0.9498 B(  3-C ,  7-H ) :   0.9493

-----------------------------------------------------------------------------
         ABSORPTION SPECTRUM VIA TRANSITION ELECTRIC DIPOLE MOMENTS
-----------------------------------------------------------------------------
State   Energy    Wavelength  fosc         T2        TX        TY        TZ
        (cm-1)      (nm)                 (au**2)    (au)      (au)      (au)
-----------------------------------------------------------------------------
   1   26882.5    372.0   0.000230019   0.00282  -0.05292  -0.00119  -0.00384

FINAL SINGLE POINT ENERGY      -191.648675068133

DIPOLE MOMENT
-------------
                                X             Y             Z
Electronic contribution:     -3.14379      -0.49354      -1.00139
Nuclear contribution   :      4.20249       0.69930       1.51971
                        -----------------------------------------
Total Dipole Moment    :      1.05870       0.20576       0.51831
                        -----------------------------------------
Magnitude (a.u.)       :      1.19659
Magnitude (Debye)      :      3.04150

Rotational constants in cm-1:     1.597882     0.162345     0.151314
Rotational constants in MHz : 47903.285886  4866.978901  4536.288691

                             ****ORCA TERMINATED NORMALLY****
TOTAL RUN TIME: 0 days 0 hours 3 minutes 27 seconds 113 msec
