                         Program Version 5.0.3 -  RELEASE  -
|  1> ! B3LYP cc-pVDZ
|  2> !TightSCF
|  3> %scf
|  4>  ConvForced true
|  5>  convergence tight
|  6>  MaxIter 500
|  7> end
|  8>
|  9> %tddft
| 10>  nroots 1
| 11> end
| 12>
| 13> # 	6866
| 14> * xyz 0 1
| 15> 		C   -1.167229  -0.290460  -0.002372
| 16> 		O   -1.484996  -1.231437  -0.751291
| 17> 		C    0.018242   0.520289  -0.216363
| 18> 		C    1.224138  -0.011790   0.125360
| 19> 		H   -1.820093   0.001975   0.873509
| 20> 		H   -0.142756   1.397311  -0.642895
| 21> 		H    1.292778  -0.983013   0.560138
| 22> 		H    2.109474   0.663441   0.102865
| 23> *
| 24>
| 25>                          ****END OF INPUT****

CARTESIAN COORDINATES (ANGSTROEM)
---------------------------------
  C     -1.167229   -0.290460   -0.002372
  O     -1.484996   -1.231437   -0.751291
  C      0.018242    0.520289   -0.216363
  C      1.224138   -0.011790    0.125360
  H     -1.820093    0.001975    0.873509
  H     -0.142756    1.397311   -0.642895
  H      1.292778   -0.983013    0.560138
  H      2.109474    0.663441    0.102865

 Total Charge           Charge          ....    0
 Multiplicity           Mult            ....    1
 Number of Electrons    NEL             ....   30
 Basis Dimension        Dim             ....   76

ORBITAL ENERGIES
----------------

  NO   OCC          E(Eh)            E(eV)
   0   2.0000     -19.142233      -520.8866
   1   2.0000     -10.280444      -279.7451
   2   2.0000     -10.210258      -277.8353
   3   2.0000     -10.200806      -277.5781
   4   2.0000      -1.031243       -28.0615
   5   2.0000      -0.800516       -21.7831
   6   2.0000      -0.657615       -17.8946
   7   2.0000      -0.566899       -15.4261
   8   2.0000      -0.500828       -13.6282
   9   2.0000      -0.450853       -12.2683
  10   2.0000      -0.439519       -11.9599
  11   2.0000      -0.398411       -10.8413
  12   2.0000      -0.365135        -9.9358
  13   2.0000      -0.284658        -7.7459
  14   2.0000      -0.252873        -6.8810
  15   0.0000      -0.038928        -1.0593
  16   0.0000      -0.018106        -0.4927
  17   0.0000       0.082531         2.2458
  18   0.0000       0.095620         2.6020
  19   0.0000       0.106917         2.9094

MULLIKEN ATOMIC CHARGES
-----------------------
   0 C :    0.149944
   1 O :   -0.210681
   2 C :   -0.001610
   3 C :    0.031648
   4 H :    0.000356
   5 H :   -0.029373
   6 H :    0.022408
   7 H :    0.037307
Sum of atomic charges:   -0.0000000

LOEWDIN ATOMIC CHARGES
----------------------
   0 C :   -0.002298
   1 O :   -0.025417
   2 C :   -0.033123
   3 C :   -0.006817
   4 H :    0.001191
   5 H :    0.006239
   6 H :    0.023698
   7 H :    0.036528

  Mayer bond orders larger than 0.100000
B(  0-C ,  1-O ) :   2.1923 B(  0-C ,  2-C ) :   1.0137 B(  0-C ,  4-H ) :   0.9125
B(  2-C ,  3-C ) :   2.0133 B(  2-C ,  5-H ) :   0.9456 B(  3-C ,  6-H ) :   0.9455
B(  3-C ,  7-H ) :   0.9490

-----------------------------------------------------------------------------
         ABSORPTION SPECTRUM VIA TRANSITION ELECTRIC DIPOLE MOMENTS
-----------------------------------------------------------------------------
State   Energy    Wavelength  fosc         T2        TX        TY        TZ
        (cm-1)      (nm)                 (au**2)    (au)      (au)      (au)
-----------------------------------------------------------------------------
   1   31516.4    317.3   0.000138474   0.00145  -0.01928  -0.03277   0.00070

FINAL SINGLE POINT ENERGY      -191.639778114251

DIPOLE MOMENT
-------------
                                X             Y             Z
Electronic contribution:     -2.32762      -1.29719      -1.13519
Nuclear contribution   :      2.76686       2.06958       1.64983
                        -----------------------------------------
Total Dipole Moment    :      0.43924       0.77239       0.51464
                        -----------------------------------------
Magnitude (a.u.)       :      1.02683
Magnitude (Debye)      :      2.60999

Rotational constants in cm-1:     0.866028     0.182506     0.165072
Rotational constants in MHz : 25962.851510  5471.400759  4948.748641

                             ****ORCA TERMINATED NORMALLY****
TOTAL RUN TIME: 0 days 0 hours 3 minutes 20 seconds 554 msec
