                         Program Version 5.0.3 -  RELEASE  -
|  1> ! HF-3c
|  2> !TightSCF
|  3> %scf
|  4>  ConvForced true
|  5>  convergence tight
|  6>  MaxIter 500
|  7> end
|  8>
|  9> %tddft
| 10>  nroots 1
| 11> end
| 12>
| 13> # 	721
| 14> * xyz 0 1
| 15> 		C   -1.181889  -0.363178   0.057704
| 16> 		O   -1.244365  -1.534122  -0.161473
| 17> 		C   -0.001881   0.508493  -0.100160
| 18> 		C    1.194084  -0.044805  -0.010443
| 19> 		H   -2.220491   0.281812   0.272059
| 20> 		H    0.017212   1.679982  -0.306891
| 21> 		H    1.370271  -1.180380   0.253376
| 22> 		H    2.027483   0.664029   0.048534
| 23> *
| 24>
| 25>                          ****END OF INPUT****

CARTESIAN COORDINATES (ANGSTROEM)
---------------------------------
  C     -1.181889   -0.363178    0.057704
  O     -1.244365   -1.534122   -0.161473
  C     -0.001881    0.508493   -0.100160
  C      1.194084   -0.044805   -0.010443
  H     -2.220491    0.281812    0.272059
  H      0.017212    1.679982   -0.306891
  H      1.370271   -1.180380    0.253376
  H      2.027483    0.664029    0.048534

 Total Charge           Charge          ....    0
 Multiplicity           Mult            ....    1
 Number of Electrons    NEL             ....   30
 Basis Dimension        Dim             ....   24

ORBITAL ENERGIES
----------------

  NO   OCC          E(Eh)            E(eV)
   0   2.0000     -20.365616      -554.1766
   1   2.0000     -11.296106      -307.3827
   2   2.0000     -11.181848      -304.2736
   3   2.0000     -11.179983      -304.2228
   4   2.0000      -1.409961       -38.3670
   5   2.0000      -1.076020       -29.2800
   6   2.0000      -0.866598       -23.5813
   7   2.0000      -0.711379       -19.3576
   8   2.0000      -0.689898       -18.7731
   9   2.0000      -0.603100       -16.4112
  10   2.0000      -0.581189       -15.8150
  11   2.0000      -0.540760       -14.7148
  12   2.0000      -0.511213       -13.9108
  13   2.0000      -0.396326       -10.7846
  14   2.0000      -0.391903       -10.6642
  15   0.0000       0.146159         3.9772
  16   0.0000       0.308394         8.3918
  17   0.0000       0.491731        13.3807
  18   0.0000       0.535419        14.5695
  19   0.0000       0.566566        15.4171

MULLIKEN ATOMIC CHARGES
-----------------------
   0 C :    0.191080
   1 O :   -0.366673
   2 C :   -0.182716
   3 C :   -0.210266
   4 H :    0.120790
   5 H :    0.151378
   6 H :    0.158652
   7 H :    0.137756
Sum of atomic charges:    0.0000000

LOEWDIN ATOMIC CHARGES
----------------------
   0 C :    0.156390
   1 O :   -0.265514
   2 C :   -0.148099
   3 C :   -0.119371
   4 H :    0.068577
   5 H :    0.107083
   6 H :    0.111775
   7 H :    0.089160

  Mayer bond orders larger than 0.100000
B(  0-C ,  1-O ) :   1.9163 B(  0-C ,  2-C ) :   1.0184 B(  0-C ,  4-H ) :   0.9048
B(  2-C ,  3-C ) :   1.9472 B(  2-C ,  5-H ) :   0.9516 B(  3-C ,  6-H ) :   0.9555
B(  3-C ,  7-H ) :   0.9648

-----------------------------------------------------------------------------
         ABSORPTION SPECTRUM VIA TRANSITION ELECTRIC DIPOLE MOMENTS
-----------------------------------------------------------------------------
State   Energy    Wavelength  fosc         T2        TX        TY        TZ
        (cm-1)      (nm)                 (au**2)    (au)      (au)      (au)
-----------------------------------------------------------------------------
   1   34214.3    292.3   0.000292403   0.00281   0.05260  -0.00359   0.00582

Dispersion correction           -0.025384403
FINAL SINGLE POINT ENERGY      -189.304603357745

DIPOLE MOMENT
-------------
                                X             Y             Z
Electronic contribution:     -1.95835      -1.82630      -0.24278
Nuclear contribution   :      2.35084       2.80374       0.44639
                        -----------------------------------------
Total Dipole Moment    :      0.39250       0.97744       0.20361
                        -----------------------------------------
Magnitude (a.u.)       :      1.07280
Magnitude (Debye)      :      2.72685

Rotational constants in cm-1:     0.765187     0.207156     0.164996
Rotational constants in MHz : 22939.738079  6210.378723  4946.448030

                             ****ORCA TERMINATED NORMALLY****
TOTAL RUN TIME: 0 days 0 hours 0 minutes 11 seconds 727 msec
