                         Program Version 5.0.3 -  RELEASE  -
|  1> ! HF-3c
|  2> !TightSCF
|  3> %scf
|  4>  ConvForced true
|  5>  convergence tight
|  6>  MaxIter 500
|  7> end
|  8>
|  9> %tddft
| 10>  nroots 1
| 11> end
| 12>
| 13> # 	29032
| 14> * xyz 0 1
| 15> 		C   -0.575022  -0.424072   0.055727
| 16> 		O   -0.606288  -1.648234  -0.043040
| 17> 		C    0.641517   0.386044  -0.039179
| 18> 		C    1.875611  -0.095655   0.030789
| 19> 		H   -1.630519   0.093599   0.264447
| 20> 		H    0.453199   1.466422  -0.259851
| 21> 		H    1.952248  -1.125484   0.170030
| 22> 		H    2.664597   0.565152  -0.078126
| 23> *
| 24>
| 25>                          ****END OF INPUT****

CARTESIAN COORDINATES (ANGSTROEM)
---------------------------------
  C     -0.575022   -0.424072    0.055727
  O     -0.606288   -1.648234   -0.043040
  C      0.641517    0.386044   -0.039179
  C      1.875611   -0.095655    0.030789
  H     -1.630519    0.093599    0.264447
  H      0.453199    1.466422   -0.259851
  H      1.952248   -1.125484    0.170030
  H      2.664597    0.565152   -0.078126

 Total Charge           Charge          ....    0
 Multiplicity           Mult            ....    1
 Number of Electrons    NEL             ....   30
 Basis Dimension        Dim             ....   24

ORBITAL ENERGIES
----------------

  NO   OCC          E(Eh)            E(eV)
   0   2.0000     -20.355615      -553.9044
   1   2.0000     -11.287701      -307.1540
   2   2.0000     -11.196240      -304.6652
   3   2.0000     -11.194483      -304.6174
   4   2.0000      -1.386240       -37.7215
   5   2.0000      -1.088174       -29.6107
   6   2.0000      -0.894602       -24.3433
   7   2.0000      -0.735860       -20.0238
   8   2.0000      -0.707063       -19.2402
   9   2.0000      -0.614075       -16.7098
  10   2.0000      -0.603861       -16.4319
  11   2.0000      -0.541332       -14.7304
  12   2.0000      -0.520580       -14.1657
  13   2.0000      -0.409449       -11.1417
  14   2.0000      -0.398362       -10.8400
  15   0.0000       0.128056         3.4846
  16   0.0000       0.305758         8.3201
  17   0.0000       0.514313        13.9952
  18   0.0000       0.619972        16.8703
  19   0.0000       0.672267        18.2933

MULLIKEN ATOMIC CHARGES
-----------------------
   0 C :    0.161253
   1 O :   -0.352869
   2 C :   -0.162181
   3 C :   -0.242393
   4 H :    0.137102
   5 H :    0.142641
   6 H :    0.163837
   7 H :    0.152610
Sum of atomic charges:   -0.0000000

LOEWDIN ATOMIC CHARGES
----------------------
   0 C :    0.139284
   1 O :   -0.263716
   2 C :   -0.118434
   3 C :   -0.133859
   4 H :    0.081542
   5 H :    0.092788
   6 H :    0.105270
   7 H :    0.097125

  Mayer bond orders larger than 0.100000
B(  0-C ,  1-O ) :   1.9018 B(  0-C ,  2-C ) :   1.0340 B(  0-C ,  4-H ) :   0.9209
B(  2-C ,  3-C ) :   1.9466 B(  2-C ,  5-H ) :   0.9571 B(  3-C ,  6-H ) :   0.9587
B(  3-C ,  7-H ) :   0.9644

-----------------------------------------------------------------------------
         ABSORPTION SPECTRUM VIA TRANSITION ELECTRIC DIPOLE MOMENTS
-----------------------------------------------------------------------------
State   Energy    Wavelength  fosc         T2        TX        TY        TZ
        (cm-1)      (nm)                 (au**2)    (au)      (au)      (au)
-----------------------------------------------------------------------------
   1   31038.2    322.2   0.000021849   0.00023   0.00620   0.00110  -0.01386

Dispersion correction           -0.025661045
FINAL SINGLE POINT ENERGY      -189.341092588519

DIPOLE MOMENT
-------------
                                X             Y             Z
Electronic contribution:     -1.82154      -1.74502      -0.03226
Nuclear contribution   :      2.06922       2.72576       0.09143
                        -----------------------------------------
Total Dipole Moment    :      0.24768       0.98074       0.05916
                        -----------------------------------------
Magnitude (a.u.)       :      1.01326
Magnitude (Debye)      :      2.57551

Rotational constants in cm-1:     0.790560     0.202452     0.162015
Rotational constants in MHz : 23700.385947  6069.356104  4857.086270

                             ****ORCA TERMINATED NORMALLY****
TOTAL RUN TIME: 0 days 0 hours 0 minutes 10 seconds 20 msec
