                         Program Version 5.0.3 -  RELEASE  -
|  1> ! B3LYP cc-pVDZ
|  2> !TightSCF
|  3> %scf
|  4>  ConvForced true
|  5>  convergence tight
|  6>  MaxIter 500
|  7> end
|  8>
|  9> %tddft
| 10>  nroots 1
| 11> end
| 12>
| 13> # 	21779
| 14> * xyz 0 1
| 15> 		C   -0.570019  -0.406651  -0.032827
| 16> 		O   -0.579654  -1.603891   0.002308
| 17> 		C    0.664250   0.356677   0.017720
| 18> 		C    1.794635  -0.121440   0.011002
| 19> 		H   -1.620625   0.037839   0.239817
| 20> 		H    0.444612   1.456660  -0.180707
| 21> 		H    2.127730  -1.190702  -0.067265
| 22> 		H    2.702128   0.473647   0.010929
| 23> *
| 24>
| 25>                          ****END OF INPUT****

CARTESIAN COORDINATES (ANGSTROEM)
---------------------------------
  C     -0.570019   -0.406651   -0.032827
  O     -0.579654   -1.603891    0.002308
  C      0.664250    0.356677    0.017720
  C      1.794635   -0.121440    0.011002
  H     -1.620625    0.037839    0.239817
  H      0.444612    1.456660   -0.180707
  H      2.127730   -1.190702   -0.067265
  H      2.702128    0.473647    0.010929

 Total Charge           Charge          ....    0
 Multiplicity           Mult            ....    1
 Number of Electrons    NEL             ....   30
 Basis Dimension        Dim             ....   76

ORBITAL ENERGIES
----------------

  NO   OCC          E(Eh)            E(eV)
   0   2.0000     -19.133604      -520.6518
   1   2.0000     -10.272123      -279.5187
   2   2.0000     -10.202471      -277.6234
   3   2.0000     -10.197152      -277.4786
   4   2.0000      -1.053053       -28.6550
   5   2.0000      -0.817151       -22.2358
   6   2.0000      -0.655640       -17.8409
   7   2.0000      -0.537693       -14.6314
   8   2.0000      -0.507034       -13.7971
   9   2.0000      -0.465766       -12.6741
  10   2.0000      -0.426125       -11.5955
  11   2.0000      -0.403586       -10.9821
  12   2.0000      -0.357536        -9.7291
  13   2.0000      -0.304297        -8.2804
  14   2.0000      -0.249020        -6.7762
  15   0.0000      -0.062458        -1.6996
  16   0.0000       0.049154         1.3375
  17   0.0000       0.078986         2.1493
  18   0.0000       0.093729         2.5505
  19   0.0000       0.110326         3.0021

MULLIKEN ATOMIC CHARGES
-----------------------
   0 C :    0.129227
   1 O :   -0.174449
   2 C :   -0.096048
   3 C :    0.096383
   4 H :   -0.015094
   5 H :    0.001142
   6 H :    0.036505
   7 H :    0.022335
Sum of atomic charges:   -0.0000000

LOEWDIN ATOMIC CHARGES
----------------------
   0 C :   -0.049362
   1 O :    0.008892
   2 C :   -0.100138
   3 C :    0.014987
   4 H :    0.001472
   5 H :    0.042830
   6 H :    0.044706
   7 H :    0.036613

  Mayer bond orders larger than 0.100000
B(  0-C ,  1-O ) :   2.2139 B(  0-C ,  2-C ) :   1.0445 B(  0-C ,  4-H ) :   0.9160
B(  2-C ,  3-C ) :   2.0176 B(  2-C ,  5-H ) :   0.9252 B(  3-C ,  6-H ) :   0.9299
B(  3-C ,  7-H ) :   0.9229

-----------------------------------------------------------------------------
         ABSORPTION SPECTRUM VIA TRANSITION ELECTRIC DIPOLE MOMENTS
-----------------------------------------------------------------------------
State   Energy    Wavelength  fosc         T2        TX        TY        TZ
        (cm-1)      (nm)                 (au**2)    (au)      (au)      (au)
-----------------------------------------------------------------------------
   1   27503.6    363.6   0.000673002   0.00806   0.06444   0.01080  -0.06153

FINAL SINGLE POINT ENERGY      -191.648653749311

DIPOLE MOMENT
-------------
                                X             Y             Z
Electronic contribution:     -1.82839      -1.70961      -0.05985
Nuclear contribution   :      2.27050       2.51574       0.00328
                        -----------------------------------------
Total Dipole Moment    :      0.44212       0.80614      -0.05657
                        -----------------------------------------
Magnitude (a.u.)       :      0.92116
Magnitude (Debye)      :      2.34139

Rotational constants in cm-1:     0.820009     0.215596     0.171107
Rotational constants in MHz : 24583.245264  6463.417275  5129.662081

                             ****ORCA TERMINATED NORMALLY****
TOTAL RUN TIME: 0 days 0 hours 3 minutes 27 seconds 361 msec
