                         Program Version 5.0.3 -  RELEASE  -
|  1> ! HF-3c
|  2> !TightSCF
|  3> %scf
|  4>  ConvForced true
|  5>  convergence tight
|  6>  MaxIter 500
|  7> end
|  8>
|  9> %tddft
| 10>  nroots 1
| 11> end
| 12>
| 13> # 	31436
| 14> * xyz 0 1
| 15> 		C   -0.560022  -0.456296   0.044537
| 16> 		O   -0.568358  -1.607150  -0.026413
| 17> 		C    0.604761   0.443027  -0.024198
| 18> 		C    1.836345  -0.144537  -0.002787
| 19> 		H   -1.608649   0.106293   0.062844
| 20> 		H    0.339457   1.475879  -0.074203
| 21> 		H    1.905043  -1.291720   0.217552
| 22> 		H    2.900470   0.350952  -0.004158
| 23> *
| 24>
| 25>                          ****END OF INPUT****

CARTESIAN COORDINATES (ANGSTROEM)
---------------------------------
  C     -0.560022   -0.456296    0.044537
  O     -0.568358   -1.607150   -0.026413
  C      0.604761    0.443027   -0.024198
  C      1.836345   -0.144537   -0.002787
  H     -1.608649    0.106293    0.062844
  H      0.339457    1.475879   -0.074203
  H      1.905043   -1.291720    0.217552
  H      2.900470    0.350952   -0.004158

 Total Charge           Charge          ....    0
 Multiplicity           Mult            ....    1
 Number of Electrons    NEL             ....   30
 Basis Dimension        Dim             ....   24

ORBITAL ENERGIES
----------------

  NO   OCC          E(Eh)            E(eV)
   0   2.0000     -20.369690      -554.2874
   1   2.0000     -11.300183      -307.4936
   2   2.0000     -11.191834      -304.5453
   3   2.0000     -11.179915      -304.2209
   4   2.0000      -1.439015       -39.1576
   5   2.0000      -1.063455       -28.9381
   6   2.0000      -0.870163       -23.6783
   7   2.0000      -0.727027       -19.7834
   8   2.0000      -0.699151       -19.0249
   9   2.0000      -0.614603       -16.7242
  10   2.0000      -0.586232       -15.9522
  11   2.0000      -0.562564       -15.3082
  12   2.0000      -0.516498       -14.0546
  13   2.0000      -0.393126       -10.6975
  14   2.0000      -0.386410       -10.5147
  15   0.0000       0.141286         3.8446
  16   0.0000       0.321239         8.7414
  17   0.0000       0.492308        13.3964
  18   0.0000       0.569678        15.5017
  19   0.0000       0.627739        17.0817

MULLIKEN ATOMIC CHARGES
-----------------------
   0 C :    0.195804
   1 O :   -0.377921
   2 C :   -0.199332
   3 C :   -0.182198
   4 H :    0.117261
   5 H :    0.143215
   6 H :    0.156772
   7 H :    0.146399
Sum of atomic charges:   -0.0000000

LOEWDIN ATOMIC CHARGES
----------------------
   0 C :    0.152985
   1 O :   -0.263202
   2 C :   -0.158674
   3 C :   -0.092011
   4 H :    0.060271
   5 H :    0.090375
   6 H :    0.108946
   7 H :    0.101310

  Mayer bond orders larger than 0.100000
B(  0-C ,  1-O ) :   1.9094 B(  0-C ,  2-C ) :   1.0162 B(  0-C ,  4-H ) :   0.9084
B(  2-C ,  3-C ) :   1.9341 B(  2-C ,  5-H ) :   0.9612 B(  3-C ,  6-H ) :   0.9552
B(  3-C ,  7-H ) :   0.9618

-----------------------------------------------------------------------------
         ABSORPTION SPECTRUM VIA TRANSITION ELECTRIC DIPOLE MOMENTS
-----------------------------------------------------------------------------
State   Energy    Wavelength  fosc         T2        TX        TY        TZ
        (cm-1)      (nm)                 (au**2)    (au)      (au)      (au)
-----------------------------------------------------------------------------
   1   35774.9    279.5   0.000061474   0.00057   0.02045  -0.00040   0.01214

Dispersion correction           -0.025581124
FINAL SINGLE POINT ENERGY      -189.304836917695

DIPOLE MOMENT
-------------
                                X             Y             Z
Electronic contribution:     -1.70787      -1.55097      -0.10409
Nuclear contribution   :      2.16251       2.38980       0.18970
                        -----------------------------------------
Total Dipole Moment    :      0.45464       0.83884       0.08561
                        -----------------------------------------
Magnitude (a.u.)       :      0.95795
Magnitude (Debye)      :      2.43493

Rotational constants in cm-1:     0.746392     0.214493     0.166940
Rotational constants in MHz : 22376.271864  6430.345883  5004.744289

                             ****ORCA TERMINATED NORMALLY****
TOTAL RUN TIME: 0 days 0 hours 0 minutes 11 seconds 870 msec
