                         Program Version 5.0.3 -  RELEASE  -
|  1> ! B3LYP cc-pVDZ
|  2> !TightSCF
|  3> %scf
|  4>  ConvForced true
|  5>  convergence tight
|  6>  MaxIter 500
|  7> end
|  8>
|  9> %tddft
| 10>  nroots 1
| 11> end
| 12>
| 13> # 	8278
| 14> * xyz 0 1
| 15> 		C   -1.143450  -0.371211   0.049677
| 16> 		O   -2.202685  -0.452219   0.666891
| 17> 		C    0.014025   0.362284   0.346132
| 18> 		C    1.151309   0.165363  -0.315943
| 19> 		H   -1.139937  -0.929118  -0.879337
| 20> 		H   -0.032332   1.083808   1.272734
| 21> 		H    1.330849  -0.693360  -0.980404
| 22> 		H    2.085439   0.838144  -0.111292
| 23> *
| 24>
| 25>                          ****END OF INPUT****

CARTESIAN COORDINATES (ANGSTROEM)
---------------------------------
  C     -1.143450   -0.371211    0.049677
  O     -2.202685   -0.452219    0.666891
  C      0.014025    0.362284    0.346132
  C      1.151309    0.165363   -0.315943
  H     -1.139937   -0.929118   -0.879337
  H     -0.032332    1.083808    1.272734
  H      1.330849   -0.693360   -0.980404
  H      2.085439    0.838144   -0.111292

 Total Charge           Charge          ....    0
 Multiplicity           Mult            ....    1
 Number of Electrons    NEL             ....   30
 Basis Dimension        Dim             ....   76

ORBITAL ENERGIES
----------------

  NO   OCC          E(Eh)            E(eV)
   0   2.0000     -19.130865      -520.5773
   1   2.0000     -10.264292      -279.3056
   2   2.0000     -10.233213      -278.4599
   3   2.0000     -10.215928      -277.9895
   4   2.0000      -1.031280       -28.0626
   5   2.0000      -0.815690       -22.1961
   6   2.0000      -0.655810       -17.8455
   7   2.0000      -0.565438       -15.3864
   8   2.0000      -0.484965       -13.1966
   9   2.0000      -0.466841       -12.7034
  10   2.0000      -0.411487       -11.1971
  11   2.0000      -0.393353       -10.7037
  12   2.0000      -0.384788       -10.4706
  13   2.0000      -0.294692        -8.0190
  14   2.0000      -0.249663        -6.7937
  15   0.0000      -0.075095        -2.0434
  16   0.0000       0.052471         1.4278
  17   0.0000       0.057767         1.5719
  18   0.0000       0.073603         2.0028
  19   0.0000       0.126408         3.4397

MULLIKEN ATOMIC CHARGES
-----------------------
   0 C :    0.190781
   1 O :   -0.216396
   2 C :   -0.079854
   3 C :    0.018755
   4 H :   -0.043500
   5 H :    0.029766
   6 H :    0.042036
   7 H :    0.058411
Sum of atomic charges:   -0.0000000

LOEWDIN ATOMIC CHARGES
----------------------
   0 C :   -0.049575
   1 O :   -0.020370
   2 C :   -0.072543
   3 C :    0.011438
   4 H :   -0.007572
   5 H :    0.053607
   6 H :    0.034087
   7 H :    0.050927

  Mayer bond orders larger than 0.100000
B(  0-C ,  1-O ) :   2.1347 B(  0-C ,  2-C ) :   1.1252 B(  0-C ,  4-H ) :   0.9367
B(  1-O ,  3-C ) :   0.1129 B(  2-C ,  3-C ) :   1.9027 B(  2-C ,  5-H ) :   0.9287
B(  3-C ,  6-H ) :   0.9416 B(  3-C ,  7-H ) :   0.9373

-----------------------------------------------------------------------------
         ABSORPTION SPECTRUM VIA TRANSITION ELECTRIC DIPOLE MOMENTS
-----------------------------------------------------------------------------
State   Energy    Wavelength  fosc         T2        TX        TY        TZ
        (cm-1)      (nm)                 (au**2)    (au)      (au)      (au)
-----------------------------------------------------------------------------
   1   25732.0    388.6   0.000106724   0.00137   0.03008  -0.01428   0.01602

FINAL SINGLE POINT ENERGY      -191.678483601586

DIPOLE MOMENT
-------------
                                X             Y             Z
Electronic contribution:     -3.06669      -0.43792       0.96198
Nuclear contribution   :      4.27122       0.61392      -1.37942
                        -----------------------------------------
Total Dipole Moment    :      1.20452       0.17600      -0.41744
                        -----------------------------------------
Magnitude (a.u.)       :      1.28690
Magnitude (Debye)      :      3.27104

Rotational constants in cm-1:     1.641943     0.155628     0.142819
Rotational constants in MHz : 49224.225027  4665.608771  4281.601553

                             ****ORCA TERMINATED NORMALLY****
TOTAL RUN TIME: 0 days 0 hours 3 minutes 27 seconds 630 msec
