                         Program Version 5.0.3 -  RELEASE  -
|  1> ! B3LYP cc-pVDZ
|  2> !TightSCF
|  3> %scf
|  4>  ConvForced true
|  5>  convergence tight
|  6>  MaxIter 500
|  7> end
|  8>
|  9> %tddft
| 10>  nroots 1
| 11> end
| 12>
| 13> # 	31578
| 14> * xyz 0 1
| 15> 		C   -0.590654  -0.413011   0.084047
| 16> 		O   -0.546701  -1.630787  -0.052221
| 17> 		C    0.638396   0.399127  -0.055908
| 18> 		C    1.786597  -0.121837   0.016765
| 19> 		H   -1.544392   0.072522   0.218699
| 20> 		H    0.710723   1.601905  -0.229380
| 21> 		H    1.808149  -1.266352   0.277354
| 22> 		H    2.833686   0.333419   0.009420
| 23> *
| 24>
| 25>                          ****END OF INPUT****

CARTESIAN COORDINATES (ANGSTROEM)
---------------------------------
  C     -0.590654   -0.413011    0.084047
  O     -0.546701   -1.630787   -0.052221
  C      0.638396    0.399127   -0.055908
  C      1.786597   -0.121837    0.016765
  H     -1.544392    0.072522    0.218699
  H      0.710723    1.601905   -0.229380
  H      1.808149   -1.266352    0.277354
  H      2.833686    0.333419    0.009420

 Total Charge           Charge          ....    0
 Multiplicity           Mult            ....    1
 Number of Electrons    NEL             ....   30
 Basis Dimension        Dim             ....   76

ORBITAL ENERGIES
----------------

  NO   OCC          E(Eh)            E(eV)
   0   2.0000     -19.140843      -520.8488
   1   2.0000     -10.279604      -279.7222
   2   2.0000     -10.208647      -277.7914
   3   2.0000     -10.205186      -277.6972
   4   2.0000      -1.042487       -28.3675
   5   2.0000      -0.803894       -21.8751
   6   2.0000      -0.651420       -17.7260
   7   2.0000      -0.537797       -14.6342
   8   2.0000      -0.505074       -13.7438
   9   2.0000      -0.445671       -12.1273
  10   2.0000      -0.428238       -11.6530
  11   2.0000      -0.396892       -10.8000
  12   2.0000      -0.343584        -9.3494
  13   2.0000      -0.297273        -8.0892
  14   2.0000      -0.261354        -7.1118
  15   0.0000      -0.064117        -1.7447
  16   0.0000       0.049908         1.3581
  17   0.0000       0.066524         1.8102
  18   0.0000       0.090339         2.4582
  19   0.0000       0.107908         2.9363

MULLIKEN ATOMIC CHARGES
-----------------------
   0 C :    0.218227
   1 O :   -0.202978
   2 C :   -0.138077
   3 C :    0.030713
   4 H :   -0.009750
   5 H :    0.013841
   6 H :    0.044752
   7 H :    0.043272
Sum of atomic charges:    0.0000000

LOEWDIN ATOMIC CHARGES
----------------------
   0 C :   -0.008030
   1 O :   -0.012598
   2 C :   -0.108055
   3 C :   -0.002881
   4 H :   -0.002019
   5 H :    0.049076
   6 H :    0.042769
   7 H :    0.041737

  Mayer bond orders larger than 0.100000
B(  0-C ,  1-O ) :   2.1661 B(  0-C ,  2-C ) :   1.0141 B(  0-C ,  4-H ) :   0.9350
B(  2-C ,  3-C ) :   1.9946 B(  2-C ,  5-H ) :   0.9235 B(  3-C ,  6-H ) :   0.9170
B(  3-C ,  7-H ) :   0.9413

-----------------------------------------------------------------------------
         ABSORPTION SPECTRUM VIA TRANSITION ELECTRIC DIPOLE MOMENTS
-----------------------------------------------------------------------------
State   Energy    Wavelength  fosc         T2        TX        TY        TZ
        (cm-1)      (nm)                 (au**2)    (au)      (au)      (au)
-----------------------------------------------------------------------------
   1   29467.1    339.4   0.000111123   0.00124  -0.01952   0.01086   0.02725

FINAL SINGLE POINT ENERGY      -191.647528898388

DIPOLE MOMENT
-------------
                                X             Y             Z
Electronic contribution:     -2.10943      -1.60787      -0.14566
Nuclear contribution   :      2.41390       2.48416       0.25945
                        -----------------------------------------
Total Dipole Moment    :      0.30447       0.87629       0.11379
                        -----------------------------------------
Magnitude (a.u.)       :      0.93463
Magnitude (Debye)      :      2.37565

Rotational constants in cm-1:     0.768832     0.215903     0.169747
Rotational constants in MHz : 23048.992092  6472.602652  5088.877517

                             ****ORCA TERMINATED NORMALLY****
TOTAL RUN TIME: 0 days 0 hours 3 minutes 23 seconds 126 msec
