                         Program Version 5.0.3 -  RELEASE  -
|  1> ! HF-3c
|  2> !TightSCF
|  3> %scf
|  4>  ConvForced true
|  5>  convergence tight
|  6>  MaxIter 500
|  7> end
|  8>
|  9> %tddft
| 10>  nroots 1
| 11> end
| 12>
| 13> # 	27945
| 14> * xyz 0 1
| 15> 		C   -0.616934  -0.410845  -0.017174
| 16> 		O   -0.539919  -1.603559   0.022843
| 17> 		C    0.664539   0.388217   0.021693
| 18> 		C    1.790107  -0.171307   0.007439
| 19> 		H   -1.557387   0.169867  -0.215904
| 20> 		H    0.498551   1.506659   0.019566
| 21> 		H    2.071220  -1.098577  -0.352722
| 22> 		H    2.615749   0.480503   0.056558
| 23> *
| 24>
| 25>                          ****END OF INPUT****

CARTESIAN COORDINATES (ANGSTROEM)
---------------------------------
  C     -0.616934   -0.410845   -0.017174
  O     -0.539919   -1.603559    0.022843
  C      0.664539    0.388217    0.021693
  C      1.790107   -0.171307    0.007439
  H     -1.557387    0.169867   -0.215904
  H      0.498551    1.506659    0.019566
  H      2.071220   -1.098577   -0.352722
  H      2.615749    0.480503    0.056558

 Total Charge           Charge          ....    0
 Multiplicity           Mult            ....    1
 Number of Electrons    NEL             ....   30
 Basis Dimension        Dim             ....   24

ORBITAL ENERGIES
----------------

  NO   OCC          E(Eh)            E(eV)
   0   2.0000     -20.373063      -554.3792
   1   2.0000     -11.297030      -307.4078
   2   2.0000     -11.193261      -304.5841
   3   2.0000     -11.189137      -304.4719
   4   2.0000      -1.415625       -38.5211
   5   2.0000      -1.098805       -29.9000
   6   2.0000      -0.890915       -24.2430
   7   2.0000      -0.753820       -20.5125
   8   2.0000      -0.707225       -19.2446
   9   2.0000      -0.631474       -17.1833
  10   2.0000      -0.602273       -16.3887
  11   2.0000      -0.549586       -14.9550
  12   2.0000      -0.531394       -14.4600
  13   2.0000      -0.417517       -11.3612
  14   2.0000      -0.403752       -10.9867
  15   0.0000       0.144299         3.9266
  16   0.0000       0.313708         8.5364
  17   0.0000       0.524577        14.2745
  18   0.0000       0.610856        16.6222
  19   0.0000       0.669909        18.2291

MULLIKEN ATOMIC CHARGES
-----------------------
   0 C :    0.174896
   1 O :   -0.350707
   2 C :   -0.158023
   3 C :   -0.255840
   4 H :    0.138588
   5 H :    0.143672
   6 H :    0.162982
   7 H :    0.144431
Sum of atomic charges:   -0.0000000

LOEWDIN ATOMIC CHARGES
----------------------
   0 C :    0.148330
   1 O :   -0.249862
   2 C :   -0.114784
   3 C :   -0.150508
   4 H :    0.076305
   5 H :    0.094438
   6 H :    0.104052
   7 H :    0.092029

  Mayer bond orders larger than 0.100000
B(  0-C ,  1-O ) :   1.9270 B(  0-C ,  2-C ) :   0.9944 B(  0-C ,  4-H ) :   0.9217
B(  2-C ,  3-C ) :   1.9812 B(  2-C ,  5-H ) :   0.9548 B(  3-C ,  6-H ) :   0.9579
B(  3-C ,  7-H ) :   0.9587

-----------------------------------------------------------------------------
         ABSORPTION SPECTRUM VIA TRANSITION ELECTRIC DIPOLE MOMENTS
-----------------------------------------------------------------------------
State   Energy    Wavelength  fosc         T2        TX        TY        TZ
        (cm-1)      (nm)                 (au**2)    (au)      (au)      (au)
-----------------------------------------------------------------------------
   1   33079.1    302.3   0.000077772   0.00077   0.02677  -0.00742   0.00148

Dispersion correction           -0.026043008
FINAL SINGLE POINT ENERGY      -189.322357170308

DIPOLE MOMENT
-------------
                                X             Y             Z
Electronic contribution:     -2.10686      -1.81125       0.32078
Nuclear contribution   :      2.24728       2.77817      -0.46257
                        -----------------------------------------
Total Dipole Moment    :      0.14042       0.96692      -0.14179
                        -----------------------------------------
Magnitude (a.u.)       :      0.98730
Magnitude (Debye)      :      2.50951

Rotational constants in cm-1:     0.767200     0.220874     0.172180
Rotational constants in MHz : 23000.086626  6621.625972  5161.826726

                             ****ORCA TERMINATED NORMALLY****
TOTAL RUN TIME: 0 days 0 hours 0 minutes 12 seconds 651 msec
