                         Program Version 5.0.3 -  RELEASE  -
|  1> ! HF-3c
|  2> !TightSCF
|  3> %scf
|  4>  ConvForced true
|  5>  convergence tight
|  6>  MaxIter 500
|  7> end
|  8>
|  9> %tddft
| 10>  nroots 1
| 11> end
| 12>
| 13> # 	19026
| 14> * xyz 0 1
| 15> 		C   -1.255026  -0.374077  -0.013152
| 16> 		O   -1.419822  -1.309058   0.582017
| 17> 		C    0.004657   0.524521   0.163943
| 18> 		C    1.246279  -0.021680  -0.100546
| 19> 		H   -1.939067  -0.081217  -0.843547
| 20> 		H   -0.091690   1.586889   0.568799
| 21> 		H    1.270889  -1.070726  -0.391365
| 22> 		H    2.137570   0.690407   0.041407
| 23> *
| 24>
| 25>                          ****END OF INPUT****

CARTESIAN COORDINATES (ANGSTROEM)
---------------------------------
  C     -1.255026   -0.374077   -0.013152
  O     -1.419822   -1.309058    0.582017
  C      0.004657    0.524521    0.163943
  C      1.246279   -0.021680   -0.100546
  H     -1.939067   -0.081217   -0.843547
  H     -0.091690    1.586889    0.568799
  H      1.270889   -1.070726   -0.391365
  H      2.137570    0.690407    0.041407

 Total Charge           Charge          ....    0
 Multiplicity           Mult            ....    1
 Number of Electrons    NEL             ....   30
 Basis Dimension        Dim             ....   24

ORBITAL ENERGIES
----------------

  NO   OCC          E(Eh)            E(eV)
   0   2.0000     -20.406521      -555.2897
   1   2.0000     -11.324337      -308.1509
   2   2.0000     -11.169600      -303.9403
   3   2.0000     -11.166694      -303.8612
   4   2.0000      -1.481643       -40.3175
   5   2.0000      -1.043458       -28.3939
   6   2.0000      -0.858804       -23.3692
   7   2.0000      -0.755450       -20.5568
   8   2.0000      -0.696337       -18.9483
   9   2.0000      -0.633212       -17.2306
  10   2.0000      -0.600067       -16.3287
  11   2.0000      -0.558551       -15.1990
  12   2.0000      -0.532270       -14.4838
  13   2.0000      -0.398390       -10.8407
  14   2.0000      -0.379795       -10.3347
  15   0.0000       0.189220         5.1489
  16   0.0000       0.247035         6.7222
  17   0.0000       0.523309        14.2400
  18   0.0000       0.576274        15.6812
  19   0.0000       0.611543        16.6409

MULLIKEN ATOMIC CHARGES
-----------------------
   0 C :    0.199574
   1 O :   -0.362417
   2 C :   -0.155032
   3 C :   -0.242939
   4 H :    0.132421
   5 H :    0.140921
   6 H :    0.143303
   7 H :    0.144169
Sum of atomic charges:   -0.0000000

LOEWDIN ATOMIC CHARGES
----------------------
   0 C :    0.152978
   1 O :   -0.230802
   2 C :   -0.122478
   3 C :   -0.155075
   4 H :    0.066668
   5 H :    0.094971
   6 H :    0.093920
   7 H :    0.099818

  Mayer bond orders larger than 0.100000
B(  0-C ,  1-O ) :   1.9601 B(  0-C ,  2-C ) :   0.9542 B(  0-C ,  4-H ) :   0.9064
B(  2-C ,  3-C ) :   1.9914 B(  2-C ,  5-H ) :   0.9572 B(  3-C ,  6-H ) :   0.9652
B(  3-C ,  7-H ) :   0.9628

-----------------------------------------------------------------------------
         ABSORPTION SPECTRUM VIA TRANSITION ELECTRIC DIPOLE MOMENTS
-----------------------------------------------------------------------------
State   Energy    Wavelength  fosc         T2        TX        TY        TZ
        (cm-1)      (nm)                 (au**2)    (au)      (au)      (au)
-----------------------------------------------------------------------------
   1   39979.0    250.1   0.000091620   0.00075   0.02715  -0.00084  -0.00407

Dispersion correction           -0.024888104
FINAL SINGLE POINT ENERGY      -189.278551541331

DIPOLE MOMENT
-------------
                                X             Y             Z
Electronic contribution:     -2.42426      -1.52027       0.75754
Nuclear contribution   :      2.70800       2.26367      -1.20146
                        -----------------------------------------
Total Dipole Moment    :      0.28374       0.74340      -0.44392
                        -----------------------------------------
Magnitude (a.u.)       :      0.91116
Magnitude (Debye)      :      2.31598

Rotational constants in cm-1:     0.838381     0.184321     0.161804
Rotational constants in MHz : 25134.018849  5525.790732  4850.770684

                             ****ORCA TERMINATED NORMALLY****
TOTAL RUN TIME: 0 days 0 hours 0 minutes 12 seconds 11 msec
