                         Program Version 5.0.3 -  RELEASE  -
|  1> ! B3LYP cc-pVDZ
|  2> !TightSCF
|  3> %scf
|  4>  ConvForced true
|  5>  convergence tight
|  6>  MaxIter 500
|  7> end
|  8>
|  9> %tddft
| 10>  nroots 1
| 11> end
| 12>
| 13> # 	7402
| 14> * xyz 0 1
| 15> 		C   -1.215229  -0.375518   0.023176
| 16> 		O   -1.247092  -1.573976  -0.212987
| 17> 		C    0.096285   0.441969  -0.057192
| 18> 		C    1.298474   0.006510   0.045311
| 19> 		H   -2.184671   0.368106   0.331524
| 20> 		H   -0.158056   1.445632  -0.431139
| 21> 		H    1.388303  -0.952399   0.332787
| 22> 		H    2.047888   0.671529  -0.102770
| 23> *
| 24>
| 25>                          ****END OF INPUT****

CARTESIAN COORDINATES (ANGSTROEM)
---------------------------------
  C     -1.215229   -0.375518    0.023176
  O     -1.247092   -1.573976   -0.212987
  C      0.096285    0.441969   -0.057192
  C      1.298474    0.006510    0.045311
  H     -2.184671    0.368106    0.331524
  H     -0.158056    1.445632   -0.431139
  H      1.388303   -0.952399    0.332787
  H      2.047888    0.671529   -0.102770

 Total Charge           Charge          ....    0
 Multiplicity           Mult            ....    1
 Number of Electrons    NEL             ....   30
 Basis Dimension        Dim             ....   76

ORBITAL ENERGIES
----------------

  NO   OCC          E(Eh)            E(eV)
   0   2.0000     -19.153308      -521.1880
   1   2.0000     -10.295860      -280.1646
   2   2.0000     -10.201514      -277.5973
   3   2.0000     -10.188447      -277.2417
   4   2.0000      -1.048574       -28.5332
   5   2.0000      -0.805976       -21.9317
   6   2.0000      -0.653096       -17.7716
   7   2.0000      -0.537139       -14.6163
   8   2.0000      -0.508834       -13.8461
   9   2.0000      -0.452332       -12.3086
  10   2.0000      -0.436082       -11.8664
  11   2.0000      -0.398798       -10.8519
  12   2.0000      -0.380841       -10.3632
  13   2.0000      -0.297997        -8.1089
  14   2.0000      -0.258819        -7.0428
  15   0.0000      -0.061505        -1.6736
  16   0.0000       0.044900         1.2218
  17   0.0000       0.057929         1.5763
  18   0.0000       0.091195         2.4816
  19   0.0000       0.118937         3.2364

MULLIKEN ATOMIC CHARGES
-----------------------
   0 C :    0.127676
   1 O :   -0.179162
   2 C :   -0.159696
   3 C :    0.228756
   4 H :    0.003592
   5 H :   -0.006311
   6 H :   -0.013803
   7 H :   -0.001052
Sum of atomic charges:    0.0000000

LOEWDIN ATOMIC CHARGES
----------------------
   0 C :   -0.022904
   1 O :   -0.003349
   2 C :   -0.070199
   3 C :    0.028078
   4 H :    0.003491
   5 H :    0.028031
   6 H :    0.015541
   7 H :    0.021312

  Mayer bond orders larger than 0.100000
B(  0-C ,  1-O ) :   2.2026 B(  0-C ,  2-C ) :   0.9983 B(  0-C ,  4-H ) :   0.8706
B(  2-C ,  3-C ) :   2.0345 B(  2-C ,  5-H ) :   0.9364 B(  3-C ,  6-H ) :   0.9182
B(  3-C ,  7-H ) :   0.9229

-----------------------------------------------------------------------------
         ABSORPTION SPECTRUM VIA TRANSITION ELECTRIC DIPOLE MOMENTS
-----------------------------------------------------------------------------
State   Energy    Wavelength  fosc         T2        TX        TY        TZ
        (cm-1)      (nm)                 (au**2)    (au)      (au)      (au)
-----------------------------------------------------------------------------
   1   29886.5    334.6   0.000272821   0.00301   0.04155  -0.00054  -0.03576

FINAL SINGLE POINT ENERGY      -191.641305776077

DIPOLE MOMENT
-------------
                                X             Y             Z
Electronic contribution:     -1.73643      -2.12097      -0.21808
Nuclear contribution   :      2.12923       2.94433       0.33023
                        -----------------------------------------
Total Dipole Moment    :      0.39280       0.82337       0.11214
                        -----------------------------------------
Magnitude (a.u.)       :      0.91913
Magnitude (Debye)      :      2.33625

Rotational constants in cm-1:     0.808672     0.191411     0.157113
Rotational constants in MHz : 24243.368189  5738.343741  4710.115612

                             ****ORCA TERMINATED NORMALLY****
TOTAL RUN TIME: 0 days 0 hours 3 minutes 17 seconds 40 msec
