                         Program Version 5.0.3 -  RELEASE  -
|  1> ! HF-3c
|  2> !TightSCF
|  3> %scf
|  4>  ConvForced true
|  5>  convergence tight
|  6>  MaxIter 500
|  7> end
|  8>
|  9> %tddft
| 10>  nroots 1
| 11> end
| 12>
| 13> # 	17961
| 14> * xyz 0 1
| 15> 		C   -1.214637  -0.246745   0.023099
| 16> 		O   -1.173610  -1.460428   0.131653
| 17> 		C   -0.075564   0.510620   0.049766
| 18> 		C    1.225256  -0.058793  -0.033595
| 19> 		H   -2.200940   0.178138  -0.186491
| 20> 		H   -0.107505   1.585234  -0.080930
| 21> 		H    1.487898  -1.030922   0.177947
| 22> 		H    2.097923   0.455259  -0.115350
| 23> *
| 24>
| 25>                          ****END OF INPUT****

CARTESIAN COORDINATES (ANGSTROEM)
---------------------------------
  C     -1.214637   -0.246745    0.023099
  O     -1.173610   -1.460428    0.131653
  C     -0.075564    0.510620    0.049766
  C      1.225256   -0.058793   -0.033595
  H     -2.200940    0.178138   -0.186491
  H     -0.107505    1.585234   -0.080930
  H      1.487898   -1.030922    0.177947
  H      2.097923    0.455259   -0.115350

 Total Charge           Charge          ....    0
 Multiplicity           Mult            ....    1
 Number of Electrons    NEL             ....   30
 Basis Dimension        Dim             ....   24

ORBITAL ENERGIES
----------------

  NO   OCC          E(Eh)            E(eV)
   0   2.0000     -20.347128      -553.6735
   1   2.0000     -11.293105      -307.3010
   2   2.0000     -11.203633      -304.8664
   3   2.0000     -11.198030      -304.7139
   4   2.0000      -1.393687       -37.9241
   5   2.0000      -1.075611       -29.2689
   6   2.0000      -0.924528       -25.1577
   7   2.0000      -0.767846       -20.8942
   8   2.0000      -0.712651       -19.3922
   9   2.0000      -0.621073       -16.9002
  10   2.0000      -0.593462       -16.1489
  11   2.0000      -0.548825       -14.9343
  12   2.0000      -0.533130       -14.5072
  13   2.0000      -0.419013       -11.4019
  14   2.0000      -0.369179       -10.0459
  15   0.0000       0.098402         2.6777
  16   0.0000       0.308541         8.3958
  17   0.0000       0.567382        15.4392
  18   0.0000       0.655521        17.8376
  19   0.0000       0.699575        19.0364

MULLIKEN ATOMIC CHARGES
-----------------------
   0 C :    0.131145
   1 O :   -0.348290
   2 C :   -0.172182
   3 C :   -0.201239
   4 H :    0.144284
   5 H :    0.147292
   6 H :    0.155843
   7 H :    0.143146
Sum of atomic charges:   -0.0000000

LOEWDIN ATOMIC CHARGES
----------------------
   0 C :    0.122298
   1 O :   -0.261759
   2 C :   -0.128510
   3 C :   -0.088590
   4 H :    0.079368
   5 H :    0.094254
   6 H :    0.096340
   7 H :    0.086599

  Mayer bond orders larger than 0.100000
B(  0-C ,  1-O ) :   1.8481 B(  0-C ,  2-C ) :   1.1069 B(  0-C ,  4-H ) :   0.9286
B(  1-O ,  3-C ) :   0.1121 B(  2-C ,  3-C ) :   1.8745 B(  2-C ,  5-H ) :   0.9599
B(  3-C ,  6-H ) :   0.9668 B(  3-C ,  7-H ) :   0.9717

-----------------------------------------------------------------------------
         ABSORPTION SPECTRUM VIA TRANSITION ELECTRIC DIPOLE MOMENTS
-----------------------------------------------------------------------------
State   Energy    Wavelength  fosc         T2        TX        TY        TZ
        (cm-1)      (nm)                 (au**2)    (au)      (au)      (au)
-----------------------------------------------------------------------------
   1   29083.8    343.8   0.000079333   0.00090   0.02843   0.00260  -0.00911

Dispersion correction           -0.025839518
FINAL SINGLE POINT ENERGY      -189.319708513810

DIPOLE MOMENT
-------------
                                X             Y             Z
Electronic contribution:     -2.00990      -1.50487       0.22748
Nuclear contribution   :      2.40873       2.41685      -0.34958
                        -----------------------------------------
Total Dipole Moment    :      0.39883       0.91198      -0.12210
                        -----------------------------------------
Magnitude (a.u.)       :      1.00283
Magnitude (Debye)      :      2.54900

Rotational constants in cm-1:     0.730363     0.222428     0.170997
Rotational constants in MHz : 21895.739967  6668.234091  5126.355354

                             ****ORCA TERMINATED NORMALLY****
TOTAL RUN TIME: 0 days 0 hours 0 minutes 11 seconds 609 msec
