                         Program Version 5.0.3 -  RELEASE  -
|  1> ! HF-3c
|  2> !TightSCF
|  3> %scf
|  4>  ConvForced true
|  5>  convergence tight
|  6>  MaxIter 500
|  7> end
|  8>
|  9> %tddft
| 10>  nroots 1
| 11> end
| 12>
| 13> # 	31154
| 14> * xyz 0 1
| 15> 		C   -0.595051  -0.459383  -0.008452
| 16> 		O   -0.572779  -1.636514  -0.000942
| 17> 		C    0.637566   0.428635   0.054238
| 18> 		C    1.816001  -0.120729  -0.028037
| 19> 		H   -1.501722   0.115507  -0.054070
| 20> 		H    0.551940   1.673206  -0.226089
| 21> 		H    1.913819  -1.241303   0.035123
| 22> 		H    2.973512   0.486023   0.041402
| 23> *
| 24>
| 25>                          ****END OF INPUT****

CARTESIAN COORDINATES (ANGSTROEM)
---------------------------------
  C     -0.595051   -0.459383   -0.008452
  O     -0.572779   -1.636514   -0.000942
  C      0.637566    0.428635    0.054238
  C      1.816001   -0.120729   -0.028037
  H     -1.501722    0.115507   -0.054070
  H      0.551940    1.673206   -0.226089
  H      1.913819   -1.241303    0.035123
  H      2.973512    0.486023    0.041402

 Total Charge           Charge          ....    0
 Multiplicity           Mult            ....    1
 Number of Electrons    NEL             ....   30
 Basis Dimension        Dim             ....   24

ORBITAL ENERGIES
----------------

  NO   OCC          E(Eh)            E(eV)
   0   2.0000     -20.377594      -554.5025
   1   2.0000     -11.305121      -307.6280
   2   2.0000     -11.175238      -304.0937
   3   2.0000     -11.169619      -303.9408
   4   2.0000      -1.427984       -38.8574
   5   2.0000      -1.060751       -28.8645
   6   2.0000      -0.869407       -23.6578
   7   2.0000      -0.721775       -19.6405
   8   2.0000      -0.680105       -18.5066
   9   2.0000      -0.613315       -16.6891
  10   2.0000      -0.555919       -15.1273
  11   2.0000      -0.554474       -15.0880
  12   2.0000      -0.481447       -13.1008
  13   2.0000      -0.405909       -11.0454
  14   2.0000      -0.390174       -10.6172
  15   0.0000       0.152860         4.1595
  16   0.0000       0.312533         8.5045
  17   0.0000       0.425243        11.5715
  18   0.0000       0.497959        13.5502
  19   0.0000       0.584729        15.9113

MULLIKEN ATOMIC CHARGES
-----------------------
   0 C :    0.177975
   1 O :   -0.361484
   2 C :   -0.180262
   3 C :   -0.201449
   4 H :    0.133412
   5 H :    0.141326
   6 H :    0.146435
   7 H :    0.144046
Sum of atomic charges:    0.0000000

LOEWDIN ATOMIC CHARGES
----------------------
   0 C :    0.154850
   1 O :   -0.254591
   2 C :   -0.156862
   3 C :   -0.120272
   4 H :    0.066097
   5 H :    0.104772
   6 H :    0.096788
   7 H :    0.109217

  Mayer bond orders larger than 0.100000
B(  0-C ,  1-O ) :   1.9246 B(  0-C ,  2-C ) :   0.9902 B(  0-C ,  4-H ) :   0.9226
B(  2-C ,  3-C ) :   1.9669 B(  2-C ,  5-H ) :   0.9479 B(  3-C ,  6-H ) :   0.9534
B(  3-C ,  7-H ) :   0.9531

-----------------------------------------------------------------------------
         ABSORPTION SPECTRUM VIA TRANSITION ELECTRIC DIPOLE MOMENTS
-----------------------------------------------------------------------------
State   Energy    Wavelength  fosc         T2        TX        TY        TZ
        (cm-1)      (nm)                 (au**2)    (au)      (au)      (au)
-----------------------------------------------------------------------------
   1   35599.2    280.9   0.000235014   0.00217   0.04525   0.00387  -0.01052

Dispersion correction           -0.025334515
FINAL SINGLE POINT ENERGY      -189.271411573474

DIPOLE MOMENT
-------------
                                X             Y             Z
Electronic contribution:     -2.15731      -1.79939       0.12101
Nuclear contribution   :      2.53466       2.75707      -0.19058
                        -----------------------------------------
Total Dipole Moment    :      0.37735       0.95768      -0.06957
                        -----------------------------------------
Magnitude (a.u.)       :      1.03169
Magnitude (Debye)      :      2.62235

Rotational constants in cm-1:     0.761018     0.207024     0.163075
Rotational constants in MHz : 22814.749095  6206.434670  4888.861144

                             ****ORCA TERMINATED NORMALLY****
TOTAL RUN TIME: 0 days 0 hours 0 minutes 16 seconds 56 msec
