                         Program Version 5.0.3 -  RELEASE  -
|  1> ! HF-3c
|  2> !TightSCF
|  3> %scf
|  4>  ConvForced true
|  5>  convergence tight
|  6>  MaxIter 500
|  7> end
|  8>
|  9> %tddft
| 10>  nroots 1
| 11> end
| 12>
| 13> # 	6452
| 14> * xyz 0 1
| 15> 		C   -1.203322  -0.429910   0.019608
| 16> 		O   -2.084562  -0.684571   0.780689
| 17> 		C   -0.016998   0.434879   0.317631
| 18> 		C    1.178181   0.060329  -0.183174
| 19> 		H   -1.301025  -0.758622  -1.035064
| 20> 		H   -0.009070   1.483100   1.077184
| 21> 		H    1.330867  -0.729720  -1.009367
| 22> 		H    2.055815   0.665585   0.039733
| 23> *
| 24>
| 25>                          ****END OF INPUT****

CARTESIAN COORDINATES (ANGSTROEM)
---------------------------------
  C     -1.203322   -0.429910    0.019608
  O     -2.084562   -0.684571    0.780689
  C     -0.016998    0.434879    0.317631
  C      1.178181    0.060329   -0.183174
  H     -1.301025   -0.758622   -1.035064
  H     -0.009070    1.483100    1.077184
  H      1.330867   -0.729720   -1.009367
  H      2.055815    0.665585    0.039733

 Total Charge           Charge          ....    0
 Multiplicity           Mult            ....    1
 Number of Electrons    NEL             ....   30
 Basis Dimension        Dim             ....   24

ORBITAL ENERGIES
----------------

  NO   OCC          E(Eh)            E(eV)
   0   2.0000     -20.372833      -554.3730
   1   2.0000     -11.301598      -307.5321
   2   2.0000     -11.183025      -304.3056
   3   2.0000     -11.174812      -304.0821
   4   2.0000      -1.415589       -38.5201
   5   2.0000      -1.063838       -28.9485
   6   2.0000      -0.864727       -23.5304
   7   2.0000      -0.752129       -20.4665
   8   2.0000      -0.656350       -17.8602
   9   2.0000      -0.632896       -17.2220
  10   2.0000      -0.581310       -15.8183
  11   2.0000      -0.535148       -14.5621
  12   2.0000      -0.501785       -13.6543
  13   2.0000      -0.408600       -11.1186
  14   2.0000      -0.386288       -10.5114
  15   0.0000       0.152280         4.1437
  16   0.0000       0.273654         7.4465
  17   0.0000       0.449361        12.2277
  18   0.0000       0.553124        15.0513
  19   0.0000       0.632102        17.2004

MULLIKEN ATOMIC CHARGES
-----------------------
   0 C :    0.167489
   1 O :   -0.351918
   2 C :   -0.148805
   3 C :   -0.238883
   4 H :    0.137058
   5 H :    0.162008
   6 H :    0.138286
   7 H :    0.134765
Sum of atomic charges:   -0.0000000

LOEWDIN ATOMIC CHARGES
----------------------
   0 C :    0.144887
   1 O :   -0.250164
   2 C :   -0.122106
   3 C :   -0.149895
   4 H :    0.073287
   5 H :    0.123691
   6 H :    0.094081
   7 H :    0.086219

  Mayer bond orders larger than 0.100000
B(  0-C ,  1-O ) :   1.9240 B(  0-C ,  2-C ) :   1.0042 B(  0-C ,  4-H ) :   0.9191
B(  2-C ,  3-C ) :   1.9681 B(  2-C ,  5-H ) :   0.9406 B(  3-C ,  6-H ) :   0.9622
B(  3-C ,  7-H ) :   0.9658

-----------------------------------------------------------------------------
         ABSORPTION SPECTRUM VIA TRANSITION ELECTRIC DIPOLE MOMENTS
-----------------------------------------------------------------------------
State   Energy    Wavelength  fosc         T2        TX        TY        TZ
        (cm-1)      (nm)                 (au**2)    (au)      (au)      (au)
-----------------------------------------------------------------------------
   1   34481.3    290.0   0.000169957   0.00162   0.02313   0.02391   0.02271

Dispersion correction           -0.024758477
FINAL SINGLE POINT ENERGY      -189.299769784159

DIPOLE MOMENT
-------------
                                X             Y             Z
Electronic contribution:     -3.17146      -0.89649       1.17257
Nuclear contribution   :      4.05190       1.24796      -1.75949
                        -----------------------------------------
Total Dipole Moment    :      0.88044       0.35147      -0.58693
                        -----------------------------------------
Magnitude (a.u.)       :      1.11499
Magnitude (Debye)      :      2.83407

Rotational constants in cm-1:     1.264905     0.156129     0.144474
Rotational constants in MHz : 37920.910670  4680.621175  4331.234606

                             ****ORCA TERMINATED NORMALLY****
TOTAL RUN TIME: 0 days 0 hours 0 minutes 13 seconds 991 msec
