                         Program Version 5.0.3 -  RELEASE  -
|  1> ! B3LYP cc-pVDZ
|  2> !TightSCF
|  3> %scf
|  4>  ConvForced true
|  5>  convergence tight
|  6>  MaxIter 500
|  7> end
|  8>
|  9> %tddft
| 10>  nroots 1
| 11> end
| 12>
| 13> # 	2525
| 14> * xyz 0 1
| 15> 		C   -1.177150  -0.405862  -0.047623
| 16> 		O   -1.553225  -1.335754   0.481408
| 17> 		C   -0.031138   0.466773   0.267331
| 18> 		C    1.192082   0.027630  -0.004592
| 19> 		H   -1.862880   0.126933  -0.907362
| 20> 		H   -0.250380   1.340945   0.712785
| 21> 		H    1.509839  -0.841550  -0.598316
| 22> 		H    2.129407   0.625383   0.074143
| 23> *
| 24>
| 25>                          ****END OF INPUT****

CARTESIAN COORDINATES (ANGSTROEM)
---------------------------------
  C     -1.177150   -0.405862   -0.047623
  O     -1.553225   -1.335754    0.481408
  C     -0.031138    0.466773    0.267331
  C      1.192082    0.027630   -0.004592
  H     -1.862880    0.126933   -0.907362
  H     -0.250380    1.340945    0.712785
  H      1.509839   -0.841550   -0.598316
  H      2.129407    0.625383    0.074143

 Total Charge           Charge          ....    0
 Multiplicity           Mult            ....    1
 Number of Electrons    NEL             ....   30
 Basis Dimension        Dim             ....   76

ORBITAL ENERGIES
----------------

  NO   OCC          E(Eh)            E(eV)
   0   2.0000     -19.149964      -521.0970
   1   2.0000     -10.281881      -279.7842
   2   2.0000     -10.208715      -277.7933
   3   2.0000     -10.201357      -277.5930
   4   2.0000      -1.099850       -29.9284
   5   2.0000      -0.802081       -21.8257
   6   2.0000      -0.650442       -17.6994
   7   2.0000      -0.553779       -15.0691
   8   2.0000      -0.503910       -13.7121
   9   2.0000      -0.468898       -12.7594
  10   2.0000      -0.460476       -12.5302
  11   2.0000      -0.408146       -11.1062
  12   2.0000      -0.379804       -10.3350
  13   2.0000      -0.289734        -7.8841
  14   2.0000      -0.251050        -6.8314
  15   0.0000      -0.025897        -0.7047
  16   0.0000       0.000916         0.0249
  17   0.0000       0.079260         2.1568
  18   0.0000       0.091386         2.4867
  19   0.0000       0.106286         2.8922

MULLIKEN ATOMIC CHARGES
-----------------------
   0 C :    0.124753
   1 O :   -0.100176
   2 C :   -0.006543
   3 C :   -0.001880
   4 H :   -0.051284
   5 H :   -0.017852
   6 H :    0.026567
   7 H :    0.026416
Sum of atomic charges:    0.0000000

LOEWDIN ATOMIC CHARGES
----------------------
   0 C :   -0.074004
   1 O :    0.090381
   2 C :   -0.045447
   3 C :   -0.023324
   4 H :   -0.026481
   5 H :    0.015857
   6 H :    0.031058
   7 H :    0.031959

  Mayer bond orders larger than 0.100000
B(  0-C ,  1-O ) :   2.3307 B(  0-C ,  2-C ) :   0.9841 B(  0-C ,  4-H ) :   0.8647
B(  2-C ,  3-C ) :   2.0073 B(  2-C ,  5-H ) :   0.9419 B(  3-C ,  6-H ) :   0.9571
B(  3-C ,  7-H ) :   0.9542

-----------------------------------------------------------------------------
         ABSORPTION SPECTRUM VIA TRANSITION ELECTRIC DIPOLE MOMENTS
-----------------------------------------------------------------------------
State   Energy    Wavelength  fosc         T2        TX        TY        TZ
        (cm-1)      (nm)                 (au**2)    (au)      (au)      (au)
-----------------------------------------------------------------------------
   1   36356.7    275.1   0.003973519   0.03598   0.17994  -0.04099   0.04384

FINAL SINGLE POINT ENERGY      -191.605722904914

DIPOLE MOMENT
-------------
                                X             Y             Z
Electronic contribution:     -2.47696      -1.79068       1.07809
Nuclear contribution   :      2.98831       2.43443      -1.30971
                        -----------------------------------------
Total Dipole Moment    :      0.51135       0.64375      -0.23163
                        -----------------------------------------
Magnitude (a.u.)       :      0.85413
Magnitude (Debye)      :      2.17103

Rotational constants in cm-1:     0.952217     0.180426     0.163298
Rotational constants in MHz : 28546.739718  5409.045155  4895.552673

                             ****ORCA TERMINATED NORMALLY****
TOTAL RUN TIME: 0 days 0 hours 3 minutes 21 seconds 955 msec
