                         Program Version 5.0.3 -  RELEASE  -
|  1> ! HF-3c
|  2> !TightSCF
|  3> %scf
|  4>  ConvForced true
|  5>  convergence tight
|  6>  MaxIter 500
|  7> end
|  8>
|  9> %tddft
| 10>  nroots 1
| 11> end
| 12>
| 13> # 	3738
| 14> * xyz 0 1
| 15> 		C   -1.200907  -0.414712   0.069346
| 16> 		O   -2.161962  -0.364147   0.832976
| 17> 		C    0.074617   0.274632   0.397147
| 18> 		C    1.128262   0.152103  -0.283598
| 19> 		H   -1.264999  -0.900777  -0.945215
| 20> 		H    0.003116   1.169815   1.127731
| 21> 		H    1.390021  -0.520253  -1.100554
| 22> 		H    2.033491   0.719810  -0.072491
| 23> *
| 24>
| 25>                          ****END OF INPUT****

CARTESIAN COORDINATES (ANGSTROEM)
---------------------------------
  C     -1.200907   -0.414712    0.069346
  O     -2.161962   -0.364147    0.832976
  C      0.074617    0.274632    0.397147
  C      1.128262    0.152103   -0.283598
  H     -1.264999   -0.900777   -0.945215
  H      0.003116    1.169815    1.127731
  H      1.390021   -0.520253   -1.100554
  H      2.033491    0.719810   -0.072491

 Total Charge           Charge          ....    0
 Multiplicity           Mult            ....    1
 Number of Electrons    NEL             ....   30
 Basis Dimension        Dim             ....   24

ORBITAL ENERGIES
----------------

  NO   OCC          E(Eh)            E(eV)
   0   2.0000     -20.364761      -554.1533
   1   2.0000     -11.293526      -307.3125
   2   2.0000     -11.197927      -304.7111
   3   2.0000     -11.191086      -304.5249
   4   2.0000      -1.390207       -37.8295
   5   2.0000      -1.101774       -29.9808
   6   2.0000      -0.879002       -23.9189
   7   2.0000      -0.770666       -20.9709
   8   2.0000      -0.675402       -18.3786
   9   2.0000      -0.649075       -17.6622
  10   2.0000      -0.579838       -15.7782
  11   2.0000      -0.536478       -14.5983
  12   2.0000      -0.515780       -14.0351
  13   2.0000      -0.416814       -11.3421
  14   2.0000      -0.410078       -11.1588
  15   0.0000       0.142205         3.8696
  16   0.0000       0.306256         8.3336
  17   0.0000       0.513577        13.9751
  18   0.0000       0.568103        15.4589
  19   0.0000       0.681488        18.5442

MULLIKEN ATOMIC CHARGES
-----------------------
   0 C :    0.165241
   1 O :   -0.343859
   2 C :   -0.169794
   3 C :   -0.241978
   4 H :    0.141569
   5 H :    0.163684
   6 H :    0.142970
   7 H :    0.142167
Sum of atomic charges:   -0.0000000

LOEWDIN ATOMIC CHARGES
----------------------
   0 C :    0.148011
   1 O :   -0.253743
   2 C :   -0.125956
   3 C :   -0.145105
   4 H :    0.080040
   5 H :    0.113399
   6 H :    0.091948
   7 H :    0.091406

  Mayer bond orders larger than 0.100000
B(  0-C ,  1-O ) :   1.9178 B(  0-C ,  2-C ) :   1.0132 B(  0-C ,  4-H ) :   0.9226
B(  2-C ,  3-C ) :   1.9777 B(  2-C ,  5-H ) :   0.9425 B(  3-C ,  6-H ) :   0.9603
B(  3-C ,  7-H ) :   0.9593

-----------------------------------------------------------------------------
         ABSORPTION SPECTRUM VIA TRANSITION ELECTRIC DIPOLE MOMENTS
-----------------------------------------------------------------------------
State   Energy    Wavelength  fosc         T2        TX        TY        TZ
        (cm-1)      (nm)                 (au**2)    (au)      (au)      (au)
-----------------------------------------------------------------------------
   1   32023.2    312.3   0.000005081   0.00005  -0.00469   0.00330   0.00440

Dispersion correction           -0.025329804
FINAL SINGLE POINT ENERGY      -189.335085303074

DIPOLE MOMENT
-------------
                                X             Y             Z
Electronic contribution:     -3.22812      -0.68507       1.24687
Nuclear contribution   :      4.17239       0.78430      -1.89306
                        -----------------------------------------
Total Dipole Moment    :      0.94427       0.09923      -0.64619
                        -----------------------------------------
Magnitude (a.u.)       :      1.14850
Magnitude (Debye)      :      2.91926

Rotational constants in cm-1:     1.576616     0.156672     0.143158
Rotational constants in MHz : 47265.770718  4696.909397  4291.756746

                             ****ORCA TERMINATED NORMALLY****
TOTAL RUN TIME: 0 days 0 hours 0 minutes 16 seconds 60 msec
