                         Program Version 5.0.3 -  RELEASE  -
|  1> ! HF-3c
|  2> !TightSCF
|  3> %scf
|  4>  ConvForced true
|  5>  convergence tight
|  6>  MaxIter 500
|  7> end
|  8>
|  9> %tddft
| 10>  nroots 1
| 11> end
| 12>
| 13> # 	2646
| 14> * xyz 0 1
| 15> 		C   -1.187576  -0.322289   0.020302
| 16> 		O   -1.460538  -1.366542   0.628012
| 17> 		C   -0.019664   0.524271   0.161392
| 18> 		C    1.173915   0.047697  -0.108446
| 19> 		H   -1.769352   0.107686  -0.803651
| 20> 		H   -0.182001   1.561100   0.426995
| 21> 		H    1.387317  -1.099523  -0.293791
| 22> 		H    2.122074   0.643145  -0.034106
| 23> *
| 24>
| 25>                          ****END OF INPUT****

CARTESIAN COORDINATES (ANGSTROEM)
---------------------------------
  C     -1.187576   -0.322289    0.020302
  O     -1.460538   -1.366542    0.628012
  C     -0.019664    0.524271    0.161392
  C      1.173915    0.047697   -0.108446
  H     -1.769352    0.107686   -0.803651
  H     -0.182001    1.561100    0.426995
  H      1.387317   -1.099523   -0.293791
  H      2.122074    0.643145   -0.034106

 Total Charge           Charge          ....    0
 Multiplicity           Mult            ....    1
 Number of Electrons    NEL             ....   30
 Basis Dimension        Dim             ....   24

ORBITAL ENERGIES
----------------

  NO   OCC          E(Eh)            E(eV)
   0   2.0000     -20.370142      -554.2997
   1   2.0000     -11.295063      -307.3543
   2   2.0000     -11.189919      -304.4932
   3   2.0000     -11.183180      -304.3098
   4   2.0000      -1.383777       -37.6545
   5   2.0000      -1.088644       -29.6235
   6   2.0000      -0.894908       -24.3517
   7   2.0000      -0.745645       -20.2900
   8   2.0000      -0.688639       -18.7388
   9   2.0000      -0.622503       -16.9392
  10   2.0000      -0.606331       -16.4991
  11   2.0000      -0.525313       -14.2945
  12   2.0000      -0.496908       -13.5216
  13   2.0000      -0.416669       -11.3381
  14   2.0000      -0.400050       -10.8859
  15   0.0000       0.161236         4.3875
  16   0.0000       0.248175         6.7532
  17   0.0000       0.533028        14.5044
  18   0.0000       0.614234        16.7142
  19   0.0000       0.633505        17.2385

MULLIKEN ATOMIC CHARGES
-----------------------
   0 C :    0.165631
   1 O :   -0.337505
   2 C :   -0.192272
   3 C :   -0.211355
   4 H :    0.136761
   5 H :    0.152695
   6 H :    0.146595
   7 H :    0.139450
Sum of atomic charges:   -0.0000000

LOEWDIN ATOMIC CHARGES
----------------------
   0 C :    0.157131
   1 O :   -0.251643
   2 C :   -0.144365
   3 C :   -0.128494
   4 H :    0.073523
   5 H :    0.100056
   6 H :    0.101994
   7 H :    0.091798

  Mayer bond orders larger than 0.100000
B(  0-C ,  1-O ) :   1.9359 B(  0-C ,  2-C ) :   1.0117 B(  0-C ,  4-H ) :   0.9187
B(  2-C ,  3-C ) :   1.9773 B(  2-C ,  5-H ) :   0.9473 B(  3-C ,  6-H ) :   0.9595
B(  3-C ,  7-H ) :   0.9625

-----------------------------------------------------------------------------
         ABSORPTION SPECTRUM VIA TRANSITION ELECTRIC DIPOLE MOMENTS
-----------------------------------------------------------------------------
State   Energy    Wavelength  fosc         T2        TX        TY        TZ
        (cm-1)      (nm)                 (au**2)    (au)      (au)      (au)
-----------------------------------------------------------------------------
   1   32895.2    304.0   0.000025490   0.00026  -0.01450  -0.00377   0.00553

Dispersion correction           -0.025417551
FINAL SINGLE POINT ENERGY      -189.324307052031

DIPOLE MOMENT
-------------
                                X             Y             Z
Electronic contribution:     -2.45693      -1.50639       0.83335
Nuclear contribution   :      2.93174       2.30280      -1.33830
                        -----------------------------------------
Total Dipole Moment    :      0.47482       0.79641      -0.50495
                        -----------------------------------------
Magnitude (a.u.)       :      1.05579
Magnitude (Debye)      :      2.68361

Rotational constants in cm-1:     0.857614     0.185841     0.161604
Rotational constants in MHz : 25710.623841  5571.363657  4844.775902

                             ****ORCA TERMINATED NORMALLY****
TOTAL RUN TIME: 0 days 0 hours 0 minutes 13 seconds 149 msec
