                         Program Version 5.0.3 -  RELEASE  -
|  1> ! B3LYP cc-pVDZ
|  2> !TightSCF
|  3> %scf
|  4>  ConvForced true
|  5>  convergence tight
|  6>  MaxIter 500
|  7> end
|  8>
|  9> %tddft
| 10>  nroots 1
| 11> end
| 12>
| 13> # 	7246
| 14> * xyz 0 1
| 15> 		C   -1.153134  -0.274758  -0.013645
| 16> 		O   -1.387639  -1.274515   0.645297
| 17> 		C    0.054440   0.519340   0.161634
| 18> 		C    1.210518   0.003422  -0.154809
| 19> 		H   -1.908729  -0.148742  -0.795829
| 20> 		H   -0.150294   1.531986   0.501443
| 21> 		H    1.232115  -0.985652  -0.413613
| 22> 		H    2.138150   0.628564   0.084613
| 23> *
| 24>
| 25>                          ****END OF INPUT****

CARTESIAN COORDINATES (ANGSTROEM)
---------------------------------
  C     -1.153134   -0.274758   -0.013645
  O     -1.387639   -1.274515    0.645297
  C      0.054440    0.519340    0.161634
  C      1.210518    0.003422   -0.154809
  H     -1.908729   -0.148742   -0.795829
  H     -0.150294    1.531986    0.501443
  H      1.232115   -0.985652   -0.413613
  H      2.138150    0.628564    0.084613

 Total Charge           Charge          ....    0
 Multiplicity           Mult            ....    1
 Number of Electrons    NEL             ....   30
 Basis Dimension        Dim             ....   76

ORBITAL ENERGIES
----------------

  NO   OCC          E(Eh)            E(eV)
   0   2.0000     -19.134161      -520.6670
   1   2.0000     -10.270744      -279.4812
   2   2.0000     -10.203472      -277.6506
   3   2.0000     -10.202384      -277.6210
   4   2.0000      -1.041654       -28.3448
   5   2.0000      -0.807795       -21.9812
   6   2.0000      -0.653088       -17.7714
   7   2.0000      -0.556579       -15.1453
   8   2.0000      -0.510456       -13.8902
   9   2.0000      -0.453483       -12.3399
  10   2.0000      -0.437737       -11.9114
  11   2.0000      -0.390189       -10.6176
  12   2.0000      -0.369828       -10.0635
  13   2.0000      -0.294700        -8.0192
  14   2.0000      -0.247430        -6.7329
  15   0.0000      -0.038209        -1.0397
  16   0.0000       0.001930         0.0525
  17   0.0000       0.073798         2.0082
  18   0.0000       0.102225         2.7817
  19   0.0000       0.108087         2.9412

MULLIKEN ATOMIC CHARGES
-----------------------
   0 C :    0.147821
   1 O :   -0.202952
   2 C :   -0.062056
   3 C :    0.083923
   4 H :   -0.013710
   5 H :    0.006090
   6 H :   -0.000814
   7 H :    0.041698
Sum of atomic charges:   -0.0000000

LOEWDIN ATOMIC CHARGES
----------------------
   0 C :   -0.019521
   1 O :   -0.011571
   2 C :   -0.056616
   3 C :   -0.005279
   4 H :   -0.003033
   5 H :    0.034547
   6 H :    0.013935
   7 H :    0.047539

  Mayer bond orders larger than 0.100000
B(  0-C ,  1-O ) :   2.1926 B(  0-C ,  2-C ) :   1.0011 B(  0-C ,  4-H ) :   0.9389
B(  2-C ,  3-C ) :   2.0365 B(  2-C ,  5-H ) :   0.9351 B(  3-C ,  6-H ) :   0.9293
B(  3-C ,  7-H ) :   0.9421

-----------------------------------------------------------------------------
         ABSORPTION SPECTRUM VIA TRANSITION ELECTRIC DIPOLE MOMENTS
-----------------------------------------------------------------------------
State   Energy    Wavelength  fosc         T2        TX        TY        TZ
        (cm-1)      (nm)                 (au**2)    (au)      (au)      (au)
-----------------------------------------------------------------------------
   1   31121.7    321.3   0.000184496   0.00195   0.03473   0.01949   0.01912

FINAL SINGLE POINT ENERGY      -191.642219019297

DIPOLE MOMENT
-------------
                                X             Y             Z
Electronic contribution:     -2.13347      -1.28221       0.81348
Nuclear contribution   :      2.52247       2.04445      -1.22135
                        -----------------------------------------
Total Dipole Moment    :      0.38900       0.76224      -0.40787
                        -----------------------------------------
Magnitude (a.u.)       :      0.94799
Magnitude (Debye)      :      2.40960

Rotational constants in cm-1:     0.873605     0.191957     0.169639
Rotational constants in MHz : 26190.020442  5754.720195  5085.634537

                             ****ORCA TERMINATED NORMALLY****
TOTAL RUN TIME: 0 days 0 hours 3 minutes 16 seconds 702 msec
