                         Program Version 5.0.3 -  RELEASE  -
|  1> ! B3LYP cc-pVDZ
|  2> !TightSCF
|  3> %scf
|  4>  ConvForced true
|  5>  convergence tight
|  6>  MaxIter 500
|  7> end
|  8>
|  9> %tddft
| 10>  nroots 1
| 11> end
| 12>
| 13> # 	13937
| 14> * xyz 0 1
| 15> 		C   -1.131014  -0.458386   0.091578
| 16> 		O   -2.185594  -0.472872   0.821935
| 17> 		C    0.015659   0.293722   0.415206
| 18> 		C    1.193320   0.144658  -0.264333
| 19> 		H   -1.137309  -0.844038  -0.949915
| 20> 		H   -0.072325   1.026819   1.180267
| 21> 		H    1.064949  -0.543233  -1.182749
| 22> 		H    2.210336   0.815201  -0.114655
| 23> *
| 24>
| 25>                          ****END OF INPUT****

CARTESIAN COORDINATES (ANGSTROEM)
---------------------------------
  C     -1.131014   -0.458386    0.091578
  O     -2.185594   -0.472872    0.821935
  C      0.015659    0.293722    0.415206
  C      1.193320    0.144658   -0.264333
  H     -1.137309   -0.844038   -0.949915
  H     -0.072325    1.026819    1.180267
  H      1.064949   -0.543233   -1.182749
  H      2.210336    0.815201   -0.114655

 Total Charge           Charge          ....    0
 Multiplicity           Mult            ....    1
 Number of Electrons    NEL             ....   30
 Basis Dimension        Dim             ....   76

ORBITAL ENERGIES
----------------

  NO   OCC          E(Eh)            E(eV)
   0   2.0000     -19.137419      -520.7557
   1   2.0000     -10.275699      -279.6160
   2   2.0000     -10.245242      -278.7872
   3   2.0000     -10.211057      -277.8570
   4   2.0000      -1.007632       -27.4191
   5   2.0000      -0.809673       -22.0323
   6   2.0000      -0.650585       -17.7033
   7   2.0000      -0.574251       -15.6262
   8   2.0000      -0.469281       -12.7698
   9   2.0000      -0.463792       -12.6204
  10   2.0000      -0.411969       -11.2103
  11   2.0000      -0.391549       -10.6546
  12   2.0000      -0.372440       -10.1346
  13   2.0000      -0.289156        -7.8683
  14   2.0000      -0.255993        -6.9659
  15   0.0000      -0.083778        -2.2797
  16   0.0000       0.035163         0.9568
  17   0.0000       0.045793         1.2461
  18   0.0000       0.076903         2.0926
  19   0.0000       0.126595         3.4448

MULLIKEN ATOMIC CHARGES
-----------------------
   0 C :    0.183223
   1 O :   -0.251733
   2 C :   -0.004627
   3 C :   -0.041201
   4 H :   -0.008836
   5 H :   -0.004123
   6 H :    0.045716
   7 H :    0.081579
Sum of atomic charges:    0.0000000

LOEWDIN ATOMIC CHARGES
----------------------
   0 C :   -0.009732
   1 O :   -0.064241
   2 C :   -0.056557
   3 C :   -0.006162
   4 H :    0.004089
   5 H :    0.028759
   6 H :    0.040402
   7 H :    0.063443

  Mayer bond orders larger than 0.100000
B(  0-C ,  1-O ) :   2.0568 B(  0-C ,  2-C ) :   1.1403 B(  0-C ,  4-H ) :   0.9243
B(  1-O ,  3-C ) :   0.1275 B(  2-C ,  3-C ) :   1.8640 B(  2-C ,  5-H ) :   0.9553
B(  3-C ,  6-H ) :   0.9299 B(  3-C ,  7-H ) :   0.9366

-----------------------------------------------------------------------------
         ABSORPTION SPECTRUM VIA TRANSITION ELECTRIC DIPOLE MOMENTS
-----------------------------------------------------------------------------
State   Energy    Wavelength  fosc         T2        TX        TY        TZ
        (cm-1)      (nm)                 (au**2)    (au)      (au)      (au)
-----------------------------------------------------------------------------
   1   24806.9    403.1   0.000064398   0.00085   0.01595  -0.01461   0.01966

FINAL SINGLE POINT ENERGY      -191.671615224723

DIPOLE MOMENT
-------------
                                X             Y             Z
Electronic contribution:     -2.89211      -0.64631       1.42188
Nuclear contribution   :      4.05257       0.91338      -1.99603
                        -----------------------------------------
Total Dipole Moment    :      1.16046       0.26707      -0.57414
                        -----------------------------------------
Magnitude (a.u.)       :      1.32198
Magnitude (Debye)      :      3.36021

Rotational constants in cm-1:     1.590330     0.152601     0.139884
Rotational constants in MHz : 47676.893618  4574.856542  4193.613411

                             ****ORCA TERMINATED NORMALLY****
TOTAL RUN TIME: 0 days 0 hours 3 minutes 21 seconds 16 msec
