                         Program Version 5.0.3 -  RELEASE  -
|  1> ! B3LYP cc-pVDZ
|  2> !TightSCF
|  3> %scf
|  4>  ConvForced true
|  5>  convergence tight
|  6>  MaxIter 500
|  7> end
|  8>
|  9> %tddft
| 10>  nroots 1
| 11> end
| 12>
| 13> # 	23384
| 14> * xyz 0 1
| 15> 		C   -0.584710  -0.438699   0.036686
| 16> 		O   -0.580007  -1.656018  -0.015040
| 17> 		C    0.633700   0.452501  -0.068308
| 18> 		C    1.851284  -0.150393   0.042956
| 19> 		H   -1.549445   0.125341   0.190213
| 20> 		H    0.647422   1.511969  -0.039719
| 21> 		H    1.840745  -1.069594  -0.169622
| 22> 		H    2.611328   0.577928   0.127109
| 23> *
| 24>
| 25>                          ****END OF INPUT****

CARTESIAN COORDINATES (ANGSTROEM)
---------------------------------
  C     -0.584710   -0.438699    0.036686
  O     -0.580007   -1.656018   -0.015040
  C      0.633700    0.452501   -0.068308
  C      1.851284   -0.150393    0.042956
  H     -1.549445    0.125341    0.190213
  H      0.647422    1.511969   -0.039719
  H      1.840745   -1.069594   -0.169622
  H      2.611328    0.577928    0.127109

 Total Charge           Charge          ....    0
 Multiplicity           Mult            ....    1
 Number of Electrons    NEL             ....   30
 Basis Dimension        Dim             ....   76

ORBITAL ENERGIES
----------------

  NO   OCC          E(Eh)            E(eV)
   0   2.0000     -19.141748      -520.8734
   1   2.0000     -10.281341      -279.7695
   2   2.0000     -10.203815      -277.6599
   3   2.0000     -10.197040      -277.4756
   4   2.0000      -1.043771       -28.4025
   5   2.0000      -0.799914       -21.7668
   6   2.0000      -0.655542       -17.8382
   7   2.0000      -0.556539       -15.1442
   8   2.0000      -0.517441       -14.0803
   9   2.0000      -0.448920       -12.2157
  10   2.0000      -0.412627       -11.2281
  11   2.0000      -0.405209       -11.0263
  12   2.0000      -0.392033       -10.6678
  13   2.0000      -0.283670        -7.7191
  14   2.0000      -0.257779        -7.0145
  15   0.0000      -0.071682        -1.9506
  16   0.0000       0.047325         1.2878
  17   0.0000       0.069975         1.9041
  18   0.0000       0.099124         2.6973
  19   0.0000       0.133674         3.6375

MULLIKEN ATOMIC CHARGES
-----------------------
   0 C :    0.188748
   1 O :   -0.198694
   2 C :   -0.143058
   3 C :    0.208863
   4 H :   -0.011488
   5 H :   -0.019446
   6 H :   -0.040866
   7 H :    0.015940
Sum of atomic charges:    0.0000000

LOEWDIN ATOMIC CHARGES
----------------------
   0 C :   -0.023446
   1 O :   -0.014091
   2 C :   -0.060138
   3 C :    0.071754
   4 H :   -0.004606
   5 H :    0.018790
   6 H :   -0.019207
   7 H :    0.030944

  Mayer bond orders larger than 0.100000
B(  0-C ,  1-O ) :   2.1719 B(  0-C ,  2-C ) :   1.0267 B(  0-C ,  4-H ) :   0.9182
B(  2-C ,  3-C ) :   1.9609 B(  2-C ,  5-H ) :   0.9515 B(  3-C ,  6-H ) :   0.9339
B(  3-C ,  7-H ) :   0.9471

-----------------------------------------------------------------------------
         ABSORPTION SPECTRUM VIA TRANSITION ELECTRIC DIPOLE MOMENTS
-----------------------------------------------------------------------------
State   Energy    Wavelength  fosc         T2        TX        TY        TZ
        (cm-1)      (nm)                 (au**2)    (au)      (au)      (au)
-----------------------------------------------------------------------------
   1   28151.4    355.2   0.000297781   0.00348   0.05362   0.00470   0.02420

FINAL SINGLE POINT ENERGY      -191.646606076598

DIPOLE MOMENT
-------------
                                X             Y             Z
Electronic contribution:     -1.78543      -1.91935      -0.07379
Nuclear contribution   :      2.17132       2.86341       0.10079
                        -----------------------------------------
Total Dipole Moment    :      0.38590       0.94406       0.02700
                        -----------------------------------------
Magnitude (a.u.)       :      1.02024
Magnitude (Debye)      :      2.59324

Rotational constants in cm-1:     0.760606     0.207296     0.163472
Rotational constants in MHz : 22802.384514  6214.571461  4900.767255

                             ****ORCA TERMINATED NORMALLY****
TOTAL RUN TIME: 0 days 0 hours 3 minutes 18 seconds 976 msec
