                         Program Version 5.0.3 -  RELEASE  -
|  1> ! HF-3c
|  2> !TightSCF
|  3> %scf
|  4>  ConvForced true
|  5>  convergence tight
|  6>  MaxIter 500
|  7> end
|  8>
|  9> %tddft
| 10>  nroots 1
| 11> end
| 12>
| 13> # 	30742
| 14> * xyz 0 1
| 15> 		C   -0.568046  -0.448353   0.105776
| 16> 		O   -0.603618  -1.633113  -0.064230
| 17> 		C    0.608486   0.433973  -0.075937
| 18> 		C    1.879894  -0.135800   0.040352
| 19> 		H   -1.494490   0.096738   0.277367
| 20> 		H    0.393497   1.444356  -0.314815
| 21> 		H    2.068555  -1.117460   0.211310
| 22> 		H    2.679439   0.543687  -0.013585
| 23> *
| 24>
| 25>                          ****END OF INPUT****

CARTESIAN COORDINATES (ANGSTROEM)
---------------------------------
  C     -0.568046   -0.448353    0.105776
  O     -0.603618   -1.633113   -0.064230
  C      0.608486    0.433973   -0.075937
  C      1.879894   -0.135800    0.040352
  H     -1.494490    0.096738    0.277367
  H      0.393497    1.444356   -0.314815
  H      2.068555   -1.117460    0.211310
  H      2.679439    0.543687   -0.013585

 Total Charge           Charge          ....    0
 Multiplicity           Mult            ....    1
 Number of Electrons    NEL             ....   30
 Basis Dimension        Dim             ....   24

ORBITAL ENERGIES
----------------

  NO   OCC          E(Eh)            E(eV)
   0   2.0000     -20.368224      -554.2475
   1   2.0000     -11.296464      -307.3924
   2   2.0000     -11.196318      -304.6673
   3   2.0000     -11.190717      -304.5149
   4   2.0000      -1.410111       -38.3711
   5   2.0000      -1.069412       -29.1002
   6   2.0000      -0.903836       -24.5946
   7   2.0000      -0.761954       -20.7338
   8   2.0000      -0.707974       -19.2649
   9   2.0000      -0.624115       -16.9830
  10   2.0000      -0.595814       -16.2129
  11   2.0000      -0.565034       -15.3754
  12   2.0000      -0.538298       -14.6478
  13   2.0000      -0.410738       -11.1768
  14   2.0000      -0.383533       -10.4365
  15   0.0000       0.123953         3.3729
  16   0.0000       0.286604         7.7989
  17   0.0000       0.591634        16.0992
  18   0.0000       0.638615        17.3776
  19   0.0000       0.684523        18.6268

MULLIKEN ATOMIC CHARGES
-----------------------
   0 C :    0.164539
   1 O :   -0.354398
   2 C :   -0.163644
   3 C :   -0.225588
   4 H :    0.130358
   5 H :    0.145840
   6 H :    0.157733
   7 H :    0.145160
Sum of atomic charges:    0.0000000

LOEWDIN ATOMIC CHARGES
----------------------
   0 C :    0.144593
   1 O :   -0.255629
   2 C :   -0.120270
   3 C :   -0.115945
   4 H :    0.065707
   5 H :    0.091659
   6 H :    0.097766
   7 H :    0.092118

  Mayer bond orders larger than 0.100000
B(  0-C ,  1-O ) :   1.9077 B(  0-C ,  2-C ) :   1.0267 B(  0-C ,  4-H ) :   0.9253
B(  2-C ,  3-C ) :   1.9352 B(  2-C ,  5-H ) :   0.9632 B(  3-C ,  6-H ) :   0.9658
B(  3-C ,  7-H ) :   0.9688

-----------------------------------------------------------------------------
         ABSORPTION SPECTRUM VIA TRANSITION ELECTRIC DIPOLE MOMENTS
-----------------------------------------------------------------------------
State   Energy    Wavelength  fosc         T2        TX        TY        TZ
        (cm-1)      (nm)                 (au**2)    (au)      (au)      (au)
-----------------------------------------------------------------------------
   1   32786.2    305.0   0.000035786   0.00036  -0.01856   0.00070   0.00380

Dispersion correction           -0.025585198
FINAL SINGLE POINT ENERGY      -189.329823664380

DIPOLE MOMENT
-------------
                                X             Y             Z
Electronic contribution:     -1.93439      -1.74481      -0.04075
Nuclear contribution   :      2.26456       2.69487       0.15096
                        -----------------------------------------
Total Dipole Moment    :      0.33017       0.95006       0.11021
                        -----------------------------------------
Magnitude (a.u.)       :      1.01181
Magnitude (Debye)      :      2.57182

Rotational constants in cm-1:     0.753417     0.204895     0.162677
Rotational constants in MHz : 22586.872185  6142.606502  4876.920432

                             ****ORCA TERMINATED NORMALLY****
TOTAL RUN TIME: 0 days 0 hours 0 minutes 12 seconds 13 msec
