                         Program Version 5.0.3 -  RELEASE  -
|  1> ! B3LYP cc-pVDZ
|  2> !TightSCF
|  3> %scf
|  4>  ConvForced true
|  5>  convergence tight
|  6>  MaxIter 500
|  7> end
|  8>
|  9> %tddft
| 10>  nroots 1
| 11> end
| 12>
| 13> # 	13113
| 14> * xyz 0 1
| 15> 		C   -1.219944  -0.316944   0.046272
| 16> 		O   -1.884799  -0.705775   1.008408
| 17> 		C    0.013289   0.479559   0.226190
| 18> 		C    1.148331   0.034718  -0.269359
| 19> 		H   -1.317294  -0.630189  -0.973974
| 20> 		H   -0.015766   1.398294   0.844462
| 21> 		H    1.272495  -0.902089  -0.843093
| 22> 		H    2.086032   0.651885   0.002500
| 23> *
| 24>
| 25>                          ****END OF INPUT****

CARTESIAN COORDINATES (ANGSTROEM)
---------------------------------
  C     -1.219944   -0.316944    0.046272
  O     -1.884799   -0.705775    1.008408
  C      0.013289    0.479559    0.226190
  C      1.148331    0.034718   -0.269359
  H     -1.317294   -0.630189   -0.973974
  H     -0.015766    1.398294    0.844462
  H      1.272495   -0.902089   -0.843093
  H      2.086032    0.651885    0.002500

 Total Charge           Charge          ....    0
 Multiplicity           Mult            ....    1
 Number of Electrons    NEL             ....   30
 Basis Dimension        Dim             ....   76

ORBITAL ENERGIES
----------------

  NO   OCC          E(Eh)            E(eV)
   0   2.0000     -19.144383      -520.9451
   1   2.0000     -10.278378      -279.6889
   2   2.0000     -10.213928      -277.9351
   3   2.0000     -10.204392      -277.6756
   4   2.0000      -1.038023       -28.2460
   5   2.0000      -0.803950       -21.8766
   6   2.0000      -0.648270       -17.6403
   7   2.0000      -0.568566       -15.4715
   8   2.0000      -0.481492       -13.1021
   9   2.0000      -0.462870       -12.5953
  10   2.0000      -0.432783       -11.7766
  11   2.0000      -0.386098       -10.5063
  12   2.0000      -0.376086       -10.2338
  13   2.0000      -0.291129        -7.9220
  14   2.0000      -0.257282        -7.0010
  15   0.0000      -0.055528        -1.5110
  16   0.0000       0.017020         0.4631
  17   0.0000       0.075240         2.0474
  18   0.0000       0.080714         2.1963
  19   0.0000       0.116278         3.1641

MULLIKEN ATOMIC CHARGES
-----------------------
   0 C :    0.199031
   1 O :   -0.204958
   2 C :   -0.070327
   3 C :   -0.003770
   4 H :   -0.012459
   5 H :    0.017551
   6 H :    0.029283
   7 H :    0.045650
Sum of atomic charges:    0.0000000

LOEWDIN ATOMIC CHARGES
----------------------
   0 C :   -0.009229
   1 O :   -0.011361
   2 C :   -0.061581
   3 C :   -0.028665
   4 H :   -0.006938
   5 H :    0.039996
   6 H :    0.030512
   7 H :    0.047268

  Mayer bond orders larger than 0.100000
B(  0-C ,  1-O ) :   2.1757 B(  0-C ,  2-C ) :   1.0292 B(  0-C ,  4-H ) :   0.9226
B(  2-C ,  3-C ) :   1.9959 B(  2-C ,  5-H ) :   0.9379 B(  3-C ,  6-H ) :   0.9452
B(  3-C ,  7-H ) :   0.9354

-----------------------------------------------------------------------------
         ABSORPTION SPECTRUM VIA TRANSITION ELECTRIC DIPOLE MOMENTS
-----------------------------------------------------------------------------
State   Energy    Wavelength  fosc         T2        TX        TY        TZ
        (cm-1)      (nm)                 (au**2)    (au)      (au)      (au)
-----------------------------------------------------------------------------
   1   30219.4    330.9   0.000332262   0.00362  -0.05206  -0.00087   0.03014

FINAL SINGLE POINT ENERGY      -191.657504548428

DIPOLE MOMENT
-------------
                                X             Y             Z
Electronic contribution:     -3.09136      -0.68942       1.27669
Nuclear contribution   :      3.80865       1.03989      -1.91618
                        -----------------------------------------
Total Dipole Moment    :      0.71729       0.35047      -0.63948
                        -----------------------------------------
Magnitude (a.u.)       :      1.02288
Magnitude (Debye)      :      2.59995

Rotational constants in cm-1:     1.167886     0.161655     0.154593
Rotational constants in MHz : 35012.355434  4846.304655  4634.574627

                             ****ORCA TERMINATED NORMALLY****
TOTAL RUN TIME: 0 days 0 hours 3 minutes 16 seconds 715 msec
