                         Program Version 5.0.3 -  RELEASE  -
|  1> ! B3LYP cc-pVDZ
|  2> !TightSCF
|  3> %scf
|  4>  ConvForced true
|  5>  convergence tight
|  6>  MaxIter 500
|  7> end
|  8>
|  9> %tddft
| 10>  nroots 1
| 11> end
| 12>
| 13> # 	29264
| 14> * xyz 0 1
| 15> 		C   -0.600911  -0.408195   0.022007
| 16> 		O   -0.561214  -1.627314  -0.020425
| 17> 		C    0.641180   0.416543   0.001375
| 18> 		C    1.829507  -0.154460   0.004527
| 19> 		H   -1.512959   0.113733   0.051139
| 20> 		H    0.469752   1.402348  -0.110903
| 21> 		H    2.024354  -1.117169   0.174988
| 22> 		H    2.589258   0.440003  -0.139495
| 23> *
| 24>
| 25>                          ****END OF INPUT****

CARTESIAN COORDINATES (ANGSTROEM)
---------------------------------
  C     -0.600911   -0.408195    0.022007
  O     -0.561214   -1.627314   -0.020425
  C      0.641180    0.416543    0.001375
  C      1.829507   -0.154460    0.004527
  H     -1.512959    0.113733    0.051139
  H      0.469752    1.402348   -0.110903
  H      2.024354   -1.117169    0.174988
  H      2.589258    0.440003   -0.139495

 Total Charge           Charge          ....    0
 Multiplicity           Mult            ....    1
 Number of Electrons    NEL             ....   30
 Basis Dimension        Dim             ....   76

ORBITAL ENERGIES
----------------

  NO   OCC          E(Eh)            E(eV)
   0   2.0000     -19.133352      -520.6450
   1   2.0000     -10.265987      -279.3517
   2   2.0000     -10.191824      -277.3336
   3   2.0000     -10.188670      -277.2478
   4   2.0000      -1.036911       -28.2158
   5   2.0000      -0.802932       -21.8489
   6   2.0000      -0.671541       -18.2735
   7   2.0000      -0.562566       -15.3082
   8   2.0000      -0.519117       -14.1259
   9   2.0000      -0.455411       -12.3924
  10   2.0000      -0.428370       -11.6565
  11   2.0000      -0.395493       -10.7619
  12   2.0000      -0.391440       -10.6516
  13   2.0000      -0.286623        -7.7994
  14   2.0000      -0.252197        -6.8626
  15   0.0000      -0.067496        -1.8366
  16   0.0000       0.060506         1.6465
  17   0.0000       0.082060         2.2330
  18   0.0000       0.106709         2.9037
  19   0.0000       0.134508         3.6601

MULLIKEN ATOMIC CHARGES
-----------------------
   0 C :    0.207736
   1 O :   -0.204485
   2 C :   -0.115875
   3 C :    0.230193
   4 H :   -0.034061
   5 H :   -0.053549
   6 H :   -0.010620
   7 H :   -0.019338
Sum of atomic charges:    0.0000000

LOEWDIN ATOMIC CHARGES
----------------------
   0 C :   -0.013651
   1 O :   -0.014754
   2 C :   -0.051050
   3 C :    0.071596
   4 H :   -0.013699
   5 H :    0.005538
   6 H :    0.010871
   7 H :    0.005149

  Mayer bond orders larger than 0.100000
B(  0-C ,  1-O ) :   2.1849 B(  0-C ,  2-C ) :   1.0712 B(  0-C ,  4-H ) :   0.9279
B(  2-C ,  3-C ) :   1.9923 B(  2-C ,  5-H ) :   0.9453 B(  3-C ,  6-H ) :   0.9372
B(  3-C ,  7-H ) :   0.9303

-----------------------------------------------------------------------------
         ABSORPTION SPECTRUM VIA TRANSITION ELECTRIC DIPOLE MOMENTS
-----------------------------------------------------------------------------
State   Energy    Wavelength  fosc         T2        TX        TY        TZ
        (cm-1)      (nm)                 (au**2)    (au)      (au)      (au)
-----------------------------------------------------------------------------
   1   27328.9    365.9   0.000067918   0.00082  -0.02359  -0.00314   0.01586

FINAL SINGLE POINT ENERGY      -191.654861197739

DIPOLE MOMENT
-------------
                                X             Y             Z
Electronic contribution:     -1.84904      -1.64897       0.03226
Nuclear contribution   :      2.19373       2.57367      -0.02200
                        -----------------------------------------
Total Dipole Moment    :      0.34469       0.92470       0.01026
                        -----------------------------------------
Magnitude (a.u.)       :      0.98691
Magnitude (Debye)      :      2.50852

Rotational constants in cm-1:     0.764303     0.215927     0.168626
Rotational constants in MHz : 22913.220692  6473.337566  5055.279538

                             ****ORCA TERMINATED NORMALLY****
TOTAL RUN TIME: 0 days 0 hours 3 minutes 11 seconds 920 msec
