                         Program Version 5.0.3 -  RELEASE  -
|  1> ! HF-3c
|  2> !TightSCF
|  3> %scf
|  4>  ConvForced true
|  5>  convergence tight
|  6>  MaxIter 500
|  7> end
|  8>
|  9> %tddft
| 10>  nroots 1
| 11> end
| 12>
| 13> # 	27104
| 14> * xyz 0 1
| 15> 		C   -0.602641  -0.412840   0.030260
| 16> 		O   -0.568596  -1.673164  -0.020672
| 17> 		C    0.611573   0.426051  -0.039689
| 18> 		C    1.853139  -0.111825   0.024006
| 19> 		H   -1.438366   0.224750   0.168055
| 20> 		H    0.515873   1.586379  -0.062738
| 21> 		H    1.927636  -1.175641   0.059087
| 22> 		H    2.790929   0.364475  -0.017406
| 23> *
| 24>
| 25>                          ****END OF INPUT****

CARTESIAN COORDINATES (ANGSTROEM)
---------------------------------
  C     -0.602641   -0.412840    0.030260
  O     -0.568596   -1.673164   -0.020672
  C      0.611573    0.426051   -0.039689
  C      1.853139   -0.111825    0.024006
  H     -1.438366    0.224750    0.168055
  H      0.515873    1.586379   -0.062738
  H      1.927636   -1.175641    0.059087
  H      2.790929    0.364475   -0.017406

 Total Charge           Charge          ....    0
 Multiplicity           Mult            ....    1
 Number of Electrons    NEL             ....   30
 Basis Dimension        Dim             ....   24

ORBITAL ENERGIES
----------------

  NO   OCC          E(Eh)            E(eV)
   0   2.0000     -20.359377      -554.0068
   1   2.0000     -11.291440      -307.2557
   2   2.0000     -11.188413      -304.4522
   3   2.0000     -11.184910      -304.3569
   4   2.0000      -1.367349       -37.2075
   5   2.0000      -1.069582       -29.1048
   6   2.0000      -0.907604       -24.6972
   7   2.0000      -0.753197       -20.4955
   8   2.0000      -0.689331       -18.7576
   9   2.0000      -0.608387       -16.5550
  10   2.0000      -0.593756       -16.1569
  11   2.0000      -0.523859       -14.2549
  12   2.0000      -0.518225       -14.1016
  13   2.0000      -0.421620       -11.4729
  14   2.0000      -0.382966       -10.4210
  15   0.0000       0.116407         3.1676
  16   0.0000       0.297289         8.0897
  17   0.0000       0.549910        14.9638
  18   0.0000       0.582659        15.8550
  19   0.0000       0.666050        18.1241

MULLIKEN ATOMIC CHARGES
-----------------------
   0 C :    0.144360
   1 O :   -0.338973
   2 C :   -0.162790
   3 C :   -0.225150
   4 H :    0.142434
   5 H :    0.140953
   6 H :    0.154051
   7 H :    0.145116
Sum of atomic charges:    0.0000000

LOEWDIN ATOMIC CHARGES
----------------------
   0 C :    0.145158
   1 O :   -0.260483
   2 C :   -0.127045
   3 C :   -0.119450
   4 H :    0.076025
   5 H :    0.095340
   6 H :    0.098705
   7 H :    0.091750

  Mayer bond orders larger than 0.100000
B(  0-C ,  1-O ) :   1.8976 B(  0-C ,  2-C ) :   1.0430 B(  0-C ,  4-H ) :   0.9315
B(  2-C ,  3-C ) :   1.9308 B(  2-C ,  5-H ) :   0.9579 B(  3-C ,  6-H ) :   0.9606
B(  3-C ,  7-H ) :   0.9675

-----------------------------------------------------------------------------
         ABSORPTION SPECTRUM VIA TRANSITION ELECTRIC DIPOLE MOMENTS
-----------------------------------------------------------------------------
State   Energy    Wavelength  fosc         T2        TX        TY        TZ
        (cm-1)      (nm)                 (au**2)    (au)      (au)      (au)
-----------------------------------------------------------------------------
   1   29954.9    333.8   0.000002607   0.00003  -0.00375  -0.00260  -0.00280

Dispersion correction           -0.025595758
FINAL SINGLE POINT ENERGY      -189.343757715777

DIPOLE MOMENT
-------------
                                X             Y             Z
Electronic contribution:     -2.11589      -1.73402      -0.07920
Nuclear contribution   :      2.40421       2.72413       0.13811
                        -----------------------------------------
Total Dipole Moment    :      0.28832       0.99011       0.05891
                        -----------------------------------------
Magnitude (a.u.)       :      1.03291
Magnitude (Debye)      :      2.62546

Rotational constants in cm-1:     0.720300     0.207864     0.161560
Rotational constants in MHz : 21594.063072  6231.603684  4843.433614

                             ****ORCA TERMINATED NORMALLY****
TOTAL RUN TIME: 0 days 0 hours 0 minutes 10 seconds 764 msec
