                         Program Version 5.0.3 -  RELEASE  -
|  1> ! B3LYP cc-pVDZ
|  2> !TightSCF
|  3> %scf
|  4>  ConvForced true
|  5>  convergence tight
|  6>  MaxIter 500
|  7> end
|  8>
|  9> %tddft
| 10>  nroots 1
| 11> end
| 12>
| 13> # 	12551
| 14> * xyz 0 1
| 15> 		C   -1.152782  -0.357845  -0.004951
| 16> 		O   -1.556333  -1.219025  -0.886068
| 17> 		C    0.062883   0.475084  -0.150830
| 18> 		C    1.253459   0.006925   0.129267
| 19> 		H   -1.864993  -0.157191   0.912650
| 20> 		H   -0.056765   1.523509  -0.532125
| 21> 		H    1.432900  -0.973618   0.439017
| 22> 		H    1.879930   0.685670   0.035850
| 23> *
| 24>
| 25>                          ****END OF INPUT****

CARTESIAN COORDINATES (ANGSTROEM)
---------------------------------
  C     -1.152782   -0.357845   -0.004951
  O     -1.556333   -1.219025   -0.886068
  C      0.062883    0.475084   -0.150830
  C      1.253459    0.006925    0.129267
  H     -1.864993   -0.157191    0.912650
  H     -0.056765    1.523509   -0.532125
  H      1.432900   -0.973618    0.439017
  H      1.879930    0.685670    0.035850

 Total Charge           Charge          ....    0
 Multiplicity           Mult            ....    1
 Number of Electrons    NEL             ....   30
 Basis Dimension        Dim             ....   76

ORBITAL ENERGIES
----------------

  NO   OCC          E(Eh)            E(eV)
   0   2.0000     -19.145841      -520.9848
   1   2.0000     -10.291577      -280.0481
   2   2.0000     -10.211683      -277.8740
   3   2.0000     -10.185451      -277.1602
   4   2.0000      -1.005182       -27.3524
   5   2.0000      -0.813564       -22.1382
   6   2.0000      -0.665852       -18.1188
   7   2.0000      -0.552202       -15.0262
   8   2.0000      -0.510107       -13.8807
   9   2.0000      -0.448185       -12.1957
  10   2.0000      -0.434572       -11.8253
  11   2.0000      -0.401443       -10.9238
  12   2.0000      -0.351712        -9.5706
  13   2.0000      -0.294201        -8.0056
  14   2.0000      -0.254518        -6.9258
  15   0.0000      -0.052784        -1.4363
  16   0.0000      -0.010358        -0.2819
  17   0.0000       0.079134         2.1533
  18   0.0000       0.087195         2.3727
  19   0.0000       0.105133         2.8608

MULLIKEN ATOMIC CHARGES
-----------------------
   0 C :    0.149892
   1 O :   -0.240187
   2 C :   -0.125448
   3 C :    0.210088
   4 H :    0.022861
   5 H :    0.029057
   6 H :    0.002542
   7 H :   -0.048805
Sum of atomic charges:   -0.0000000

LOEWDIN ATOMIC CHARGES
----------------------
   0 C :    0.025860
   1 O :   -0.070161
   2 C :   -0.049191
   3 C :    0.020612
   4 H :    0.012410
   5 H :    0.049500
   6 H :    0.025858
   7 H :   -0.014888

  Mayer bond orders larger than 0.100000
B(  0-C ,  1-O ) :   2.1448 B(  0-C ,  2-C ) :   0.9907 B(  0-C ,  4-H ) :   0.9106
B(  2-C ,  3-C ) :   2.0435 B(  2-C ,  5-H ) :   0.9280 B(  3-C ,  6-H ) :   0.9501
B(  3-C ,  7-H ) :   0.9173

-----------------------------------------------------------------------------
         ABSORPTION SPECTRUM VIA TRANSITION ELECTRIC DIPOLE MOMENTS
-----------------------------------------------------------------------------
State   Energy    Wavelength  fosc         T2        TX        TY        TZ
        (cm-1)      (nm)                 (au**2)    (au)      (au)      (au)
-----------------------------------------------------------------------------
   1   28553.7    350.2   0.000185631   0.00214   0.04500  -0.00162  -0.01062

FINAL SINGLE POINT ENERGY      -191.624894438972

DIPOLE MOMENT
-------------
                                X             Y             Z
Electronic contribution:     -2.17996      -1.38153      -1.11405
Nuclear contribution   :      2.72907       2.13102       1.70550
                        -----------------------------------------
Total Dipole Moment    :      0.54911       0.74949       0.59145
                        -----------------------------------------
Magnitude (a.u.)       :      1.10139
Magnitude (Debye)      :      2.79952

Rotational constants in cm-1:     0.907562     0.170510     0.157450
Rotational constants in MHz : 27208.037657  5111.764856  4720.238720

                             ****ORCA TERMINATED NORMALLY****
TOTAL RUN TIME: 0 days 0 hours 3 minutes 25 seconds 342 msec
