                         Program Version 5.0.3 -  RELEASE  -
|  1> ! HF-3c
|  2> !TightSCF
|  3> %scf
|  4>  ConvForced true
|  5>  convergence tight
|  6>  MaxIter 500
|  7> end
|  8>
|  9> %tddft
| 10>  nroots 1
| 11> end
| 12>
| 13> # 	4362
| 14> * xyz 0 1
| 15> 		C   -1.175950  -0.356545   0.037354
| 16> 		O   -1.264938  -1.534772   0.258172
| 17> 		C    0.021368   0.500382   0.165115
| 18> 		C    1.235681  -0.020081   0.001070
| 19> 		H   -2.172929   0.242433  -0.399420
| 20> 		H   -0.180517   1.533849   0.050619
| 21> 		H    1.543841  -1.135075  -0.125602
| 22> 		H    2.020053   0.693510  -0.018168
| 23> *
| 24>
| 25>                          ****END OF INPUT****

CARTESIAN COORDINATES (ANGSTROEM)
---------------------------------
  C     -1.175950   -0.356545    0.037354
  O     -1.264938   -1.534772    0.258172
  C      0.021368    0.500382    0.165115
  C      1.235681   -0.020081    0.001070
  H     -2.172929    0.242433   -0.399420
  H     -0.180517    1.533849    0.050619
  H      1.543841   -1.135075   -0.125602
  H      2.020053    0.693510   -0.018168

 Total Charge           Charge          ....    0
 Multiplicity           Mult            ....    1
 Number of Electrons    NEL             ....   30
 Basis Dimension        Dim             ....   24

ORBITAL ENERGIES
----------------

  NO   OCC          E(Eh)            E(eV)
   0   2.0000     -20.358330      -553.9783
   1   2.0000     -11.289180      -307.1942
   2   2.0000     -11.196668      -304.6768
   3   2.0000     -11.190007      -304.4956
   4   2.0000      -1.399115       -38.0718
   5   2.0000      -1.083199       -29.4753
   6   2.0000      -0.881814       -23.9954
   7   2.0000      -0.728336       -19.8190
   8   2.0000      -0.694546       -18.8996
   9   2.0000      -0.613926       -16.7058
  10   2.0000      -0.590064       -16.0565
  11   2.0000      -0.534365       -14.5408
  12   2.0000      -0.532851       -14.4996
  13   2.0000      -0.401420       -10.9232
  14   2.0000      -0.390244       -10.6191
  15   0.0000       0.139994         3.8094
  16   0.0000       0.301366         8.2006
  17   0.0000       0.491571        13.3763
  18   0.0000       0.563329        15.3290
  19   0.0000       0.652331        17.7508

MULLIKEN ATOMIC CHARGES
-----------------------
   0 C :    0.188909
   1 O :   -0.366558
   2 C :   -0.190376
   3 C :   -0.206373
   4 H :    0.120838
   5 H :    0.145911
   6 H :    0.166635
   7 H :    0.141013
Sum of atomic charges:    0.0000000

LOEWDIN ATOMIC CHARGES
----------------------
   0 C :    0.154285
   1 O :   -0.268257
   2 C :   -0.145071
   3 C :   -0.108388
   4 H :    0.069628
   5 H :    0.091792
   6 H :    0.117357
   7 H :    0.088653

  Mayer bond orders larger than 0.100000
B(  0-C ,  1-O ) :   1.9150 B(  0-C ,  2-C ) :   1.0192 B(  0-C ,  4-H ) :   0.9068
B(  2-C ,  3-C ) :   1.9441 B(  2-C ,  5-H ) :   0.9582 B(  3-C ,  6-H ) :   0.9567
B(  3-C ,  7-H ) :   0.9649

-----------------------------------------------------------------------------
         ABSORPTION SPECTRUM VIA TRANSITION ELECTRIC DIPOLE MOMENTS
-----------------------------------------------------------------------------
State   Energy    Wavelength  fosc         T2        TX        TY        TZ
        (cm-1)      (nm)                 (au**2)    (au)      (au)      (au)
-----------------------------------------------------------------------------
   1   33541.5    298.1   0.000413796   0.00406   0.06287  -0.00038  -0.01044

Dispersion correction           -0.025328875
FINAL SINGLE POINT ENERGY      -189.319941828290

DIPOLE MOMENT
-------------
                                X             Y             Z
Electronic contribution:     -1.89025      -1.77987       0.56760
Nuclear contribution   :      2.32943       2.68928      -0.86679
                        -----------------------------------------
Total Dipole Moment    :      0.43918       0.90941      -0.29919
                        -----------------------------------------
Magnitude (a.u.)       :      1.05329
Magnitude (Debye)      :      2.67725

Rotational constants in cm-1:     0.778846     0.200610     0.161563
Rotational constants in MHz : 23349.223719  6014.125892  4843.541609

                             ****ORCA TERMINATED NORMALLY****
TOTAL RUN TIME: 0 days 0 hours 0 minutes 13 seconds 878 msec
