                         Program Version 5.0.3 -  RELEASE  -
|  1> ! B3LYP cc-pVDZ
|  2> !TightSCF
|  3> %scf
|  4>  ConvForced true
|  5>  convergence tight
|  6>  MaxIter 500
|  7> end
|  8>
|  9> %tddft
| 10>  nroots 1
| 11> end
| 12>
| 13> # 	17222
| 14> * xyz 0 1
| 15> 		C   -1.178814  -0.323844   0.068906
| 16> 		O   -1.284878  -1.593789  -0.228393
| 17> 		C    0.035437   0.481718  -0.102900
| 18> 		C    1.276329  -0.018127   0.065971
| 19> 		H   -2.181702   0.282249   0.351162
| 20> 		H   -0.138836   1.552111  -0.427017
| 21> 		H    1.433731  -0.967073   0.357903
| 22> 		H    2.008007   0.588761  -0.031083
| 23> *
| 24>
| 25>                          ****END OF INPUT****

CARTESIAN COORDINATES (ANGSTROEM)
---------------------------------
  C     -1.178814   -0.323844    0.068906
  O     -1.284878   -1.593789   -0.228393
  C      0.035437    0.481718   -0.102900
  C      1.276329   -0.018127    0.065971
  H     -2.181702    0.282249    0.351162
  H     -0.138836    1.552111   -0.427017
  H      1.433731   -0.967073    0.357903
  H      2.008007    0.588761   -0.031083

 Total Charge           Charge          ....    0
 Multiplicity           Mult            ....    1
 Number of Electrons    NEL             ....   30
 Basis Dimension        Dim             ....   76

ORBITAL ENERGIES
----------------

  NO   OCC          E(Eh)            E(eV)
   0   2.0000     -19.141787      -520.8745
   1   2.0000     -10.289555      -279.9930
   2   2.0000     -10.218626      -278.0629
   3   2.0000     -10.200050      -277.5575
   4   2.0000      -0.995623       -27.0923
   5   2.0000      -0.805240       -21.9117
   6   2.0000      -0.674817       -18.3627
   7   2.0000      -0.546284       -14.8651
   8   2.0000      -0.511111       -13.9080
   9   2.0000      -0.445898       -12.1335
  10   2.0000      -0.424712       -11.5570
  11   2.0000      -0.395185       -10.7535
  12   2.0000      -0.364669        -9.9231
  13   2.0000      -0.288217        -7.8428
  14   2.0000      -0.254229        -6.9179
  15   0.0000      -0.079796        -2.1714
  16   0.0000       0.026381         0.7179
  17   0.0000       0.063085         1.7166
  18   0.0000       0.095702         2.6042
  19   0.0000       0.112616         3.0644

MULLIKEN ATOMIC CHARGES
-----------------------
   0 C :    0.154790
   1 O :   -0.254912
   2 C :   -0.142633
   3 C :    0.233256
   4 H :    0.015254
   5 H :    0.019032
   6 H :   -0.000782
   7 H :   -0.024004
Sum of atomic charges:    0.0000000

LOEWDIN ATOMIC CHARGES
----------------------
   0 C :    0.013093
   1 O :   -0.090125
   2 C :   -0.062716
   3 C :    0.070564
   4 H :    0.013473
   5 H :    0.043543
   6 H :    0.015993
   7 H :   -0.003826

  Mayer bond orders larger than 0.100000
B(  0-C ,  1-O ) :   2.0889 B(  0-C ,  2-C ) :   1.0666 B(  0-C ,  4-H ) :   0.9047
B(  2-C ,  3-C ) :   1.9698 B(  2-C ,  5-H ) :   0.9356 B(  3-C ,  6-H ) :   0.9444
B(  3-C ,  7-H ) :   0.9320

-----------------------------------------------------------------------------
         ABSORPTION SPECTRUM VIA TRANSITION ELECTRIC DIPOLE MOMENTS
-----------------------------------------------------------------------------
State   Energy    Wavelength  fosc         T2        TX        TY        TZ
        (cm-1)      (nm)                 (au**2)    (au)      (au)      (au)
-----------------------------------------------------------------------------
   1   24943.7    400.9   0.000032903   0.00043  -0.00741   0.01170  -0.01558

FINAL SINGLE POINT ENERGY      -191.655373243764

DIPOLE MOMENT
-------------
                                X             Y             Z
Electronic contribution:     -1.67902      -1.82571      -0.25140
Nuclear contribution   :      2.23104       2.84457       0.43481
                        -----------------------------------------
Total Dipole Moment    :      0.55201       1.01886       0.18341
                        -----------------------------------------
Magnitude (a.u.)       :      1.17322
Magnitude (Debye)      :      2.98208

Rotational constants in cm-1:     0.749494     0.192650     0.156389
Rotational constants in MHz : 22469.273071  5775.494427  4688.437443

                             ****ORCA TERMINATED NORMALLY****
TOTAL RUN TIME: 0 days 0 hours 3 minutes 26 seconds 922 msec
