                         Program Version 5.0.3 -  RELEASE  -
|  1> ! HF-3c
|  2> !TightSCF
|  3> %scf
|  4>  ConvForced true
|  5>  convergence tight
|  6>  MaxIter 500
|  7> end
|  8>
|  9> %tddft
| 10>  nroots 1
| 11> end
| 12>
| 13> # 	16969
| 14> * xyz 0 1
| 15> 		C   -1.164708  -0.328349  -0.000343
| 16> 		O   -1.678174  -1.049644   0.834329
| 17> 		C    0.083114   0.431074   0.321472
| 18> 		C    1.229779   0.134879  -0.179609
| 19> 		H   -1.648427  -0.308782  -1.061866
| 20> 		H   -0.196626   1.271433   0.870407
| 21> 		H    1.232065  -0.846738  -0.739395
| 22> 		H    2.126558   0.693532   0.030025
| 23> *
| 24>
| 25>                          ****END OF INPUT****

CARTESIAN COORDINATES (ANGSTROEM)
---------------------------------
  C     -1.164708   -0.328349   -0.000343
  O     -1.678174   -1.049644    0.834329
  C      0.083114    0.431074    0.321472
  C      1.229779    0.134879   -0.179609
  H     -1.648427   -0.308782   -1.061866
  H     -0.196626    1.271433    0.870407
  H      1.232065   -0.846738   -0.739395
  H      2.126558    0.693532    0.030025

 Total Charge           Charge          ....    0
 Multiplicity           Mult            ....    1
 Number of Electrons    NEL             ....   30
 Basis Dimension        Dim             ....   24

ORBITAL ENERGIES
----------------

  NO   OCC          E(Eh)            E(eV)
   0   2.0000     -20.365685      -554.1785
   1   2.0000     -11.291108      -307.2467
   2   2.0000     -11.196317      -304.6673
   3   2.0000     -11.189064      -304.4699
   4   2.0000      -1.399417       -38.0801
   5   2.0000      -1.095856       -29.8197
   6   2.0000      -0.877611       -23.8810
   7   2.0000      -0.763726       -20.7820
   8   2.0000      -0.683827       -18.6079
   9   2.0000      -0.647393       -17.6165
  10   2.0000      -0.597243       -16.2518
  11   2.0000      -0.545700       -14.8493
  12   2.0000      -0.500847       -13.6287
  13   2.0000      -0.419053       -11.4030
  14   2.0000      -0.405964       -11.0468
  15   0.0000       0.183608         4.9962
  16   0.0000       0.236545         6.4367
  17   0.0000       0.514627        14.0037
  18   0.0000       0.607387        16.5278
  19   0.0000       0.643354        17.5066

MULLIKEN ATOMIC CHARGES
-----------------------
   0 C :    0.170096
   1 O :   -0.347644
   2 C :   -0.171950
   3 C :   -0.242758
   4 H :    0.142557
   5 H :    0.151350
   6 H :    0.147192
   7 H :    0.151157
Sum of atomic charges:   -0.0000000

LOEWDIN ATOMIC CHARGES
----------------------
   0 C :    0.146581
   1 O :   -0.254047
   2 C :   -0.118931
   3 C :   -0.151542
   4 H :    0.084149
   5 H :    0.094553
   6 H :    0.100398
   7 H :    0.098839

  Mayer bond orders larger than 0.100000
B(  0-C ,  1-O ) :   1.9466 B(  0-C ,  2-C ) :   0.9835 B(  0-C ,  4-H ) :   0.9150
B(  2-C ,  3-C ) :   2.0037 B(  2-C ,  5-H ) :   0.9492 B(  3-C ,  6-H ) :   0.9585
B(  3-C ,  7-H ) :   0.9602

-----------------------------------------------------------------------------
         ABSORPTION SPECTRUM VIA TRANSITION ELECTRIC DIPOLE MOMENTS
-----------------------------------------------------------------------------
State   Energy    Wavelength  fosc         T2        TX        TY        TZ
        (cm-1)      (nm)                 (au**2)    (au)      (au)      (au)
-----------------------------------------------------------------------------
   1   34026.5    293.9   0.000070858   0.00069  -0.00725   0.00126   0.02513

Dispersion correction           -0.025452715
FINAL SINGLE POINT ENERGY      -189.319551225247

DIPOLE MOMENT
-------------
                                X             Y             Z
Electronic contribution:     -2.47361      -1.08302       1.10761
Nuclear contribution   :      2.97730       1.62577      -1.78302
                        -----------------------------------------
Total Dipole Moment    :      0.50369       0.54276      -0.67541
                        -----------------------------------------
Magnitude (a.u.)       :      1.00223
Magnitude (Debye)      :      2.54747

Rotational constants in cm-1:     1.101112     0.163476     0.161321
Rotational constants in MHz : 33010.503878  4900.885490  4836.285863

                             ****ORCA TERMINATED NORMALLY****
TOTAL RUN TIME: 0 days 0 hours 0 minutes 12 seconds 495 msec
