                         Program Version 5.0.3 -  RELEASE  -
|  1> ! B3LYP cc-pVDZ
|  2> !TightSCF
|  3> %scf
|  4>  ConvForced true
|  5>  convergence tight
|  6>  MaxIter 500
|  7> end
|  8>
|  9> %tddft
| 10>  nroots 1
| 11> end
| 12>
| 13> # 	25175
| 14> * xyz 0 1
| 15> 		C   -0.609378  -0.456621   0.001791
| 16> 		O   -0.547534  -1.585148  -0.001512
| 17> 		C    0.665918   0.436362  -0.007012
| 18> 		C    1.793868  -0.156421   0.018394
| 19> 		H   -1.537034   0.000869  -0.062913
| 20> 		H    0.452523   1.437403   0.107818
| 21> 		H    1.921817  -1.319675   0.029613
| 22> 		H    2.756479   0.391528  -0.213910
| 23> *
| 24>
| 25>                          ****END OF INPUT****

CARTESIAN COORDINATES (ANGSTROEM)
---------------------------------
  C     -0.609378   -0.456621    0.001791
  O     -0.547534   -1.585148   -0.001512
  C      0.665918    0.436362   -0.007012
  C      1.793868   -0.156421    0.018394
  H     -1.537034    0.000869   -0.062913
  H      0.452523    1.437403    0.107818
  H      1.921817   -1.319675    0.029613
  H      2.756479    0.391528   -0.213910

 Total Charge           Charge          ....    0
 Multiplicity           Mult            ....    1
 Number of Electrons    NEL             ....   30
 Basis Dimension        Dim             ....   76

ORBITAL ENERGIES
----------------

  NO   OCC          E(Eh)            E(eV)
   0   2.0000     -19.136052      -520.7185
   1   2.0000     -10.261668      -279.2342
   2   2.0000     -10.204162      -277.6694
   3   2.0000     -10.185758      -277.1686
   4   2.0000      -1.093676       -29.7604
   5   2.0000      -0.792980       -21.5781
   6   2.0000      -0.640970       -17.4417
   7   2.0000      -0.548940       -14.9374
   8   2.0000      -0.509886       -13.8747
   9   2.0000      -0.453590       -12.3428
  10   2.0000      -0.437987       -11.9182
  11   2.0000      -0.422602       -11.4996
  12   2.0000      -0.367054        -9.9880
  13   2.0000      -0.291313        -7.9270
  14   2.0000      -0.249368        -6.7857
  15   0.0000      -0.045694        -1.2434
  16   0.0000       0.065763         1.7895
  17   0.0000       0.082278         2.2389
  18   0.0000       0.088430         2.4063
  19   0.0000       0.129695         3.5292

MULLIKEN ATOMIC CHARGES
-----------------------
   0 C :    0.191717
   1 O :   -0.120282
   2 C :   -0.087709
   3 C :    0.026384
   4 H :   -0.056517
   5 H :   -0.038872
   6 H :    0.050956
   7 H :    0.034323
Sum of atomic charges:    0.0000000

LOEWDIN ATOMIC CHARGES
----------------------
   0 C :   -0.058943
   1 O :    0.080036
   2 C :   -0.081697
   3 C :   -0.008055
   4 H :   -0.024503
   5 H :    0.009479
   6 H :    0.046328
   7 H :    0.037354

  Mayer bond orders larger than 0.100000
B(  0-C ,  1-O ) :   2.2941 B(  0-C ,  2-C ) :   0.9910 B(  0-C ,  4-H ) :   0.9208
B(  2-C ,  3-C ) :   2.0113 B(  2-C ,  5-H ) :   0.9505 B(  3-C ,  6-H ) :   0.9196
B(  3-C ,  7-H ) :   0.9383

-----------------------------------------------------------------------------
         ABSORPTION SPECTRUM VIA TRANSITION ELECTRIC DIPOLE MOMENTS
-----------------------------------------------------------------------------
State   Energy    Wavelength  fosc         T2        TX        TY        TZ
        (cm-1)      (nm)                 (au**2)    (au)      (au)      (au)
-----------------------------------------------------------------------------
   1   31876.6    313.7   0.000256436   0.00265   0.04598   0.00190   0.02304

FINAL SINGLE POINT ENERGY      -191.628201850533

DIPOLE MOMENT
-------------
                                X             Y             Z
Electronic contribution:     -2.05826      -1.53617       0.11171
Nuclear contribution   :      2.21521       2.26744      -0.13036
                        -----------------------------------------
Total Dipole Moment    :      0.15695       0.73127      -0.01865
                        -----------------------------------------
Magnitude (a.u.)       :      0.74815
Magnitude (Debye)      :      1.90166

Rotational constants in cm-1:     0.790318     0.218631     0.171490
Rotational constants in MHz : 23693.150992  6554.386136  5141.146895

                             ****ORCA TERMINATED NORMALLY****
TOTAL RUN TIME: 0 days 0 hours 3 minutes 22 seconds 301 msec
