                         Program Version 5.0.3 -  RELEASE  -
|  1> ! B3LYP cc-pVDZ
|  2> !TightSCF
|  3> %scf
|  4>  ConvForced true
|  5>  convergence tight
|  6>  MaxIter 500
|  7> end
|  8>
|  9> %tddft
| 10>  nroots 1
| 11> end
| 12>
| 13> # 	22408
| 14> * xyz 0 1
| 15> 		C   -0.610334  -0.451226  -0.059649
| 16> 		O   -0.575275  -1.618985   0.014909
| 17> 		C    0.674213   0.426772   0.044177
| 18> 		C    1.822491  -0.133754  -0.014766
| 19> 		H   -1.645548   0.001402   0.108859
| 20> 		H    0.529497   1.521505   0.019089
| 21> 		H    2.076480  -1.109683   0.126526
| 22> 		H    2.662166   0.425999  -0.140420
| 23> *
| 24>
| 25>                          ****END OF INPUT****

CARTESIAN COORDINATES (ANGSTROEM)
---------------------------------
  C     -0.610334   -0.451226   -0.059649
  O     -0.575275   -1.618985    0.014909
  C      0.674213    0.426772    0.044177
  C      1.822491   -0.133754   -0.014766
  H     -1.645548    0.001402    0.108859
  H      0.529497    1.521505    0.019089
  H      2.076480   -1.109683    0.126526
  H      2.662166    0.425999   -0.140420

 Total Charge           Charge          ....    0
 Multiplicity           Mult            ....    1
 Number of Electrons    NEL             ....   30
 Basis Dimension        Dim             ....   76

ORBITAL ENERGIES
----------------

  NO   OCC          E(Eh)            E(eV)
   0   2.0000     -19.139500      -520.8123
   1   2.0000     -10.276249      -279.6310
   2   2.0000     -10.201080      -277.5855
   3   2.0000     -10.186539      -277.1898
   4   2.0000      -1.070798       -29.1379
   5   2.0000      -0.799871       -21.7656
   6   2.0000      -0.643253       -17.5038
   7   2.0000      -0.550628       -14.9833
   8   2.0000      -0.508412       -13.8346
   9   2.0000      -0.456709       -12.4277
  10   2.0000      -0.434939       -11.8353
  11   2.0000      -0.408208       -11.1079
  12   2.0000      -0.383208       -10.4276
  13   2.0000      -0.292890        -7.9699
  14   2.0000      -0.250092        -6.8054
  15   0.0000      -0.056986        -1.5507
  16   0.0000       0.059178         1.6103
  17   0.0000       0.073440         1.9984
  18   0.0000       0.102247         2.7823
  19   0.0000       0.117540         3.1984

MULLIKEN ATOMIC CHARGES
-----------------------
   0 C :    0.152679
   1 O :   -0.148001
   2 C :   -0.152651
   3 C :    0.177357
   4 H :   -0.019062
   5 H :   -0.005554
   6 H :   -0.001038
   7 H :   -0.003730
Sum of atomic charges:   -0.0000000

LOEWDIN ATOMIC CHARGES
----------------------
   0 C :   -0.048286
   1 O :    0.036514
   2 C :   -0.074180
   3 C :    0.028629
   4 H :   -0.007698
   5 H :    0.029479
   6 H :    0.016852
   7 H :    0.018689

  Mayer bond orders larger than 0.100000
B(  0-C ,  1-O ) :   2.2445 B(  0-C ,  2-C ) :   0.9805 B(  0-C ,  4-H ) :   0.9109
B(  2-C ,  3-C ) :   2.0200 B(  2-C ,  5-H ) :   0.9377 B(  3-C ,  6-H ) :   0.9392
B(  3-C ,  7-H ) :   0.9339

-----------------------------------------------------------------------------
         ABSORPTION SPECTRUM VIA TRANSITION ELECTRIC DIPOLE MOMENTS
-----------------------------------------------------------------------------
State   Energy    Wavelength  fosc         T2        TX        TY        TZ
        (cm-1)      (nm)                 (au**2)    (au)      (au)      (au)
-----------------------------------------------------------------------------
   1   29492.4    339.1   0.000847274   0.00946   0.09170   0.01018  -0.03075

FINAL SINGLE POINT ENERGY      -191.645716562696

DIPOLE MOMENT
-------------
                                X             Y             Z
Electronic contribution:     -1.90523      -1.80451      -0.13635
Nuclear contribution   :      2.24068       2.57487       0.10787
                        -----------------------------------------
Total Dipole Moment    :      0.33545       0.77035      -0.02848
                        -----------------------------------------
Magnitude (a.u.)       :      0.84070
Magnitude (Debye)      :      2.13689

Rotational constants in cm-1:     0.790292     0.208385     0.165293
Rotational constants in MHz : 23692.357949  6247.229222  4955.369005

                             ****ORCA TERMINATED NORMALLY****
TOTAL RUN TIME: 0 days 0 hours 3 minutes 15 seconds 384 msec
