                         Program Version 5.0.3 -  RELEASE  -
|  1> ! HF-3c
|  2> !TightSCF
|  3> %scf
|  4>  ConvForced true
|  5>  convergence tight
|  6>  MaxIter 500
|  7> end
|  8>
|  9> %tddft
| 10>  nroots 1
| 11> end
| 12>
| 13> # 	13558
| 14> * xyz 0 1
| 15> 		C   -1.183135  -0.460450  -0.023461
| 16> 		O   -2.232280  -0.344028  -0.651905
| 17> 		C   -0.045725   0.403964  -0.357186
| 18> 		C    1.186216   0.106160   0.318137
| 19> 		H   -0.945473  -0.900101   0.613912
| 20> 		H   -0.192763   1.064035  -1.048134
| 21> 		H    1.296453  -0.700950   1.027565
| 22> 		H    2.035868   0.759428   0.148023
| 23> *
| 24>
| 25>                          ****END OF INPUT****

CARTESIAN COORDINATES (ANGSTROEM)
---------------------------------
  C     -1.183135   -0.460450   -0.023461
  O     -2.232280   -0.344028   -0.651905
  C     -0.045725    0.403964   -0.357186
  C      1.186216    0.106160    0.318137
  H     -0.945473   -0.900101    0.613912
  H     -0.192763    1.064035   -1.048134
  H      1.296453   -0.700950    1.027565
  H      2.035868    0.759428    0.148023

 Total Charge           Charge          ....    0
 Multiplicity           Mult            ....    1
 Number of Electrons    NEL             ....   30
 Basis Dimension        Dim             ....   24

ORBITAL ENERGIES
----------------

  NO   OCC          E(Eh)            E(eV)
   0   2.0000     -20.383039      -554.6507
   1   2.0000     -11.317357      -307.9609
   2   2.0000     -11.200257      -304.7745
   3   2.0000     -11.190343      -304.5047
   4   2.0000      -1.401709       -38.1424
   5   2.0000      -1.087452       -29.5911
   6   2.0000      -0.932620       -25.3779
   7   2.0000      -0.844313       -22.9749
   8   2.0000      -0.678051       -18.4507
   9   2.0000      -0.650885       -17.7115
  10   2.0000      -0.592170       -16.1138
  11   2.0000      -0.577756       -15.7215
  12   2.0000      -0.546873       -14.8812
  13   2.0000      -0.430803       -11.7227
  14   2.0000      -0.373971       -10.1763
  15   0.0000       0.101808         2.7703
  16   0.0000       0.268213         7.2985
  17   0.0000       0.597915        16.2701
  18   0.0000       0.626514        17.0483
  19   0.0000       0.688036        18.7224

MULLIKEN ATOMIC CHARGES
-----------------------
   0 C :    0.108022
   1 O :   -0.316344
   2 C :   -0.162181
   3 C :   -0.208331
   4 H :    0.135203
   5 H :    0.150973
   6 H :    0.145740
   7 H :    0.146918
Sum of atomic charges:   -0.0000000

LOEWDIN ATOMIC CHARGES
----------------------
   0 C :    0.121006
   1 O :   -0.229435
   2 C :   -0.113181
   3 C :   -0.106282
   4 H :    0.051639
   5 H :    0.086531
   6 H :    0.094352
   7 H :    0.095371

  Mayer bond orders larger than 0.100000
B(  0-C ,  1-O ) :   1.8878 B(  0-C ,  2-C ) :   1.0561 B(  0-C ,  4-H ) :   0.9491
B(  2-C ,  3-C ) :   1.9065 B(  2-C ,  5-H ) :   0.9668 B(  3-C ,  6-H ) :   0.9679
B(  3-C ,  7-H ) :   0.9687

-----------------------------------------------------------------------------
         ABSORPTION SPECTRUM VIA TRANSITION ELECTRIC DIPOLE MOMENTS
-----------------------------------------------------------------------------
State   Energy    Wavelength  fosc         T2        TX        TY        TZ
        (cm-1)      (nm)                 (au**2)    (au)      (au)      (au)
-----------------------------------------------------------------------------
   1   29519.8    338.8   0.000058878   0.00066  -0.01690  -0.01191  -0.01514

Dispersion correction           -0.026261909
FINAL SINGLE POINT ENERGY      -189.209776042947

DIPOLE MOMENT
-------------
                                X             Y             Z
Electronic contribution:     -3.20953      -0.51345      -0.89263
Nuclear contribution   :      4.31122       0.51829       1.38701
                        -----------------------------------------
Total Dipole Moment    :      1.10168       0.00484       0.49438
                        -----------------------------------------
Magnitude (a.u.)       :      1.20754
Magnitude (Debye)      :      3.06931

Rotational constants in cm-1:     1.612890     0.155175     0.141763
Rotational constants in MHz : 48353.239242  4652.035870  4249.933133

                             ****ORCA TERMINATED NORMALLY****
TOTAL RUN TIME: 0 days 0 hours 0 minutes 8 seconds 710 msec
