                         Program Version 5.0.3 -  RELEASE  -
|  1> ! HF-3c
|  2> !TightSCF
|  3> %scf
|  4>  ConvForced true
|  5>  convergence tight
|  6>  MaxIter 500
|  7> end
|  8>
|  9> %tddft
| 10>  nroots 1
| 11> end
| 12>
| 13> # 	5814
| 14> * xyz 0 1
| 15> 		C   -1.256372  -0.351302  -0.101632
| 16> 		O   -1.941587  -0.624052  -0.921037
| 17> 		C    0.011005   0.470170  -0.224718
| 18> 		C    1.160927   0.068920   0.283825
| 19> 		H   -1.294487  -0.786320   0.903142
| 20> 		H   -0.016827   1.410612  -0.970946
| 21> 		H    1.251863  -0.784275   1.127429
| 22> 		H    2.091569   0.581794  -0.046462
| 23> *
| 24>
| 25>                          ****END OF INPUT****

CARTESIAN COORDINATES (ANGSTROEM)
---------------------------------
  C     -1.256372   -0.351302   -0.101632
  O     -1.941587   -0.624052   -0.921037
  C      0.011005    0.470170   -0.224718
  C      1.160927    0.068920    0.283825
  H     -1.294487   -0.786320    0.903142
  H     -0.016827    1.410612   -0.970946
  H      1.251863   -0.784275    1.127429
  H      2.091569    0.581794   -0.046462

 Total Charge           Charge          ....    0
 Multiplicity           Mult            ....    1
 Number of Electrons    NEL             ....   30
 Basis Dimension        Dim             ....   24

ORBITAL ENERGIES
----------------

  NO   OCC          E(Eh)            E(eV)
   0   2.0000     -20.413311      -555.4744
   1   2.0000     -11.332844      -308.3824
   2   2.0000     -11.177515      -304.1556
   3   2.0000     -11.174455      -304.0724
   4   2.0000      -1.496657       -40.7261
   5   2.0000      -1.068222       -29.0678
   6   2.0000      -0.865480       -23.5509
   7   2.0000      -0.769709       -20.9448
   8   2.0000      -0.669564       -18.2198
   9   2.0000      -0.650938       -17.7129
  10   2.0000      -0.609517       -16.5858
  11   2.0000      -0.576668       -15.6919
  12   2.0000      -0.516531       -14.0555
  13   2.0000      -0.407411       -11.0862
  14   2.0000      -0.386268       -10.5109
  15   0.0000       0.176552         4.8042
  16   0.0000       0.291738         7.9386
  17   0.0000       0.501074        13.6349
  18   0.0000       0.563947        15.3458
  19   0.0000       0.592204        16.1147

MULLIKEN ATOMIC CHARGES
-----------------------
   0 C :    0.211421
   1 O :   -0.368065
   2 C :   -0.161881
   3 C :   -0.233910
   4 H :    0.124111
   5 H :    0.146664
   6 H :    0.140597
   7 H :    0.141063
Sum of atomic charges:   -0.0000000

LOEWDIN ATOMIC CHARGES
----------------------
   0 C :    0.159734
   1 O :   -0.228656
   2 C :   -0.134048
   3 C :   -0.149198
   4 H :    0.056081
   5 H :    0.102956
   6 H :    0.099712
   7 H :    0.093419

  Mayer bond orders larger than 0.100000
B(  0-C ,  1-O ) :   1.9468 B(  0-C ,  2-C ) :   0.9673 B(  0-C ,  4-H ) :   0.9044
B(  2-C ,  3-C ) :   1.9858 B(  2-C ,  5-H ) :   0.9489 B(  3-C ,  6-H ) :   0.9576
B(  3-C ,  7-H ) :   0.9613

-----------------------------------------------------------------------------
         ABSORPTION SPECTRUM VIA TRANSITION ELECTRIC DIPOLE MOMENTS
-----------------------------------------------------------------------------
State   Energy    Wavelength  fosc         T2        TX        TY        TZ
        (cm-1)      (nm)                 (au**2)    (au)      (au)      (au)
-----------------------------------------------------------------------------
   1   40551.5    246.6   0.000184932   0.00150   0.03828   0.00238  -0.00551

Dispersion correction           -0.025158629
FINAL SINGLE POINT ENERGY      -189.261764863438

DIPOLE MOMENT
-------------
                                X             Y             Z
Electronic contribution:     -3.13927      -0.65034      -1.28077
Nuclear contribution   :      3.89574       0.87730       1.89283
                        -----------------------------------------
Total Dipole Moment    :      0.75647       0.22696       0.61206
                        -----------------------------------------
Magnitude (a.u.)       :      0.99919
Magnitude (Debye)      :      2.53973

Rotational constants in cm-1:     1.292114     0.160950     0.150667
Rotational constants in MHz : 38736.610623  4825.158193  4516.893701

                             ****ORCA TERMINATED NORMALLY****
TOTAL RUN TIME: 0 days 0 hours 0 minutes 10 seconds 704 msec
