                         Program Version 5.0.3 -  RELEASE  -
|  1> ! B3LYP cc-pVDZ
|  2> !TightSCF
|  3> %scf
|  4>  ConvForced true
|  5>  convergence tight
|  6>  MaxIter 500
|  7> end
|  8>
|  9> %tddft
| 10>  nroots 1
| 11> end
| 12>
| 13> # 	5108
| 14> * xyz 0 1
| 15> 		C   -1.142969  -0.303271  -0.039802
| 16> 		O   -1.514245  -1.245880  -0.708483
| 17> 		C    0.025452   0.518322  -0.184311
| 18> 		C    1.237255   0.025633   0.168879
| 19> 		H   -1.739858  -0.074146   0.895383
| 20> 		H   -0.106881   1.545307  -0.620370
| 21> 		H    1.349858  -1.070626   0.575304
| 22> 		H    1.921798   0.633014  -0.056949
| 23> *
| 24>
| 25>                          ****END OF INPUT****

CARTESIAN COORDINATES (ANGSTROEM)
---------------------------------
  C     -1.142969   -0.303271   -0.039802
  O     -1.514245   -1.245880   -0.708483
  C      0.025452    0.518322   -0.184311
  C      1.237255    0.025633    0.168879
  H     -1.739858   -0.074146    0.895383
  H     -0.106881    1.545307   -0.620370
  H      1.349858   -1.070626    0.575304
  H      1.921798    0.633014   -0.056949

 Total Charge           Charge          ....    0
 Multiplicity           Mult            ....    1
 Number of Electrons    NEL             ....   30
 Basis Dimension        Dim             ....   76

ORBITAL ENERGIES
----------------

  NO   OCC          E(Eh)            E(eV)
   0   2.0000     -19.142641      -520.8977
   1   2.0000     -10.277220      -279.6574
   2   2.0000     -10.211259      -277.8625
   3   2.0000     -10.204017      -277.6654
   4   2.0000      -1.047198       -28.4957
   5   2.0000      -0.805668       -21.9233
   6   2.0000      -0.667856       -18.1733
   7   2.0000      -0.544594       -14.8192
   8   2.0000      -0.505943       -13.7674
   9   2.0000      -0.454407       -12.3650
  10   2.0000      -0.439383       -11.9562
  11   2.0000      -0.403647       -10.9838
  12   2.0000      -0.370941       -10.0938
  13   2.0000      -0.285679        -7.7737
  14   2.0000      -0.252943        -6.8829
  15   0.0000      -0.036395        -0.9904
  16   0.0000      -0.013286        -0.3615
  17   0.0000       0.075986         2.0677
  18   0.0000       0.085441         2.3250
  19   0.0000       0.102905         2.8002

MULLIKEN ATOMIC CHARGES
-----------------------
   0 C :    0.164928
   1 O :   -0.184278
   2 C :   -0.120832
   3 C :    0.106386
   4 H :   -0.017250
   5 H :    0.031670
   6 H :    0.052297
   7 H :   -0.032921
Sum of atomic charges:   -0.0000000

LOEWDIN ATOMIC CHARGES
----------------------
   0 C :   -0.033696
   1 O :    0.003394
   2 C :   -0.053931
   3 C :    0.005180
   4 H :   -0.005957
   5 H :    0.048058
   6 H :    0.055128
   7 H :   -0.018176

  Mayer bond orders larger than 0.100000
B(  0-C ,  1-O ) :   2.2371 B(  0-C ,  2-C ) :   1.0088 B(  0-C ,  4-H ) :   0.9087
B(  2-C ,  3-C ) :   2.0157 B(  2-C ,  5-H ) :   0.9300 B(  3-C ,  6-H ) :   0.9468
B(  3-C ,  7-H ) :   0.9316

-----------------------------------------------------------------------------
         ABSORPTION SPECTRUM VIA TRANSITION ELECTRIC DIPOLE MOMENTS
-----------------------------------------------------------------------------
State   Energy    Wavelength  fosc         T2        TX        TY        TZ
        (cm-1)      (nm)                 (au**2)    (au)      (au)      (au)
-----------------------------------------------------------------------------
   1   32575.5    307.0   0.000476969   0.00482  -0.06879   0.00131  -0.00933

FINAL SINGLE POINT ENERGY      -191.617720712732

DIPOLE MOMENT
-------------
                                X             Y             Z
Electronic contribution:     -2.23020      -1.28482      -1.10823
Nuclear contribution   :      2.74928       2.02643       1.48639
                        -----------------------------------------
Total Dipole Moment    :      0.51908       0.74162       0.37816
                        -----------------------------------------
Magnitude (a.u.)       :      0.98104
Magnitude (Debye)      :      2.49361

Rotational constants in cm-1:     0.899072     0.180106     0.162840
Rotational constants in MHz : 26953.493380  5399.437799  4881.822084

                             ****ORCA TERMINATED NORMALLY****
TOTAL RUN TIME: 0 days 0 hours 3 minutes 2 seconds 563 msec
