                         Program Version 5.0.3 -  RELEASE  -
|  1> ! HF-3c
|  2> !TightSCF
|  3> %scf
|  4>  ConvForced true
|  5>  convergence tight
|  6>  MaxIter 500
|  7> end
|  8>
|  9> %tddft
| 10>  nroots 1
| 11> end
| 12>
| 13> # 	2465
| 14> * xyz 0 1
| 15> 		C   -1.215684  -0.414967   0.044400
| 16> 		O   -1.360883  -1.612195  -0.284045
| 17> 		C    0.023992   0.427528  -0.119744
| 18> 		C    1.277091   0.029460   0.100263
| 19> 		H   -2.040757   0.214315   0.364858
| 20> 		H   -0.237277   1.516866  -0.198061
| 21> 		H    1.579536  -0.985849   0.228983
| 22> 		H    1.938415   0.733884  -0.123091
| 23> *
| 24>
| 25>                          ****END OF INPUT****

CARTESIAN COORDINATES (ANGSTROEM)
---------------------------------
  C     -1.215684   -0.414967    0.044400
  O     -1.360883   -1.612195   -0.284045
  C      0.023992    0.427528   -0.119744
  C      1.277091    0.029460    0.100263
  H     -2.040757    0.214315    0.364858
  H     -0.237277    1.516866   -0.198061
  H      1.579536   -0.985849    0.228983
  H      1.938415    0.733884   -0.123091

 Total Charge           Charge          ....    0
 Multiplicity           Mult            ....    1
 Number of Electrons    NEL             ....   30
 Basis Dimension        Dim             ....   24

ORBITAL ENERGIES
----------------

  NO   OCC          E(Eh)            E(eV)
   0   2.0000     -20.366734      -554.2070
   1   2.0000     -11.290267      -307.2238
   2   2.0000     -11.195571      -304.6470
   3   2.0000     -11.192810      -304.5718
   4   2.0000      -1.375097       -37.4183
   5   2.0000      -1.084471       -29.5099
   6   2.0000      -0.909468       -24.7479
   7   2.0000      -0.752194       -20.4682
   8   2.0000      -0.697850       -18.9895
   9   2.0000      -0.615362       -16.7448
  10   2.0000      -0.609237       -16.5782
  11   2.0000      -0.544616       -14.8198
  12   2.0000      -0.513736       -13.9795
  13   2.0000      -0.416905       -11.3446
  14   2.0000      -0.398590       -10.8462
  15   0.0000       0.125767         3.4223
  16   0.0000       0.277754         7.5581
  17   0.0000       0.556554        15.1446
  18   0.0000       0.594175        16.1683
  19   0.0000       0.681186        18.5360

MULLIKEN ATOMIC CHARGES
-----------------------
   0 C :    0.153568
   1 O :   -0.336303
   2 C :   -0.146884
   3 C :   -0.255536
   4 H :    0.135417
   5 H :    0.142950
   6 H :    0.160718
   7 H :    0.146072
Sum of atomic charges:   -0.0000000

LOEWDIN ATOMIC CHARGES
----------------------
   0 C :    0.145196
   1 O :   -0.251810
   2 C :   -0.105471
   3 C :   -0.148068
   4 H :    0.072014
   5 H :    0.093853
   6 H :    0.105554
   7 H :    0.088733

  Mayer bond orders larger than 0.100000
B(  0-C ,  1-O ) :   1.9204 B(  0-C ,  2-C ) :   1.0143 B(  0-C ,  4-H ) :   0.9291
B(  2-C ,  3-C ) :   1.9600 B(  2-C ,  5-H ) :   0.9557 B(  3-C ,  6-H ) :   0.9606
B(  3-C ,  7-H ) :   0.9656

-----------------------------------------------------------------------------
         ABSORPTION SPECTRUM VIA TRANSITION ELECTRIC DIPOLE MOMENTS
-----------------------------------------------------------------------------
State   Energy    Wavelength  fosc         T2        TX        TY        TZ
        (cm-1)      (nm)                 (au**2)    (au)      (au)      (au)
-----------------------------------------------------------------------------
   1   30469.2    328.2   0.000357825   0.00387  -0.06112  -0.01132   0.00145

Dispersion correction           -0.025151839
FINAL SINGLE POINT ENERGY      -189.335597123794

DIPOLE MOMENT
-------------
                                X             Y             Z
Electronic contribution:     -2.15919      -1.98119      -0.28564
Nuclear contribution   :      2.45334       2.96313       0.51843
                        -----------------------------------------
Total Dipole Moment    :      0.29415       0.98194       0.23279
                        -----------------------------------------
Magnitude (a.u.)       :      1.05116
Magnitude (Debye)      :      2.67182

Rotational constants in cm-1:     0.833019     0.181715     0.151970
Rotational constants in MHz : 24973.271909  5447.677186  4555.931170

                             ****ORCA TERMINATED NORMALLY****
TOTAL RUN TIME: 0 days 0 hours 0 minutes 13 seconds 241 msec
