                         Program Version 5.0.3 -  RELEASE  -
|  1> ! B3LYP cc-pVDZ
|  2> !TightSCF
|  3> %scf
|  4>  ConvForced true
|  5>  convergence tight
|  6>  MaxIter 500
|  7> end
|  8>
|  9> %tddft
| 10>  nroots 1
| 11> end
| 12>
| 13> # 	24088
| 14> * xyz 0 1
| 15> 		C   -0.604326  -0.422718   0.041163
| 16> 		O   -0.579483  -1.654561  -0.022798
| 17> 		C    0.683879   0.424244  -0.064343
| 18> 		C    1.828751  -0.125621   0.039232
| 19> 		H   -1.719625   0.062448   0.230708
| 20> 		H    0.569980   1.483718  -0.081602
| 21> 		H    1.975946  -1.071882  -0.057537
| 22> 		H    2.610609   0.517295   0.076496
| 23> *
| 24>
| 25>                          ****END OF INPUT****

CARTESIAN COORDINATES (ANGSTROEM)
---------------------------------
  C     -0.604326   -0.422718    0.041163
  O     -0.579483   -1.654561   -0.022798
  C      0.683879    0.424244   -0.064343
  C      1.828751   -0.125621    0.039232
  H     -1.719625    0.062448    0.230708
  H      0.569980    1.483718   -0.081602
  H      1.975946   -1.071882   -0.057537
  H      2.610609    0.517295    0.076496

 Total Charge           Charge          ....    0
 Multiplicity           Mult            ....    1
 Number of Electrons    NEL             ....   30
 Basis Dimension        Dim             ....   76

ORBITAL ENERGIES
----------------

  NO   OCC          E(Eh)            E(eV)
   0   2.0000     -19.141494      -520.8665
   1   2.0000     -10.289243      -279.9845
   2   2.0000     -10.202409      -277.6217
   3   2.0000     -10.184052      -277.1222
   4   2.0000      -1.035401       -28.1747
   5   2.0000      -0.812027       -22.0964
   6   2.0000      -0.648306       -17.6413
   7   2.0000      -0.550617       -14.9831
   8   2.0000      -0.512348       -13.9417
   9   2.0000      -0.453591       -12.3428
  10   2.0000      -0.424047       -11.5389
  11   2.0000      -0.395048       -10.7498
  12   2.0000      -0.387251       -10.5376
  13   2.0000      -0.297130        -8.0853
  14   2.0000      -0.254045        -6.9129
  15   0.0000      -0.063372        -1.7244
  16   0.0000       0.049531         1.3478
  17   0.0000       0.068125         1.8538
  18   0.0000       0.091921         2.5013
  19   0.0000       0.123415         3.3583

MULLIKEN ATOMIC CHARGES
-----------------------
   0 C :    0.134133
   1 O :   -0.202150
   2 C :   -0.127751
   3 C :    0.249013
   4 H :    0.006951
   5 H :   -0.022081
   6 H :   -0.034056
   7 H :   -0.004059
Sum of atomic charges:   -0.0000000

LOEWDIN ATOMIC CHARGES
----------------------
   0 C :   -0.013072
   1 O :   -0.029715
   2 C :   -0.061106
   3 C :    0.052472
   4 H :    0.007669
   5 H :    0.022838
   6 H :   -0.002247
   7 H :    0.023161

  Mayer bond orders larger than 0.100000
B(  0-C ,  1-O ) :   2.1680 B(  0-C ,  2-C ) :   0.9904 B(  0-C ,  4-H ) :   0.8983
B(  2-C ,  3-C ) :   2.0266 B(  2-C ,  5-H ) :   0.9424 B(  3-C ,  6-H ) :   0.9231
B(  3-C ,  7-H ) :   0.9260

-----------------------------------------------------------------------------
         ABSORPTION SPECTRUM VIA TRANSITION ELECTRIC DIPOLE MOMENTS
-----------------------------------------------------------------------------
State   Energy    Wavelength  fosc         T2        TX        TY        TZ
        (cm-1)      (nm)                 (au**2)    (au)      (au)      (au)
-----------------------------------------------------------------------------
   1   28460.0    351.4   0.000168771   0.00195  -0.02767   0.00072  -0.03444

FINAL SINGLE POINT ENERGY      -191.642127224383

DIPOLE MOMENT
-------------
                                X             Y             Z
Electronic contribution:     -1.67191      -1.81968      -0.12074
Nuclear contribution   :      2.06581       2.71767       0.15751
                        -----------------------------------------
Total Dipole Moment    :      0.39390       0.89799       0.03677
                        -----------------------------------------
Magnitude (a.u.)       :      0.98127
Magnitude (Debye)      :      2.49419

Rotational constants in cm-1:     0.776080     0.205516     0.163010
Rotational constants in MHz : 23266.293125  6161.216579  4886.903450

                             ****ORCA TERMINATED NORMALLY****
TOTAL RUN TIME: 0 days 0 hours 3 minutes 19 seconds 366 msec
