                         Program Version 5.0.3 -  RELEASE  -
|  1> ! HF-3c
|  2> !TightSCF
|  3> %scf
|  4>  ConvForced true
|  5>  convergence tight
|  6>  MaxIter 500
|  7> end
|  8>
|  9> %tddft
| 10>  nroots 1
| 11> end
| 12>
| 13> # 	14637
| 14> * xyz 0 1
| 15> 		C   -1.118979  -0.387492   0.056839
| 16> 		O   -2.133718  -0.453800   0.835592
| 17> 		C    0.110219   0.378951   0.440290
| 18> 		C    1.194852   0.157753  -0.231978
| 19> 		H   -1.265300  -0.727274  -1.037544
| 20> 		H   -0.017931   0.892398   1.200062
| 21> 		H    1.180325  -0.444106  -1.095575
| 22> 		H    2.104015   0.627758  -0.117177
| 23> *
| 24>
| 25>                          ****END OF INPUT****

CARTESIAN COORDINATES (ANGSTROEM)
---------------------------------
  C     -1.118979   -0.387492    0.056839
  O     -2.133718   -0.453800    0.835592
  C      0.110219    0.378951    0.440290
  C      1.194852    0.157753   -0.231978
  H     -1.265300   -0.727274   -1.037544
  H     -0.017931    0.892398    1.200062
  H      1.180325   -0.444106   -1.095575
  H      2.104015    0.627758   -0.117177

 Total Charge           Charge          ....    0
 Multiplicity           Mult            ....    1
 Number of Electrons    NEL             ....   30
 Basis Dimension        Dim             ....   24

ORBITAL ENERGIES
----------------

  NO   OCC          E(Eh)            E(eV)
   0   2.0000     -20.348904      -553.7218
   1   2.0000     -11.280349      -306.9539
   2   2.0000     -11.215956      -305.2017
   3   2.0000     -11.210144      -305.0435
   4   2.0000      -1.353152       -36.8211
   5   2.0000      -1.115976       -30.3673
   6   2.0000      -0.893701       -24.3188
   7   2.0000      -0.805959       -21.9313
   8   2.0000      -0.684037       -18.6136
   9   2.0000      -0.664302       -18.0766
  10   2.0000      -0.585095       -15.9212
  11   2.0000      -0.553085       -15.0502
  12   2.0000      -0.515186       -14.0189
  13   2.0000      -0.416120       -11.3232
  14   2.0000      -0.409820       -11.1518
  15   0.0000       0.123600         3.3633
  16   0.0000       0.277207         7.5432
  17   0.0000       0.524929        14.2840
  18   0.0000       0.614529        16.7222
  19   0.0000       0.704746        19.1771

MULLIKEN ATOMIC CHARGES
-----------------------
   0 C :    0.161217
   1 O :   -0.339069
   2 C :   -0.192445
   3 C :   -0.231154
   4 H :    0.142830
   5 H :    0.160184
   6 H :    0.146455
   7 H :    0.151983
Sum of atomic charges:    0.0000000

LOEWDIN ATOMIC CHARGES
----------------------
   0 C :    0.149551
   1 O :   -0.264087
   2 C :   -0.123118
   3 C :   -0.124408
   4 H :    0.085385
   5 H :    0.089773
   6 H :    0.092510
   7 H :    0.094395

  Mayer bond orders larger than 0.100000
B(  0-C ,  1-O ) :   1.9077 B(  0-C ,  2-C ) :   1.0204 B(  0-C ,  4-H ) :   0.9289
B(  2-C ,  3-C ) :   1.9584 B(  2-C ,  5-H ) :   0.9579 B(  3-C ,  6-H ) :   0.9630
B(  3-C ,  7-H ) :   0.9631

-----------------------------------------------------------------------------
         ABSORPTION SPECTRUM VIA TRANSITION ELECTRIC DIPOLE MOMENTS
-----------------------------------------------------------------------------
State   Energy    Wavelength  fosc         T2        TX        TY        TZ
        (cm-1)      (nm)                 (au**2)    (au)      (au)      (au)
-----------------------------------------------------------------------------
   1   29141.1    343.2   0.000134688   0.00152  -0.03475  -0.00978  -0.01477

Dispersion correction           -0.025868811
FINAL SINGLE POINT ENERGY      -189.318795236556

DIPOLE MOMENT
-------------
                                X             Y             Z
Electronic contribution:     -2.89258      -0.57605       1.28699
Nuclear contribution   :      3.85411       0.66434      -2.01419
                        -----------------------------------------
Total Dipole Moment    :      0.96153       0.08829      -0.72720
                        -----------------------------------------
Magnitude (a.u.)       :      1.20879
Magnitude (Debye)      :      3.07249

Rotational constants in cm-1:     1.541440     0.155311     0.142299
Rotational constants in MHz : 46211.198992  4656.100176  4266.015851

                             ****ORCA TERMINATED NORMALLY****
TOTAL RUN TIME: 0 days 0 hours 0 minutes 15 seconds 807 msec
