                         Program Version 5.0.3 -  RELEASE  -
|  1> ! B3LYP cc-pVDZ
|  2> !TightSCF
|  3> %scf
|  4>  ConvForced true
|  5>  convergence tight
|  6>  MaxIter 500
|  7> end
|  8>
|  9> %tddft
| 10>  nroots 1
| 11> end
| 12>
| 13> # 	2604
| 14> * xyz 0 1
| 15> 		C   -1.223363  -0.277635   0.030025
| 16> 		O   -1.349980  -1.491077   0.410895
| 17> 		C   -0.013248   0.460638   0.132420
| 18> 		C    1.180278   0.053882  -0.051803
| 19> 		H   -1.966384   0.157868  -0.618743
| 20> 		H   -0.146700   1.613424   0.358004
| 21> 		H    1.325210  -1.156248  -0.275179
| 22> 		H    2.222024   0.617743   0.055814
| 23> *
| 24>
| 25>                          ****END OF INPUT****

CARTESIAN COORDINATES (ANGSTROEM)
---------------------------------
  C     -1.223363   -0.277635    0.030025
  O     -1.349980   -1.491077    0.410895
  C     -0.013248    0.460638    0.132420
  C      1.180278    0.053882   -0.051803
  H     -1.966384    0.157868   -0.618743
  H     -0.146700    1.613424    0.358004
  H      1.325210   -1.156248   -0.275179
  H      2.222024    0.617743    0.055814

 Total Charge           Charge          ....    0
 Multiplicity           Mult            ....    1
 Number of Electrons    NEL             ....   30
 Basis Dimension        Dim             ....   76

ORBITAL ENERGIES
----------------

  NO   OCC          E(Eh)            E(eV)
   0   2.0000     -19.141750      -520.8735
   1   2.0000     -10.278687      -279.6973
   2   2.0000     -10.227216      -278.2967
   3   2.0000     -10.209222      -277.8071
   4   2.0000      -1.013676       -27.5835
   5   2.0000      -0.810887       -22.0654
   6   2.0000      -0.668841       -18.2001
   7   2.0000      -0.535032       -14.5590
   8   2.0000      -0.498039       -13.5523
   9   2.0000      -0.454962       -12.3801
  10   2.0000      -0.431283       -11.7358
  11   2.0000      -0.369776       -10.0621
  12   2.0000      -0.347175        -9.4471
  13   2.0000      -0.299563        -8.1515
  14   2.0000      -0.258121        -7.0238
  15   0.0000      -0.070684        -1.9234
  16   0.0000       0.030184         0.8213
  17   0.0000       0.058370         1.5883
  18   0.0000       0.068581         1.8662
  19   0.0000       0.110252         3.0001

MULLIKEN ATOMIC CHARGES
-----------------------
   0 C :    0.195799
   1 O :   -0.237219
   2 C :   -0.067481
   3 C :   -0.032607
   4 H :    0.003126
   5 H :    0.020680
   6 H :    0.055617
   7 H :    0.062085
Sum of atomic charges:   -0.0000000

LOEWDIN ATOMIC CHARGES
----------------------
   0 C :    0.007569
   1 O :   -0.054532
   2 C :   -0.099031
   3 C :   -0.017544
   4 H :    0.005175
   5 H :    0.051120
   6 H :    0.053355
   7 H :    0.053888

  Mayer bond orders larger than 0.100000
B(  0-C ,  1-O ) :   2.1355 B(  0-C ,  2-C ) :   1.0631 B(  0-C ,  4-H ) :   0.9256
B(  2-C ,  3-C ) :   1.9993 B(  2-C ,  5-H ) :   0.9108 B(  3-C ,  6-H ) :   0.9193
B(  3-C ,  7-H ) :   0.9341

-----------------------------------------------------------------------------
         ABSORPTION SPECTRUM VIA TRANSITION ELECTRIC DIPOLE MOMENTS
-----------------------------------------------------------------------------
State   Energy    Wavelength  fosc         T2        TX        TY        TZ
        (cm-1)      (nm)                 (au**2)    (au)      (au)      (au)
-----------------------------------------------------------------------------
   1   26818.2    372.9   0.000183816   0.00226   0.02717  -0.01583   0.03561

FINAL SINGLE POINT ENERGY      -191.646917185372

DIPOLE MOMENT
-------------
                                X             Y             Z
Electronic contribution:     -2.27079      -1.50901       0.64587
Nuclear contribution   :      2.72525       2.46292      -0.94289
                        -----------------------------------------
Total Dipole Moment    :      0.45445       0.95391      -0.29702
                        -----------------------------------------
Magnitude (a.u.)       :      1.09758
Magnitude (Debye)      :      2.78984

Rotational constants in cm-1:     0.814330     0.194413     0.161632
Rotational constants in MHz : 24412.999627  5828.341342  4845.618576

                             ****ORCA TERMINATED NORMALLY****
TOTAL RUN TIME: 0 days 0 hours 3 minutes 22 seconds 250 msec
