                         Program Version 5.0.3 -  RELEASE  -
|  1> ! B3LYP cc-pVDZ
|  2> !TightSCF
|  3> %scf
|  4>  ConvForced true
|  5>  convergence tight
|  6>  MaxIter 500
|  7> end
|  8>
|  9> %tddft
| 10>  nroots 1
| 11> end
| 12>
| 13> # 	21472
| 14> * xyz 0 1
| 15> 		C   -0.605057  -0.469668  -0.048736
| 16> 		O   -0.581505  -1.592939   0.028932
| 17> 		C    0.643907   0.400046   0.020020
| 18> 		C    1.863115  -0.124617   0.001412
| 19> 		H   -1.697002   0.069883  -0.009846
| 20> 		H    0.506337   1.403625   0.055367
| 21> 		H    2.009328  -1.202155  -0.260268
| 22> 		H    2.698019   0.572139   0.092786
| 23> *
| 24>
| 25>                          ****END OF INPUT****

CARTESIAN COORDINATES (ANGSTROEM)
---------------------------------
  C     -0.605057   -0.469668   -0.048736
  O     -0.581505   -1.592939    0.028932
  C      0.643907    0.400046    0.020020
  C      1.863115   -0.124617    0.001412
  H     -1.697002    0.069883   -0.009846
  H      0.506337    1.403625    0.055367
  H      2.009328   -1.202155   -0.260268
  H      2.698019    0.572139    0.092786

 Total Charge           Charge          ....    0
 Multiplicity           Mult            ....    1
 Number of Electrons    NEL             ....   30
 Basis Dimension        Dim             ....   76

ORBITAL ENERGIES
----------------

  NO   OCC          E(Eh)            E(eV)
   0   2.0000     -19.141614      -520.8698
   1   2.0000     -10.277132      -279.6550
   2   2.0000     -10.209766      -277.8219
   3   2.0000     -10.194260      -277.3999
   4   2.0000      -1.099998       -29.9325
   5   2.0000      -0.792604       -21.5679
   6   2.0000      -0.638365       -17.3708
   7   2.0000      -0.535149       -14.5621
   8   2.0000      -0.514581       -14.0024
   9   2.0000      -0.454680       -12.3725
  10   2.0000      -0.430040       -11.7020
  11   2.0000      -0.427461       -11.6318
  12   2.0000      -0.389993       -10.6123
  13   2.0000      -0.289128        -7.8676
  14   2.0000      -0.251530        -6.8445
  15   0.0000      -0.055052        -1.4980
  16   0.0000       0.063449         1.7265
  17   0.0000       0.073091         1.9889
  18   0.0000       0.090611         2.4656
  19   0.0000       0.118603         3.2274

MULLIKEN ATOMIC CHARGES
-----------------------
   0 C :    0.120671
   1 O :   -0.101850
   2 C :   -0.069344
   3 C :    0.061862
   4 H :   -0.040445
   5 H :   -0.044718
   6 H :    0.041653
   7 H :    0.032172
Sum of atomic charges:   -0.0000000

LOEWDIN ATOMIC CHARGES
----------------------
   0 C :   -0.088007
   1 O :    0.082901
   2 C :   -0.070049
   3 C :    0.014304
   4 H :   -0.017864
   5 H :    0.005107
   6 H :    0.039421
   7 H :    0.034186

  Mayer bond orders larger than 0.100000
B(  0-C ,  1-O ) :   2.3021 B(  0-C ,  2-C ) :   0.9889 B(  0-C ,  4-H ) :   0.8816
B(  2-C ,  3-C ) :   1.9957 B(  2-C ,  5-H ) :   0.9482 B(  3-C ,  6-H ) :   0.9327
B(  3-C ,  7-H ) :   0.9368

-----------------------------------------------------------------------------
         ABSORPTION SPECTRUM VIA TRANSITION ELECTRIC DIPOLE MOMENTS
-----------------------------------------------------------------------------
State   Energy    Wavelength  fosc         T2        TX        TY        TZ
        (cm-1)      (nm)                 (au**2)    (au)      (au)      (au)
-----------------------------------------------------------------------------
   1   30884.8    323.8   0.000186369   0.00199  -0.02259   0.00158   0.03839

FINAL SINGLE POINT ENERGY      -191.642631675416

DIPOLE MOMENT
-------------
                                X             Y             Z
Electronic contribution:     -1.75686      -1.87194       0.04447
Nuclear contribution   :      2.14250       2.58005      -0.11480
                        -----------------------------------------
Total Dipole Moment    :      0.38564       0.70811      -0.07033
                        -----------------------------------------
Magnitude (a.u.)       :      0.80937
Magnitude (Debye)      :      2.05726

Rotational constants in cm-1:     0.811375     0.206897     0.165269
Rotational constants in MHz : 24324.403995  6202.628006  4954.626175

                             ****ORCA TERMINATED NORMALLY****
TOTAL RUN TIME: 0 days 0 hours 3 minutes 20 seconds 861 msec
