                         Program Version 5.0.3 -  RELEASE  -
|  1> ! B3LYP cc-pVDZ
|  2> !TightSCF
|  3> %scf
|  4>  ConvForced true
|  5>  convergence tight
|  6>  MaxIter 500
|  7> end
|  8>
|  9> %tddft
| 10>  nroots 1
| 11> end
| 12>
| 13> # 	1999
| 14> * xyz 0 1
| 15> 		C   -1.132855  -0.347338  -0.119385
| 16> 		O   -2.233618  -0.056563  -0.721284
| 17> 		C    0.072232   0.431675  -0.286065
| 18> 		C    1.229342   0.048991   0.324097
| 19> 		H   -1.167538  -1.210025   0.721670
| 20> 		H   -0.011679   0.985803  -1.061064
| 21> 		H    1.231970  -0.376303   1.181552
| 22> 		H    2.121267   0.490541   0.017379
| 23> *
| 24>
| 25>                          ****END OF INPUT****

CARTESIAN COORDINATES (ANGSTROEM)
---------------------------------
  C     -1.132855   -0.347338   -0.119385
  O     -2.233618   -0.056563   -0.721284
  C      0.072232    0.431675   -0.286065
  C      1.229342    0.048991    0.324097
  H     -1.167538   -1.210025    0.721670
  H     -0.011679    0.985803   -1.061064
  H      1.231970   -0.376303    1.181552
  H      2.121267    0.490541    0.017379

 Total Charge           Charge          ....    0
 Multiplicity           Mult            ....    1
 Number of Electrons    NEL             ....   30
 Basis Dimension        Dim             ....   76

ORBITAL ENERGIES
----------------

  NO   OCC          E(Eh)            E(eV)
   0   2.0000     -19.137144      -520.7481
   1   2.0000     -10.282268      -279.7947
   2   2.0000     -10.213809      -277.9319
   3   2.0000     -10.206186      -277.7244
   4   2.0000      -1.004400       -27.3311
   5   2.0000      -0.816509       -22.2183
   6   2.0000      -0.673937       -18.3388
   7   2.0000      -0.580944       -15.8083
   8   2.0000      -0.483393       -13.1538
   9   2.0000      -0.480885       -13.0855
  10   2.0000      -0.411766       -11.2047
  11   2.0000      -0.403260       -10.9733
  12   2.0000      -0.380916       -10.3653
  13   2.0000      -0.288950        -7.8627
  14   2.0000      -0.252719        -6.8768
  15   0.0000      -0.086034        -2.3411
  16   0.0000       0.033517         0.9120
  17   0.0000       0.075864         2.0644
  18   0.0000       0.085064         2.3147
  19   0.0000       0.126449         3.4408

MULLIKEN ATOMIC CHARGES
-----------------------
   0 C :    0.118638
   1 O :   -0.253100
   2 C :    0.035025
   3 C :    0.151617
   4 H :    0.000146
   5 H :   -0.061072
   6 H :   -0.014636
   7 H :    0.023381
Sum of atomic charges:   -0.0000000

LOEWDIN ATOMIC CHARGES
----------------------
   0 C :    0.000710
   1 O :   -0.074750
   2 C :   -0.014945
   3 C :    0.065768
   4 H :    0.007979
   5 H :   -0.005651
   6 H :   -0.006500
   7 H :    0.027388

  Mayer bond orders larger than 0.100000
B(  0-C ,  1-O ) :   2.0482 B(  0-C ,  2-C ) :   1.1275 B(  0-C ,  4-H ) :   0.9159
B(  1-O ,  3-C ) :   0.1209 B(  2-C ,  3-C ) :   1.9009 B(  2-C ,  5-H ) :   0.9443
B(  3-C ,  6-H ) :   0.9437 B(  3-C ,  7-H ) :   0.9481

-----------------------------------------------------------------------------
         ABSORPTION SPECTRUM VIA TRANSITION ELECTRIC DIPOLE MOMENTS
-----------------------------------------------------------------------------
State   Energy    Wavelength  fosc         T2        TX        TY        TZ
        (cm-1)      (nm)                 (au**2)    (au)      (au)      (au)
-----------------------------------------------------------------------------
   1   24032.5    416.1   0.000258765   0.00354  -0.02967  -0.02277   0.04632

FINAL SINGLE POINT ENERGY      -191.647290456037

DIPOLE MOMENT
-------------
                                X             Y             Z
Electronic contribution:     -2.87223       0.10929      -1.11592
Nuclear contribution   :      4.12457      -0.14337       1.57865
                        -----------------------------------------
Total Dipole Moment    :      1.25234      -0.03408       0.46272
                        -----------------------------------------
Magnitude (a.u.)       :      1.33553
Magnitude (Debye)      :      3.39465

Rotational constants in cm-1:     1.638313     0.151763     0.139381
Rotational constants in MHz : 49115.380137  4549.733120  4178.529274

                             ****ORCA TERMINATED NORMALLY****
TOTAL RUN TIME: 0 days 0 hours 3 minutes 14 seconds 996 msec
