                         Program Version 5.0.3 -  RELEASE  -
|  1> ! B3LYP cc-pVDZ
|  2> !TightSCF
|  3> %scf
|  4>  ConvForced true
|  5>  convergence tight
|  6>  MaxIter 500
|  7> end
|  8>
|  9> %tddft
| 10>  nroots 1
| 11> end
| 12>
| 13> # 	7551
| 14> * xyz 0 1
| 15> 		C   -1.200173  -0.406284   0.008873
| 16> 		O   -1.860869  -0.915686  -0.874469
| 17> 		C    0.058894   0.373352  -0.242828
| 18> 		C    1.209862   0.084677   0.173879
| 19> 		H   -1.490975  -0.511785   1.128995
| 20> 		H   -0.156861   1.324407  -1.017881
| 21> 		H    1.386236  -0.734006   0.857839
| 22> 		H    2.041675   0.761346  -0.089345
| 23> *
| 24>
| 25>                          ****END OF INPUT****

CARTESIAN COORDINATES (ANGSTROEM)
---------------------------------
  C     -1.200173   -0.406284    0.008873
  O     -1.860869   -0.915686   -0.874469
  C      0.058894    0.373352   -0.242828
  C      1.209862    0.084677    0.173879
  H     -1.490975   -0.511785    1.128995
  H     -0.156861    1.324407   -1.017881
  H      1.386236   -0.734006    0.857839
  H      2.041675    0.761346   -0.089345

 Total Charge           Charge          ....    0
 Multiplicity           Mult            ....    1
 Number of Electrons    NEL             ....   30
 Basis Dimension        Dim             ....   76

ORBITAL ENERGIES
----------------

  NO   OCC          E(Eh)            E(eV)
   0   2.0000     -19.147939      -521.0419
   1   2.0000     -10.287126      -279.9269
   2   2.0000     -10.210991      -277.8552
   3   2.0000     -10.199740      -277.5490
   4   2.0000      -1.050302       -28.5802
   5   2.0000      -0.809851       -22.0372
   6   2.0000      -0.646162       -17.5830
   7   2.0000      -0.547029       -14.8854
   8   2.0000      -0.483618       -13.1599
   9   2.0000      -0.469103       -12.7649
  10   2.0000      -0.439749       -11.9662
  11   2.0000      -0.391777       -10.6608
  12   2.0000      -0.361905        -9.8479
  13   2.0000      -0.302598        -8.2341
  14   2.0000      -0.257364        -7.0032
  15   0.0000      -0.049594        -1.3495
  16   0.0000       0.021146         0.5754
  17   0.0000       0.063319         1.7230
  18   0.0000       0.083066         2.2603
  19   0.0000       0.102683         2.7941

MULLIKEN ATOMIC CHARGES
-----------------------
   0 C :    0.154491
   1 O :   -0.182205
   2 C :   -0.144758
   3 C :    0.085255
   4 H :   -0.003215
   5 H :    0.044612
   6 H :    0.012952
   7 H :    0.032868
Sum of atomic charges:    0.0000000

LOEWDIN ATOMIC CHARGES
----------------------
   0 C :   -0.021848
   1 O :    0.005319
   2 C :   -0.078855
   3 C :   -0.034174
   4 H :   -0.001924
   5 H :    0.059700
   6 H :    0.029125
   7 H :    0.042658

  Mayer bond orders larger than 0.100000
B(  0-C ,  1-O ) :   2.2091 B(  0-C ,  2-C ) :   0.9912 B(  0-C ,  4-H ) :   0.9036
B(  2-C ,  3-C ) :   2.0556 B(  2-C ,  5-H ) :   0.9124 B(  3-C ,  6-H ) :   0.9331
B(  3-C ,  7-H ) :   0.9209

-----------------------------------------------------------------------------
         ABSORPTION SPECTRUM VIA TRANSITION ELECTRIC DIPOLE MOMENTS
-----------------------------------------------------------------------------
State   Energy    Wavelength  fosc         T2        TX        TY        TZ
        (cm-1)      (nm)                 (au**2)    (au)      (au)      (au)
-----------------------------------------------------------------------------
   1   31462.8    317.8   0.000562040   0.00588  -0.07381  -0.02075   0.00157

FINAL SINGLE POINT ENERGY      -191.638816401572

DIPOLE MOMENT
-------------
                                X             Y             Z
Electronic contribution:     -2.78724      -1.21670      -1.17812
Nuclear contribution   :      3.46725       1.66031       1.74137
                        -----------------------------------------
Total Dipole Moment    :      0.68001       0.44361       0.56325
                        -----------------------------------------
Magnitude (a.u.)       :      0.98816
Magnitude (Debye)      :      2.51170

Rotational constants in cm-1:     1.205810     0.157550     0.152467
Rotational constants in MHz : 36149.266239  4723.225722  4570.841449

                             ****ORCA TERMINATED NORMALLY****
TOTAL RUN TIME: 0 days 0 hours 3 minutes 24 seconds 340 msec
