                         Program Version 5.0.3 -  RELEASE  -
|  1> ! HF-3c
|  2> !TightSCF
|  3> %scf
|  4>  ConvForced true
|  5>  convergence tight
|  6>  MaxIter 500
|  7> end
|  8>
|  9> %tddft
| 10>  nroots 1
| 11> end
| 12>
| 13> # 	31018
| 14> * xyz 0 1
| 15> 		C   -0.583276  -0.377474  -0.005129
| 16> 		O   -0.557671  -1.602000  -0.012829
| 17> 		C    0.600313   0.336875   0.030184
| 18> 		C    1.850325  -0.144379  -0.010526
| 19> 		H   -1.600758   0.080892   0.116207
| 20> 		H    0.600600   1.448705  -0.195238
| 21> 		H    2.018893  -1.170340   0.179848
| 22> 		H    2.535734   0.538234  -0.087813
| 23> *
| 24>
| 25>                          ****END OF INPUT****

CARTESIAN COORDINATES (ANGSTROEM)
---------------------------------
  C     -0.583276   -0.377474   -0.005129
  O     -0.557671   -1.602000   -0.012829
  C      0.600313    0.336875    0.030184
  C      1.850325   -0.144379   -0.010526
  H     -1.600758    0.080892    0.116207
  H      0.600600    1.448705   -0.195238
  H      2.018893   -1.170340    0.179848
  H      2.535734    0.538234   -0.087813

 Total Charge           Charge          ....    0
 Multiplicity           Mult            ....    1
 Number of Electrons    NEL             ....   30
 Basis Dimension        Dim             ....   24

ORBITAL ENERGIES
----------------

  NO   OCC          E(Eh)            E(eV)
   0   2.0000     -20.354959      -553.8866
   1   2.0000     -11.293701      -307.3172
   2   2.0000     -11.198917      -304.7380
   3   2.0000     -11.194719      -304.6238
   4   2.0000      -1.395208       -37.9656
   5   2.0000      -1.096226       -29.8298
   6   2.0000      -0.919791       -25.0288
   7   2.0000      -0.751265       -20.4430
   8   2.0000      -0.720231       -19.5985
   9   2.0000      -0.620239       -16.8776
  10   2.0000      -0.610850       -16.6221
  11   2.0000      -0.548374       -14.9220
  12   2.0000      -0.519731       -14.1426
  13   2.0000      -0.421922       -11.4811
  14   2.0000      -0.390137       -10.6162
  15   0.0000       0.111315         3.0290
  16   0.0000       0.318405         8.6643
  17   0.0000       0.551167        14.9980
  18   0.0000       0.639624        17.4051
  19   0.0000       0.697868        18.9900

MULLIKEN ATOMIC CHARGES
-----------------------
   0 C :    0.136126
   1 O :   -0.342303
   2 C :   -0.162716
   3 C :   -0.233401
   4 H :    0.146949
   5 H :    0.143158
   6 H :    0.165193
   7 H :    0.146994
Sum of atomic charges:    0.0000000

LOEWDIN ATOMIC CHARGES
----------------------
   0 C :    0.125007
   1 O :   -0.255086
   2 C :   -0.120935
   3 C :   -0.122014
   4 H :    0.084204
   5 H :    0.094455
   6 H :    0.107211
   7 H :    0.087157

  Mayer bond orders larger than 0.100000
B(  0-C ,  1-O ) :   1.8670 B(  0-C ,  2-C ) :   1.0823 B(  0-C ,  4-H ) :   0.9280
B(  2-C ,  3-C ) :   1.9112 B(  2-C ,  5-H ) :   0.9549 B(  3-C ,  6-H ) :   0.9598
B(  3-C ,  7-H ) :   0.9688

-----------------------------------------------------------------------------
         ABSORPTION SPECTRUM VIA TRANSITION ELECTRIC DIPOLE MOMENTS
-----------------------------------------------------------------------------
State   Energy    Wavelength  fosc         T2        TX        TY        TZ
        (cm-1)      (nm)                 (au**2)    (au)      (au)      (au)
-----------------------------------------------------------------------------
   1   29162.2    342.9   0.000232282   0.00262   0.04827  -0.00245  -0.01692

Dispersion correction           -0.026308609
FINAL SINGLE POINT ENERGY      -189.323335718835

DIPOLE MOMENT
-------------
                                X             Y             Z
Electronic contribution:     -1.93324      -1.69646      -0.00855
Nuclear contribution   :      2.17805       2.62918       0.01320
                        -----------------------------------------
Total Dipole Moment    :      0.24481       0.93272       0.00465
                        -----------------------------------------
Magnitude (a.u.)       :      0.96433
Magnitude (Debye)      :      2.45112

Rotational constants in cm-1:     0.789391     0.219139     0.171900
Rotational constants in MHz : 23665.341910  6569.631621  5153.422618

                             ****ORCA TERMINATED NORMALLY****
TOTAL RUN TIME: 0 days 0 hours 0 minutes 12 seconds 87 msec
