                         Program Version 5.0.3 -  RELEASE  -
|  1> ! HF-3c
|  2> !TightSCF
|  3> %scf
|  4>  ConvForced true
|  5>  convergence tight
|  6>  MaxIter 500
|  7> end
|  8>
|  9> %tddft
| 10>  nroots 1
| 11> end
| 12>
| 13> # 	6275
| 14> * xyz 0 1
| 15> 		C   -1.173221  -0.309947  -0.025402
| 16> 		O   -1.837512  -0.879831  -0.881196
| 17> 		C    0.063468   0.471156  -0.277444
| 18> 		C    1.196532   0.106883   0.209518
| 19> 		H   -1.452484  -0.432748   1.100958
| 20> 		H   -0.077780   1.194289  -0.938128
| 21> 		H    1.240011  -0.775593   0.920335
| 22> 		H    2.083614   0.612726  -0.099575
| 23> *
| 24>
| 25>                          ****END OF INPUT****

CARTESIAN COORDINATES (ANGSTROEM)
---------------------------------
  C     -1.173221   -0.309947   -0.025402
  O     -1.837512   -0.879831   -0.881196
  C      0.063468    0.471156   -0.277444
  C      1.196532    0.106883    0.209518
  H     -1.452484   -0.432748    1.100958
  H     -0.077780    1.194289   -0.938128
  H      1.240011   -0.775593    0.920335
  H      2.083614    0.612726   -0.099575

 Total Charge           Charge          ....    0
 Multiplicity           Mult            ....    1
 Number of Electrons    NEL             ....   30
 Basis Dimension        Dim             ....   24

ORBITAL ENERGIES
----------------

  NO   OCC          E(Eh)            E(eV)
   0   2.0000     -20.368327      -554.2504
   1   2.0000     -11.294082      -307.3276
   2   2.0000     -11.200253      -304.7744
   3   2.0000     -11.196928      -304.6839
   4   2.0000      -1.393726       -37.9252
   5   2.0000      -1.106839       -30.1186
   6   2.0000      -0.883607       -24.0442
   7   2.0000      -0.778766       -21.1913
   8   2.0000      -0.678055       -18.4508
   9   2.0000      -0.652282       -17.7495
  10   2.0000      -0.599137       -16.3034
  11   2.0000      -0.554067       -15.0769
  12   2.0000      -0.511636       -13.9223
  13   2.0000      -0.422309       -11.4916
  14   2.0000      -0.405292       -11.0285
  15   0.0000       0.164131         4.4662
  16   0.0000       0.253835         6.9072
  17   0.0000       0.532725        14.4962
  18   0.0000       0.602791        16.4028
  19   0.0000       0.646612        17.5952

MULLIKEN ATOMIC CHARGES
-----------------------
   0 C :    0.181596
   1 O :   -0.347578
   2 C :   -0.191795
   3 C :   -0.231013
   4 H :    0.133873
   5 H :    0.154918
   6 H :    0.148863
   7 H :    0.151136
Sum of atomic charges:    0.0000000

LOEWDIN ATOMIC CHARGES
----------------------
   0 C :    0.159119
   1 O :   -0.256187
   2 C :   -0.133310
   3 C :   -0.136997
   4 H :    0.075867
   5 H :    0.092560
   6 H :    0.101379
   7 H :    0.097569

  Mayer bond orders larger than 0.100000
B(  0-C ,  1-O ) :   1.9417 B(  0-C ,  2-C ) :   0.9921 B(  0-C ,  4-H ) :   0.9161
B(  2-C ,  3-C ) :   1.9881 B(  2-C ,  5-H ) :   0.9528 B(  3-C ,  6-H ) :   0.9598
B(  3-C ,  7-H ) :   0.9605

-----------------------------------------------------------------------------
         ABSORPTION SPECTRUM VIA TRANSITION ELECTRIC DIPOLE MOMENTS
-----------------------------------------------------------------------------
State   Energy    Wavelength  fosc         T2        TX        TY        TZ
        (cm-1)      (nm)                 (au**2)    (au)      (au)      (au)
-----------------------------------------------------------------------------
   1   33866.9    295.3   0.000031884   0.00031  -0.00412  -0.00922   0.01442

Dispersion correction           -0.025652806
FINAL SINGLE POINT ENERGY      -189.320301608581

DIPOLE MOMENT
-------------
                                X             Y             Z
Electronic contribution:     -2.72177      -0.84140      -1.17672
Nuclear contribution   :      3.43936       1.23764       1.86585
                        -----------------------------------------
Total Dipole Moment    :      0.71759       0.39624       0.68913
                        -----------------------------------------
Magnitude (a.u.)       :      1.07091
Magnitude (Debye)      :      2.72204

Rotational constants in cm-1:     1.195915     0.160682     0.155792
Rotational constants in MHz : 35852.639647  4817.133686  4670.540799

                             ****ORCA TERMINATED NORMALLY****
TOTAL RUN TIME: 0 days 0 hours 0 minutes 16 seconds 63 msec
