                         Program Version 5.0.3 -  RELEASE  -
|  1> ! B3LYP cc-pVDZ
|  2> !TightSCF
|  3> %scf
|  4>  ConvForced true
|  5>  convergence tight
|  6>  MaxIter 500
|  7> end
|  8>
|  9> %tddft
| 10>  nroots 1
| 11> end
| 12>
| 13> # 	25292
| 14> * xyz 0 1
| 15> 		C   -0.634461  -0.456040  -0.028040
| 16> 		O   -0.572824  -1.616095   0.023596
| 17> 		C    0.675186   0.438738  -0.020714
| 18> 		C    1.846656  -0.143966   0.000471
| 19> 		H   -1.625322   0.028166  -0.051236
| 20> 		H    0.357244   1.409979   0.313069
| 21> 		H    2.080309  -1.153095  -0.071999
| 22> 		H    2.731487   0.548832   0.028126
| 23> *
| 24>
| 25>                          ****END OF INPUT****

CARTESIAN COORDINATES (ANGSTROEM)
---------------------------------
  C     -0.634461   -0.456040   -0.028040
  O     -0.572824   -1.616095    0.023596
  C      0.675186    0.438738   -0.020714
  C      1.846656   -0.143966    0.000471
  H     -1.625322    0.028166   -0.051236
  H      0.357244    1.409979    0.313069
  H      2.080309   -1.153095   -0.071999
  H      2.731487    0.548832    0.028126

 Total Charge           Charge          ....    0
 Multiplicity           Mult            ....    1
 Number of Electrons    NEL             ....   30
 Basis Dimension        Dim             ....   76

ORBITAL ENERGIES
----------------

  NO   OCC          E(Eh)            E(eV)
   0   2.0000     -19.138522      -520.7857
   1   2.0000     -10.271353      -279.4977
   2   2.0000     -10.203695      -277.6567
   3   2.0000     -10.200711      -277.5755
   4   2.0000      -1.073714       -29.2173
   5   2.0000      -0.787735       -21.4353
   6   2.0000      -0.642314       -17.4782
   7   2.0000      -0.549378       -14.9493
   8   2.0000      -0.498174       -13.5560
   9   2.0000      -0.460120       -12.5205
  10   2.0000      -0.432758       -11.7760
  11   2.0000      -0.408894       -11.1266
  12   2.0000      -0.377852       -10.2819
  13   2.0000      -0.290596        -7.9075
  14   2.0000      -0.247070        -6.7231
  15   0.0000      -0.053544        -1.4570
  16   0.0000       0.052934         1.4404
  17   0.0000       0.071989         1.9589
  18   0.0000       0.095774         2.6061
  19   0.0000       0.121483         3.3057

MULLIKEN ATOMIC CHARGES
-----------------------
   0 C :    0.152971
   1 O :   -0.144790
   2 C :   -0.125956
   3 C :    0.097655
   4 H :   -0.027943
   5 H :   -0.004481
   6 H :    0.019500
   7 H :    0.033045
Sum of atomic charges:   -0.0000000

LOEWDIN ATOMIC CHARGES
----------------------
   0 C :   -0.048433
   1 O :    0.042438
   2 C :   -0.078053
   3 C :    0.014441
   4 H :   -0.012955
   5 H :    0.022102
   6 H :    0.018964
   7 H :    0.041496

  Mayer bond orders larger than 0.100000
B(  0-C ,  1-O ) :   2.2617 B(  0-C ,  2-C ) :   0.9859 B(  0-C ,  4-H ) :   0.9089
B(  2-C ,  3-C ) :   1.9988 B(  2-C ,  5-H ) :   0.9472 B(  3-C ,  6-H ) :   0.9410
B(  3-C ,  7-H ) :   0.9396

-----------------------------------------------------------------------------
         ABSORPTION SPECTRUM VIA TRANSITION ELECTRIC DIPOLE MOMENTS
-----------------------------------------------------------------------------
State   Energy    Wavelength  fosc         T2        TX        TY        TZ
        (cm-1)      (nm)                 (au**2)    (au)      (au)      (au)
-----------------------------------------------------------------------------
   1   29899.2    334.5   0.000707943   0.00779  -0.08188  -0.02248  -0.02418

FINAL SINGLE POINT ENERGY      -191.650899301282

DIPOLE MOMENT
-------------
                                X             Y             Z
Electronic contribution:     -1.93315      -1.82860      -0.16773
Nuclear contribution   :      2.16860       2.56962       0.20367
                        -----------------------------------------
Total Dipole Moment    :      0.23545       0.74102       0.03594
                        -----------------------------------------
Magnitude (a.u.)       :      0.77836
Magnitude (Debye)      :      1.97843

Rotational constants in cm-1:     0.770048     0.205836     0.162831
Rotational constants in MHz : 23085.446141  6170.801061  4881.557221

                             ****ORCA TERMINATED NORMALLY****
TOTAL RUN TIME: 0 days 0 hours 2 minutes 49 seconds 982 msec
