                         Program Version 5.0.3 -  RELEASE  -
|  1> ! B3LYP cc-pVDZ
|  2> !TightSCF
|  3> %scf
|  4>  ConvForced true
|  5>  convergence tight
|  6>  MaxIter 500
|  7> end
|  8>
|  9> %tddft
| 10>  nroots 1
| 11> end
| 12>
| 13> # 	8062
| 14> * xyz 0 1
| 15> 		C   -1.130996  -0.332246   0.069892
| 16> 		O   -1.279150  -1.532215   0.230732
| 17> 		C    0.035106   0.454089   0.140593
| 18> 		C    1.234276  -0.025409   0.028875
| 19> 		H   -2.132876   0.154655  -0.303080
| 20> 		H   -0.244692   1.549231   0.070725
| 21> 		H    1.571407  -1.053585  -0.202363
| 22> 		H    1.967485   0.762096  -0.000467
| 23> *
| 24>
| 25>                          ****END OF INPUT****

CARTESIAN COORDINATES (ANGSTROEM)
---------------------------------
  C     -1.130996   -0.332246    0.069892
  O     -1.279150   -1.532215    0.230732
  C      0.035106    0.454089    0.140593
  C      1.234276   -0.025409    0.028875
  H     -2.132876    0.154655   -0.303080
  H     -0.244692    1.549231    0.070725
  H      1.571407   -1.053585   -0.202363
  H      1.967485    0.762096   -0.000467

 Total Charge           Charge          ....    0
 Multiplicity           Mult            ....    1
 Number of Electrons    NEL             ....   30
 Basis Dimension        Dim             ....   76

ORBITAL ENERGIES
----------------

  NO   OCC          E(Eh)            E(eV)
   0   2.0000     -19.130648      -520.5714
   1   2.0000     -10.268250      -279.4133
   2   2.0000     -10.217630      -278.0358
   3   2.0000     -10.207529      -277.7610
   4   2.0000      -1.036001       -28.1910
   5   2.0000      -0.817185       -22.2367
   6   2.0000      -0.670009       -18.2319
   7   2.0000      -0.531131       -14.4528
   8   2.0000      -0.511431       -13.9168
   9   2.0000      -0.457999       -12.4628
  10   2.0000      -0.421948       -11.4818
  11   2.0000      -0.391350       -10.6492
  12   2.0000      -0.379718       -10.3327
  13   2.0000      -0.298651        -8.1267
  14   2.0000      -0.245341        -6.6761
  15   0.0000      -0.071371        -1.9421
  16   0.0000       0.051906         1.4124
  17   0.0000       0.063914         1.7392
  18   0.0000       0.088435         2.4065
  19   0.0000       0.117981         3.2104

MULLIKEN ATOMIC CHARGES
-----------------------
   0 C :    0.134384
   1 O :   -0.198962
   2 C :   -0.093797
   3 C :    0.100080
   4 H :   -0.032046
   5 H :    0.012331
   6 H :    0.049896
   7 H :    0.028115
Sum of atomic charges:   -0.0000000

LOEWDIN ATOMIC CHARGES
----------------------
   0 C :   -0.052316
   1 O :   -0.018208
   2 C :   -0.090339
   3 C :    0.035023
   4 H :   -0.004543
   5 H :    0.048239
   6 H :    0.045563
   7 H :    0.036581

  Mayer bond orders larger than 0.100000
B(  0-C ,  1-O ) :   2.1933 B(  0-C ,  2-C ) :   1.0944 B(  0-C ,  4-H ) :   0.9122
B(  2-C ,  3-C ) :   1.9421 B(  2-C ,  5-H ) :   0.9302 B(  3-C ,  6-H ) :   0.9448
B(  3-C ,  7-H ) :   0.9257

-----------------------------------------------------------------------------
         ABSORPTION SPECTRUM VIA TRANSITION ELECTRIC DIPOLE MOMENTS
-----------------------------------------------------------------------------
State   Energy    Wavelength  fosc         T2        TX        TY        TZ
        (cm-1)      (nm)                 (au**2)    (au)      (au)      (au)
-----------------------------------------------------------------------------
   1   25498.2    392.2   0.000586704   0.00758   0.07295   0.01994  -0.04307

FINAL SINGLE POINT ENERGY      -191.672512861716

DIPOLE MOMENT
-------------
                                X             Y             Z
Electronic contribution:     -1.62217      -1.88288       0.62329
Nuclear contribution   :      2.25550       2.77624      -0.81665
                        -----------------------------------------
Total Dipole Moment    :      0.63334       0.89336      -0.19336
                        -----------------------------------------
Magnitude (a.u.)       :      1.11202
Magnitude (Debye)      :      2.82653

Rotational constants in cm-1:     0.831625     0.202927     0.164495
Rotational constants in MHz : 24931.480604  6083.596867  4931.445867

                             ****ORCA TERMINATED NORMALLY****
TOTAL RUN TIME: 0 days 0 hours 3 minutes 20 seconds 720 msec
