                         Program Version 5.0.3 -  RELEASE  -
|  1> ! B3LYP cc-pVDZ
|  2> !TightSCF
|  3> %scf
|  4>  ConvForced true
|  5>  convergence tight
|  6>  MaxIter 500
|  7> end
|  8>
|  9> %tddft
| 10>  nroots 1
| 11> end
| 12>
| 13> # 	1607
| 14> * xyz 0 1
| 15> 		C   -1.227507  -0.344128   0.010117
| 16> 		O   -1.363430  -1.485934  -0.338051
| 17> 		C    0.020252   0.481622  -0.123386
| 18> 		C    1.234909   0.080135   0.025854
| 19> 		H   -2.067116   0.322403   0.585655
| 20> 		H   -0.180574   1.483856  -0.316257
| 21> 		H    1.324645  -1.107061   0.272096
| 22> 		H    2.275084   0.560814  -0.126398
| 23> *
| 24>
| 25>                          ****END OF INPUT****

CARTESIAN COORDINATES (ANGSTROEM)
---------------------------------
  C     -1.227507   -0.344128    0.010117
  O     -1.363430   -1.485934   -0.338051
  C      0.020252    0.481622   -0.123386
  C      1.234909    0.080135    0.025854
  H     -2.067116    0.322403    0.585655
  H     -0.180574    1.483856   -0.316257
  H      1.324645   -1.107061    0.272096
  H      2.275084    0.560814   -0.126398

 Total Charge           Charge          ....    0
 Multiplicity           Mult            ....    1
 Number of Electrons    NEL             ....   30
 Basis Dimension        Dim             ....   76

ORBITAL ENERGIES
----------------

  NO   OCC          E(Eh)            E(eV)
   0   2.0000     -19.152253      -521.1593
   1   2.0000     -10.291181      -280.0373
   2   2.0000     -10.220965      -278.1266
   3   2.0000     -10.198896      -277.5261
   4   2.0000      -1.059726       -28.8366
   5   2.0000      -0.802575       -21.8392
   6   2.0000      -0.649331       -17.6692
   7   2.0000      -0.536337       -14.5945
   8   2.0000      -0.498879       -13.5752
   9   2.0000      -0.454363       -12.3639
  10   2.0000      -0.443995       -12.0817
  11   2.0000      -0.395914       -10.7734
  12   2.0000      -0.358179        -9.7465
  13   2.0000      -0.298190        -8.1142
  14   2.0000      -0.261164        -7.1066
  15   0.0000      -0.058080        -1.5804
  16   0.0000       0.041732         1.1356
  17   0.0000       0.062689         1.7058
  18   0.0000       0.072654         1.9770
  19   0.0000       0.110991         3.0202

MULLIKEN ATOMIC CHARGES
-----------------------
   0 C :    0.138042
   1 O :   -0.163085
   2 C :   -0.033542
   3 C :   -0.014047
   4 H :   -0.008356
   5 H :   -0.021085
   6 H :    0.045796
   7 H :    0.056278
Sum of atomic charges:    0.0000000

LOEWDIN ATOMIC CHARGES
----------------------
   0 C :   -0.032561
   1 O :    0.020055
   2 C :   -0.085593
   3 C :   -0.016248
   4 H :   -0.000914
   5 H :    0.019718
   6 H :    0.048291
   7 H :    0.047252

  Mayer bond orders larger than 0.100000
B(  0-C ,  1-O ) :   2.2298 B(  0-C ,  2-C ) :   1.0086 B(  0-C ,  4-H ) :   0.8807
B(  2-C ,  3-C ) :   1.9913 B(  2-C ,  5-H ) :   0.9412 B(  3-C ,  6-H ) :   0.9230
B(  3-C ,  7-H ) :   0.9447

-----------------------------------------------------------------------------
         ABSORPTION SPECTRUM VIA TRANSITION ELECTRIC DIPOLE MOMENTS
-----------------------------------------------------------------------------
State   Energy    Wavelength  fosc         T2        TX        TY        TZ
        (cm-1)      (nm)                 (au**2)    (au)      (au)      (au)
-----------------------------------------------------------------------------
   1   31140.4    321.1   0.000247143   0.00261  -0.03193  -0.00223  -0.03985

FINAL SINGLE POINT ENERGY      -191.640495247863

DIPOLE MOMENT
-------------
                                X             Y             Z
Electronic contribution:     -2.14877      -1.67926      -0.60838
Nuclear contribution   :      2.60025       2.49670       0.79032
                        -----------------------------------------
Total Dipole Moment    :      0.45148       0.81744       0.18194
                        -----------------------------------------
Magnitude (a.u.)       :      0.95140
Magnitude (Debye)      :      2.41826

Rotational constants in cm-1:     0.845272     0.187332     0.157135
Rotational constants in MHz : 25340.612709  5616.079643  4710.781489

                             ****ORCA TERMINATED NORMALLY****
TOTAL RUN TIME: 0 days 0 hours 3 minutes 21 seconds 460 msec
