                         Program Version 5.0.3 -  RELEASE  -
|  1> ! B3LYP cc-pVDZ
|  2> !TightSCF
|  3> %scf
|  4>  ConvForced true
|  5>  convergence tight
|  6>  MaxIter 500
|  7> end
|  8>
|  9> %tddft
| 10>  nroots 1
| 11> end
| 12>
| 13> # 	7201
| 14> * xyz 0 1
| 15> 		C   -1.185479  -0.298700  -0.073746
| 16> 		O   -1.267605  -1.501051   0.168044
| 17> 		C   -0.001013   0.438065   0.117751
| 18> 		C    1.173719   0.017547  -0.021441
| 19> 		H   -2.172610   0.208793  -0.237035
| 20> 		H    0.053151   1.562554   0.256115
| 21> 		H    1.332044  -0.978496  -0.209356
| 22> 		H    2.089355   0.577354  -0.019991
| 23> *
| 24>
| 25>                          ****END OF INPUT****

CARTESIAN COORDINATES (ANGSTROEM)
---------------------------------
  C     -1.185479   -0.298700   -0.073746
  O     -1.267605   -1.501051    0.168044
  C     -0.001013    0.438065    0.117751
  C      1.173719    0.017547   -0.021441
  H     -2.172610    0.208793   -0.237035
  H      0.053151    1.562554    0.256115
  H      1.332044   -0.978496   -0.209356
  H      2.089355    0.577354   -0.019991

 Total Charge           Charge          ....    0
 Multiplicity           Mult            ....    1
 Number of Electrons    NEL             ....   30
 Basis Dimension        Dim             ....   76

ORBITAL ENERGIES
----------------

  NO   OCC          E(Eh)            E(eV)
   0   2.0000     -19.134874      -520.6864
   1   2.0000     -10.273543      -279.5573
   2   2.0000     -10.196822      -277.4696
   3   2.0000     -10.194868      -277.4165
   4   2.0000      -1.037156       -28.2225
   5   2.0000      -0.821406       -22.3516
   6   2.0000      -0.667716       -18.1695
   7   2.0000      -0.550550       -14.9812
   8   2.0000      -0.523087       -14.2339
   9   2.0000      -0.454024       -12.3546
  10   2.0000      -0.429486       -11.6869
  11   2.0000      -0.397598       -10.8192
  12   2.0000      -0.361358        -9.8330
  13   2.0000      -0.299814        -8.1584
  14   2.0000      -0.254208        -6.9173
  15   0.0000      -0.066647        -1.8135
  16   0.0000       0.051930         1.4131
  17   0.0000       0.071713         1.9514
  18   0.0000       0.102217         2.7815
  19   0.0000       0.121922         3.3177

MULLIKEN ATOMIC CHARGES
-----------------------
   0 C :    0.177948
   1 O :   -0.208022
   2 C :   -0.088866
   3 C :    0.125752
   4 H :   -0.012740
   5 H :   -0.007570
   6 H :   -0.006269
   7 H :    0.019766
Sum of atomic charges:   -0.0000000

LOEWDIN ATOMIC CHARGES
----------------------
   0 C :   -0.028133
   1 O :   -0.019188
   2 C :   -0.087849
   3 C :    0.036240
   4 H :    0.004195
   5 H :    0.046579
   6 H :    0.014500
   7 H :    0.033657

  Mayer bond orders larger than 0.100000
B(  0-C ,  1-O ) :   2.1573 B(  0-C ,  2-C ) :   1.0560 B(  0-C ,  4-H ) :   0.9291
B(  2-C ,  3-C ) :   2.0093 B(  2-C ,  5-H ) :   0.9218 B(  3-C ,  6-H ) :   0.9305
B(  3-C ,  7-H ) :   0.9367

-----------------------------------------------------------------------------
         ABSORPTION SPECTRUM VIA TRANSITION ELECTRIC DIPOLE MOMENTS
-----------------------------------------------------------------------------
State   Energy    Wavelength  fosc         T2        TX        TY        TZ
        (cm-1)      (nm)                 (au**2)    (au)      (au)      (au)
-----------------------------------------------------------------------------
   1   27593.0    362.4   0.000152296   0.00182   0.03354  -0.00296  -0.02614

FINAL SINGLE POINT ENERGY      -191.653866029636

DIPOLE MOMENT
-------------
                                X             Y             Z
Electronic contribution:     -2.00204      -1.74532       0.20645
Nuclear contribution   :      2.48766       2.65766      -0.37942
                        -----------------------------------------
Total Dipole Moment    :      0.48562       0.91233      -0.17297
                        -----------------------------------------
Magnitude (a.u.)       :      1.04790
Magnitude (Debye)      :      2.66356

Rotational constants in cm-1:     0.866144     0.208058     0.169951
Rotational constants in MHz : 25966.338188  6237.423343  5094.996063

                             ****ORCA TERMINATED NORMALLY****
TOTAL RUN TIME: 0 days 0 hours 2 minutes 53 seconds 148 msec
