                         Program Version 5.0.3 -  RELEASE  -
|  1> ! HF-3c
|  2> !TightSCF
|  3> %scf
|  4>  ConvForced true
|  5>  convergence tight
|  6>  MaxIter 500
|  7> end
|  8>
|  9> %tddft
| 10>  nroots 1
| 11> end
| 12>
| 13> # 	27238
| 14> * xyz 0 1
| 15> 		C   -0.597300  -0.409303  -0.047902
| 16> 		O   -0.577905  -1.645004   0.041278
| 17> 		C    0.564865   0.401013   0.039472
| 18> 		C    1.916814  -0.123937  -0.035943
| 19> 		H   -1.557074   0.096554  -0.314232
| 20> 		H    0.539080   1.469247   0.272593
| 21> 		H    1.955128  -1.254571  -0.141608
| 22> 		H    2.736697   0.618371   0.080330
| 23> *
| 24>
| 25>                          ****END OF INPUT****

CARTESIAN COORDINATES (ANGSTROEM)
---------------------------------
  C     -0.597300   -0.409303   -0.047902
  O     -0.577905   -1.645004    0.041278
  C      0.564865    0.401013    0.039472
  C      1.916814   -0.123937   -0.035943
  H     -1.557074    0.096554   -0.314232
  H      0.539080    1.469247    0.272593
  H      1.955128   -1.254571   -0.141608
  H      2.736697    0.618371    0.080330

 Total Charge           Charge          ....    0
 Multiplicity           Mult            ....    1
 Number of Electrons    NEL             ....   30
 Basis Dimension        Dim             ....   24

ORBITAL ENERGIES
----------------

  NO   OCC          E(Eh)            E(eV)
   0   2.0000     -20.342357      -553.5437
   1   2.0000     -11.285372      -307.0906
   2   2.0000     -11.189839      -304.4910
   3   2.0000     -11.173033      -304.0337
   4   2.0000      -1.373777       -37.3824
   5   2.0000      -1.048770       -28.5385
   6   2.0000      -0.889225       -24.1970
   7   2.0000      -0.733539       -19.9606
   8   2.0000      -0.694188       -18.8898
   9   2.0000      -0.592613       -16.1258
  10   2.0000      -0.580528       -15.7970
  11   2.0000      -0.535214       -14.5639
  12   2.0000      -0.505014       -13.7421
  13   2.0000      -0.411947       -11.2096
  14   2.0000      -0.356636        -9.7045
  15   0.0000       0.109292         2.9740
  16   0.0000       0.293976         7.9995
  17   0.0000       0.550516        14.9803
  18   0.0000       0.588085        16.0026
  19   0.0000       0.635466        17.2919

MULLIKEN ATOMIC CHARGES
-----------------------
   0 C :    0.138054
   1 O :   -0.356720
   2 C :   -0.184680
   3 C :   -0.188554
   4 H :    0.138038
   5 H :    0.136683
   6 H :    0.166770
   7 H :    0.150408
Sum of atomic charges:    0.0000000

LOEWDIN ATOMIC CHARGES
----------------------
   0 C :    0.131962
   1 O :   -0.273665
   2 C :   -0.148400
   3 C :   -0.090442
   4 H :    0.076619
   5 H :    0.087316
   6 H :    0.115319
   7 H :    0.101290

  Mayer bond orders larger than 0.100000
B(  0-C ,  1-O ) :   1.8635 B(  0-C ,  2-C ) :   1.0862 B(  0-C ,  4-H ) :   0.9261
B(  2-C ,  3-C ) :   1.8820 B(  2-C ,  5-H ) :   0.9635 B(  3-C ,  6-H ) :   0.9582
B(  3-C ,  7-H ) :   0.9657

-----------------------------------------------------------------------------
         ABSORPTION SPECTRUM VIA TRANSITION ELECTRIC DIPOLE MOMENTS
-----------------------------------------------------------------------------
State   Energy    Wavelength  fosc         T2        TX        TY        TZ
        (cm-1)      (nm)                 (au**2)    (au)      (au)      (au)
-----------------------------------------------------------------------------
   1   30145.4    331.7   0.000088891   0.00097   0.02770   0.00097   0.01423

Dispersion correction           -0.025337192
FINAL SINGLE POINT ENERGY      -189.326788530920

DIPOLE MOMENT
-------------
                                X             Y             Z
Electronic contribution:     -1.82219      -1.70918       0.03929
Nuclear contribution   :      2.28967       2.66015      -0.09754
                        -----------------------------------------
Total Dipole Moment    :      0.46748       0.95097      -0.05825
                        -----------------------------------------
Magnitude (a.u.)       :      1.06126
Magnitude (Debye)      :      2.69751

Rotational constants in cm-1:     0.725290     0.204424     0.160356
Rotational constants in MHz : 21743.658767  6128.470439  4807.347558

                             ****ORCA TERMINATED NORMALLY****
TOTAL RUN TIME: 0 days 0 hours 0 minutes 12 seconds 603 msec
