                         Program Version 5.0.3 -  RELEASE  -
|  1> ! HF-3c
|  2> !TightSCF
|  3> %scf
|  4>  ConvForced true
|  5>  convergence tight
|  6>  MaxIter 500
|  7> end
|  8>
|  9> %tddft
| 10>  nroots 1
| 11> end
| 12>
| 13> # 	1882
| 14> * xyz 0 1
| 15> 		C   -1.173332  -0.338840  -0.059628
| 16> 		O   -1.270389  -1.548710   0.272126
| 17> 		C    0.013798   0.612029   0.078271
| 18> 		C    1.263718  -0.013429  -0.062846
| 19> 		H   -2.127961   0.168090  -0.328092
| 20> 		H   -0.200595   1.601321   0.384235
| 21> 		H    1.263077  -1.054838  -0.255403
| 22> 		H    2.198429   0.586902   0.006600
| 23> *
| 24>
| 25>                          ****END OF INPUT****

CARTESIAN COORDINATES (ANGSTROEM)
---------------------------------
  C     -1.173332   -0.338840   -0.059628
  O     -1.270389   -1.548710    0.272126
  C      0.013798    0.612029    0.078271
  C      1.263718   -0.013429   -0.062846
  H     -2.127961    0.168090   -0.328092
  H     -0.200595    1.601321    0.384235
  H      1.263077   -1.054838   -0.255403
  H      2.198429    0.586902    0.006600

 Total Charge           Charge          ....    0
 Multiplicity           Mult            ....    1
 Number of Electrons    NEL             ....   30
 Basis Dimension        Dim             ....   24

ORBITAL ENERGIES
----------------

  NO   OCC          E(Eh)            E(eV)
   0   2.0000     -20.349215      -553.7303
   1   2.0000     -11.278832      -306.9126
   2   2.0000     -11.192705      -304.5690
   3   2.0000     -11.188282      -304.4486
   4   2.0000      -1.362094       -37.0645
   5   2.0000      -1.058978       -28.8163
   6   2.0000      -0.881041       -23.9744
   7   2.0000      -0.752178       -20.4678
   8   2.0000      -0.687224       -18.7003
   9   2.0000      -0.600330       -16.3358
  10   2.0000      -0.582987       -15.8639
  11   2.0000      -0.550513       -14.9802
  12   2.0000      -0.502937       -13.6856
  13   2.0000      -0.405696       -11.0395
  14   2.0000      -0.378119       -10.2891
  15   0.0000       0.127828         3.4784
  16   0.0000       0.258602         7.0369
  17   0.0000       0.539433        14.6787
  18   0.0000       0.611046        16.6274
  19   0.0000       0.640207        17.4209

MULLIKEN ATOMIC CHARGES
-----------------------
   0 C :    0.153047
   1 O :   -0.350748
   2 C :   -0.173123
   3 C :   -0.211903
   4 H :    0.129796
   5 H :    0.147832
   6 H :    0.157494
   7 H :    0.147606
Sum of atomic charges:    0.0000000

LOEWDIN ATOMIC CHARGES
----------------------
   0 C :    0.145801
   1 O :   -0.270340
   2 C :   -0.127632
   3 C :   -0.110561
   4 H :    0.069420
   5 H :    0.093399
   6 H :    0.101342
   7 H :    0.098571

  Mayer bond orders larger than 0.100000
B(  0-C ,  1-O ) :   1.9106 B(  0-C ,  2-C ) :   1.0179 B(  0-C ,  4-H ) :   0.9308
B(  2-C ,  3-C ) :   1.9405 B(  2-C ,  5-H ) :   0.9616 B(  3-C ,  6-H ) :   0.9627
B(  3-C ,  7-H ) :   0.9655

-----------------------------------------------------------------------------
         ABSORPTION SPECTRUM VIA TRANSITION ELECTRIC DIPOLE MOMENTS
-----------------------------------------------------------------------------
State   Energy    Wavelength  fosc         T2        TX        TY        TZ
        (cm-1)      (nm)                 (au**2)    (au)      (au)      (au)
-----------------------------------------------------------------------------
   1   30698.9    325.7   0.000095151   0.00102   0.03192  -0.00126  -0.00004

Dispersion correction           -0.025128590
FINAL SINGLE POINT ENERGY      -189.336159975717

DIPOLE MOMENT
-------------
                                X             Y             Z
Electronic contribution:     -1.83859      -1.61352       0.20714
Nuclear contribution   :      2.24912       2.56535      -0.42057
                        -----------------------------------------
Total Dipole Moment    :      0.41053       0.95183      -0.21343
                        -----------------------------------------
Magnitude (a.u.)       :      1.05833
Magnitude (Debye)      :      2.69007

Rotational constants in cm-1:     0.723357     0.193741     0.155741
Rotational constants in MHz : 21685.710850  5808.220086  4669.009952

                             ****ORCA TERMINATED NORMALLY****
TOTAL RUN TIME: 0 days 0 hours 0 minutes 16 seconds 2 msec
