                         Program Version 5.0.3 -  RELEASE  -
|  1> ! HF-3c
|  2> !TightSCF
|  3> %scf
|  4>  ConvForced true
|  5>  convergence tight
|  6>  MaxIter 500
|  7> end
|  8>
|  9> %tddft
| 10>  nroots 1
| 11> end
| 12>
| 13> # 	27122
| 14> * xyz 0 1
| 15> 		C   -0.595693  -0.443756  -0.019896
| 16> 		O   -0.625200  -1.645178   0.006810
| 17> 		C    0.615549   0.387900   0.021021
| 18> 		C    1.927791  -0.083044   0.003249
| 19> 		H   -1.485034   0.053214  -0.023448
| 20> 		H    0.422868   1.412006  -0.008729
| 21> 		H    2.024670  -1.008095  -0.034803
| 22> 		H    2.683281   0.545141  -0.097807
| 23> *
| 24>
| 25>                          ****END OF INPUT****

CARTESIAN COORDINATES (ANGSTROEM)
---------------------------------
  C     -0.595693   -0.443756   -0.019896
  O     -0.625200   -1.645178    0.006810
  C      0.615549    0.387900    0.021021
  C      1.927791   -0.083044    0.003249
  H     -1.485034    0.053214   -0.023448
  H      0.422868    1.412006   -0.008729
  H      2.024670   -1.008095   -0.034803
  H      2.683281    0.545141   -0.097807

 Total Charge           Charge          ....    0
 Multiplicity           Mult            ....    1
 Number of Electrons    NEL             ....   30
 Basis Dimension        Dim             ....   24

ORBITAL ENERGIES
----------------

  NO   OCC          E(Eh)            E(eV)
   0   2.0000     -20.379162      -554.5452
   1   2.0000     -11.307168      -307.6837
   2   2.0000     -11.205865      -304.9271
   3   2.0000     -11.200987      -304.7943
   4   2.0000      -1.416692       -38.5501
   5   2.0000      -1.085152       -29.5285
   6   2.0000      -0.931629       -25.3509
   7   2.0000      -0.787177       -21.4202
   8   2.0000      -0.728069       -19.8118
   9   2.0000      -0.635200       -17.2847
  10   2.0000      -0.625770       -17.0281
  11   2.0000      -0.563573       -15.3356
  12   2.0000      -0.551636       -15.0108
  13   2.0000      -0.428507       -11.6603
  14   2.0000      -0.391556       -10.6548
  15   0.0000       0.105833         2.8799
  16   0.0000       0.293298         7.9810
  17   0.0000       0.597941        16.2708
  18   0.0000       0.675964        18.3939
  19   0.0000       0.750360        20.4183

MULLIKEN ATOMIC CHARGES
-----------------------
   0 C :    0.145838
   1 O :   -0.337539
   2 C :   -0.144622
   3 C :   -0.256037
   4 H :    0.140799
   5 H :    0.141469
   6 H :    0.156113
   7 H :    0.153980
Sum of atomic charges:    0.0000000

LOEWDIN ATOMIC CHARGES
----------------------
   0 C :    0.134273
   1 O :   -0.240421
   2 C :   -0.098377
   3 C :   -0.134936
   4 H :    0.068781
   5 H :    0.085689
   6 H :    0.090097
   7 H :    0.094893

  Mayer bond orders larger than 0.100000
B(  0-C ,  1-O ) :   1.8997 B(  0-C ,  2-C ) :   1.0375 B(  0-C ,  4-H ) :   0.9342
B(  2-C ,  3-C ) :   1.9313 B(  2-C ,  5-H ) :   0.9654 B(  3-C ,  6-H ) :   0.9676
B(  3-C ,  7-H ) :   0.9684

-----------------------------------------------------------------------------
         ABSORPTION SPECTRUM VIA TRANSITION ELECTRIC DIPOLE MOMENTS
-----------------------------------------------------------------------------
State   Energy    Wavelength  fosc         T2        TX        TY        TZ
        (cm-1)      (nm)                 (au**2)    (au)      (au)      (au)
-----------------------------------------------------------------------------
   1   31128.5    321.2   0.000009693   0.00010   0.00984   0.00232   0.00049

Dispersion correction           -0.025822357
FINAL SINGLE POINT ENERGY      -189.302408967316

DIPOLE MOMENT
-------------
                                X             Y             Z
Electronic contribution:     -2.02629      -1.78721       0.10108
Nuclear contribution   :      2.26434       2.72897      -0.15419
                        -----------------------------------------
Total Dipole Moment    :      0.23805       0.94176      -0.05310
                        -----------------------------------------
Magnitude (a.u.)       :      0.97283
Magnitude (Debye)      :      2.47274

Rotational constants in cm-1:     0.817116     0.196870     0.158714
Rotational constants in MHz : 24496.519185  5902.010584  4758.116486

                             ****ORCA TERMINATED NORMALLY****
TOTAL RUN TIME: 0 days 0 hours 0 minutes 10 seconds 668 msec
