                         Program Version 5.0.3 -  RELEASE  -
|  1> ! B3LYP cc-pVDZ
|  2> !TightSCF
|  3> %scf
|  4>  ConvForced true
|  5>  convergence tight
|  6>  MaxIter 500
|  7> end
|  8>
|  9> %tddft
| 10>  nroots 1
| 11> end
| 12>
| 13> # 	23029
| 14> * xyz 0 1
| 15> 		C   -0.610045  -0.444590   0.037141
| 16> 		O   -0.571808  -1.610055  -0.015736
| 17> 		C    0.641447   0.363524  -0.035257
| 18> 		C    1.846292  -0.118594  -0.008884
| 19> 		H   -1.569784   0.287420   0.038484
| 20> 		H    0.584635   1.472721   0.035719
| 21> 		H    2.010196  -1.090735   0.156220
| 22> 		H    2.630986   0.542906   0.106787
| 23> *
| 24>
| 25>                          ****END OF INPUT****

CARTESIAN COORDINATES (ANGSTROEM)
---------------------------------
  C     -0.610045   -0.444590    0.037141
  O     -0.571808   -1.610055   -0.015736
  C      0.641447    0.363524   -0.035257
  C      1.846292   -0.118594   -0.008884
  H     -1.569784    0.287420    0.038484
  H      0.584635    1.472721    0.035719
  H      2.010196   -1.090735    0.156220
  H      2.630986    0.542906    0.106787

 Total Charge           Charge          ....    0
 Multiplicity           Mult            ....    1
 Number of Electrons    NEL             ....   30
 Basis Dimension        Dim             ....   76

ORBITAL ENERGIES
----------------

  NO   OCC          E(Eh)            E(eV)
   0   2.0000     -19.147815      -521.0385
   1   2.0000     -10.283363      -279.8245
   2   2.0000     -10.195129      -277.4236
   3   2.0000     -10.188790      -277.2511
   4   2.0000      -1.078759       -29.3545
   5   2.0000      -0.802230       -21.8298
   6   2.0000      -0.655237       -17.8299
   7   2.0000      -0.540498       -14.7077
   8   2.0000      -0.513026       -13.9601
   9   2.0000      -0.458593       -12.4790
  10   2.0000      -0.429237       -11.6801
  11   2.0000      -0.417790       -11.3686
  12   2.0000      -0.382255       -10.4017
  13   2.0000      -0.293258        -7.9799
  14   2.0000      -0.259354        -7.0574
  15   0.0000      -0.062747        -1.7074
  16   0.0000       0.063657         1.7322
  17   0.0000       0.070079         1.9069
  18   0.0000       0.094281         2.5655
  19   0.0000       0.127490         3.4692

MULLIKEN ATOMIC CHARGES
-----------------------
   0 C :    0.155460
   1 O :   -0.139484
   2 C :   -0.153509
   3 C :    0.176297
   4 H :   -0.017886
   5 H :   -0.014184
   6 H :   -0.013771
   7 H :    0.007076
Sum of atomic charges:    0.0000000

LOEWDIN ATOMIC CHARGES
----------------------
   0 C :   -0.064503
   1 O :    0.049594
   2 C :   -0.080127
   3 C :    0.038922
   4 H :   -0.005658
   5 H :    0.030324
   6 H :    0.006933
   7 H :    0.024515

  Mayer bond orders larger than 0.100000
B(  0-C ,  1-O ) :   2.2563 B(  0-C ,  2-C ) :   1.0193 B(  0-C ,  4-H ) :   0.8851
B(  2-C ,  3-C ) :   2.0176 B(  2-C ,  5-H ) :   0.9325 B(  3-C ,  6-H ) :   0.9358
B(  3-C ,  7-H ) :   0.9315

-----------------------------------------------------------------------------
         ABSORPTION SPECTRUM VIA TRANSITION ELECTRIC DIPOLE MOMENTS
-----------------------------------------------------------------------------
State   Energy    Wavelength  fosc         T2        TX        TY        TZ
        (cm-1)      (nm)                 (au**2)    (au)      (au)      (au)
-----------------------------------------------------------------------------
   1   30341.7    329.6   0.000254661   0.00276   0.03725   0.00490   0.03676

FINAL SINGLE POINT ENERGY      -191.646765964131

DIPOLE MOMENT
-------------
                                X             Y             Z
Electronic contribution:     -1.90056      -2.16014      -0.20973
Nuclear contribution   :      2.27311       2.92361       0.31586
                        -----------------------------------------
Total Dipole Moment    :      0.37255       0.76347       0.10613
                        -----------------------------------------
Magnitude (a.u.)       :      0.85612
Magnitude (Debye)      :      2.17609

Rotational constants in cm-1:     0.805847     0.210942     0.167430
Rotational constants in MHz : 24158.688464  6323.867938  5019.415352

                             ****ORCA TERMINATED NORMALLY****
TOTAL RUN TIME: 0 days 0 hours 3 minutes 21 seconds 11 msec
