                         Program Version 5.0.3 -  RELEASE  -
|  1> ! B3LYP cc-pVDZ
|  2> !TightSCF
|  3> %scf
|  4>  ConvForced true
|  5>  convergence tight
|  6>  MaxIter 500
|  7> end
|  8>
|  9> %tddft
| 10>  nroots 1
| 11> end
| 12>
| 13> # 	32157
| 14> * xyz 0 1
| 15> 		C   -0.576211  -0.464962  -0.005679
| 16> 		O   -0.595700  -1.669880   0.008263
| 17> 		C    0.645835   0.461211   0.042253
| 18> 		C    1.845785  -0.098256  -0.025235
| 19> 		H   -1.455794   0.292358  -0.222734
| 20> 		H    0.464901   1.457317  -0.020180
| 21> 		H    1.802624  -1.333332  -0.003351
| 22> 		H    2.798325   0.548397  -0.018336
| 23> *
| 24>
| 25>                          ****END OF INPUT****

CARTESIAN COORDINATES (ANGSTROEM)
---------------------------------
  C     -0.576211   -0.464962   -0.005679
  O     -0.595700   -1.669880    0.008263
  C      0.645835    0.461211    0.042253
  C      1.845785   -0.098256   -0.025235
  H     -1.455794    0.292358   -0.222734
  H      0.464901    1.457317   -0.020180
  H      1.802624   -1.333332   -0.003351
  H      2.798325    0.548397   -0.018336

 Total Charge           Charge          ....    0
 Multiplicity           Mult            ....    1
 Number of Electrons    NEL             ....   30
 Basis Dimension        Dim             ....   76

ORBITAL ENERGIES
----------------

  NO   OCC          E(Eh)            E(eV)
   0   2.0000     -19.152048      -521.1537
   1   2.0000     -10.287111      -279.9265
   2   2.0000     -10.225036      -278.2374
   3   2.0000     -10.196498      -277.4608
   4   2.0000      -1.056206       -28.7408
   5   2.0000      -0.794190       -21.6110
   6   2.0000      -0.644546       -17.5390
   7   2.0000      -0.535777       -14.5792
   8   2.0000      -0.500204       -13.6112
   9   2.0000      -0.448746       -12.2110
  10   2.0000      -0.419098       -11.4042
  11   2.0000      -0.402199       -10.9444
  12   2.0000      -0.373389       -10.1604
  13   2.0000      -0.291953        -7.9445
  14   2.0000      -0.259468        -7.0605
  15   0.0000      -0.066122        -1.7993
  16   0.0000       0.052885         1.4391
  17   0.0000       0.065063         1.7705
  18   0.0000       0.066059         1.7976
  19   0.0000       0.122865         3.3433

MULLIKEN ATOMIC CHARGES
-----------------------
   0 C :    0.165110
   1 O :   -0.177304
   2 C :   -0.053995
   3 C :   -0.004956
   4 H :   -0.012310
   5 H :   -0.041469
   6 H :    0.074745
   7 H :    0.050179
Sum of atomic charges:    0.0000000

LOEWDIN ATOMIC CHARGES
----------------------
   0 C :   -0.029313
   1 O :    0.008910
   2 C :   -0.085674
   3 C :   -0.001497
   4 H :   -0.004476
   5 H :    0.005292
   6 H :    0.063277
   7 H :    0.043482

  Mayer bond orders larger than 0.100000
B(  0-C ,  1-O ) :   2.1991 B(  0-C ,  2-C ) :   1.0293 B(  0-C ,  4-H ) :   0.8946
B(  2-C ,  3-C ) :   1.9615 B(  2-C ,  5-H ) :   0.9547 B(  3-C ,  6-H ) :   0.9092
B(  3-C ,  7-H ) :   0.9374

-----------------------------------------------------------------------------
         ABSORPTION SPECTRUM VIA TRANSITION ELECTRIC DIPOLE MOMENTS
-----------------------------------------------------------------------------
State   Energy    Wavelength  fosc         T2        TX        TY        TZ
        (cm-1)      (nm)                 (au**2)    (au)      (au)      (au)
-----------------------------------------------------------------------------
   1   29624.6    337.6   0.000273555   0.00304  -0.02596  -0.01414   0.04654

FINAL SINGLE POINT ENERGY      -191.647884092804

DIPOLE MOMENT
-------------
                                X             Y             Z
Electronic contribution:     -1.83751      -1.81266       0.21729
Nuclear contribution   :      2.22798       2.69272      -0.24823
                        -----------------------------------------
Total Dipole Moment    :      0.39047       0.88006      -0.03095
                        -----------------------------------------
Magnitude (a.u.)       :      0.96329
Magnitude (Debye)      :      2.44850

Rotational constants in cm-1:     0.755806     0.203148     0.160360
Rotational constants in MHz : 22658.498113  6090.224155  4807.477619

                             ****ORCA TERMINATED NORMALLY****
TOTAL RUN TIME: 0 days 0 hours 3 minutes 10 seconds 180 msec
