                         Program Version 5.0.3 -  RELEASE  -
|  1> ! HF-3c
|  2> !TightSCF
|  3> %scf
|  4>  ConvForced true
|  5>  convergence tight
|  6>  MaxIter 500
|  7> end
|  8>
|  9> %tddft
| 10>  nroots 1
| 11> end
| 12>
| 13> # 	9273
| 14> * xyz 0 1
| 15> 		C   -1.185972  -0.323000   0.060311
| 16> 		O   -1.806121  -0.919422   0.884111
| 17> 		C    0.037585   0.517053   0.296275
| 18> 		C    1.162085   0.084396  -0.264522
| 19> 		H   -1.544388  -0.433244  -1.067657
| 20> 		H   -0.161666   1.440194   0.803699
| 21> 		H    1.320228  -0.955958  -0.679556
| 22> 		H    2.200486   0.620328  -0.115674
| 23> *
| 24>
| 25>                          ****END OF INPUT****

CARTESIAN COORDINATES (ANGSTROEM)
---------------------------------
  C     -1.185972   -0.323000    0.060311
  O     -1.806121   -0.919422    0.884111
  C      0.037585    0.517053    0.296275
  C      1.162085    0.084396   -0.264522
  H     -1.544388   -0.433244   -1.067657
  H     -0.161666    1.440194    0.803699
  H      1.320228   -0.955958   -0.679556
  H      2.200486    0.620328   -0.115674

 Total Charge           Charge          ....    0
 Multiplicity           Mult            ....    1
 Number of Electrons    NEL             ....   30
 Basis Dimension        Dim             ....   24

ORBITAL ENERGIES
----------------

  NO   OCC          E(Eh)            E(eV)
   0   2.0000     -20.371972      -554.3496
   1   2.0000     -11.295386      -307.3631
   2   2.0000     -11.192524      -304.5641
   3   2.0000     -11.183478      -304.3179
   4   2.0000      -1.414526       -38.4912
   5   2.0000      -1.076321       -29.2882
   6   2.0000      -0.859150       -23.3787
   7   2.0000      -0.757165       -20.6035
   8   2.0000      -0.668576       -18.1929
   9   2.0000      -0.636973       -17.3329
  10   2.0000      -0.599613       -16.3163
  11   2.0000      -0.528861       -14.3910
  12   2.0000      -0.514797       -14.0083
  13   2.0000      -0.406955       -11.0738
  14   2.0000      -0.391673       -10.6580
  15   0.0000       0.178453         4.8560
  16   0.0000       0.240587         6.5467
  17   0.0000       0.504913        13.7394
  18   0.0000       0.574225        15.6255
  19   0.0000       0.606151        16.4942

MULLIKEN ATOMIC CHARGES
-----------------------
   0 C :    0.186270
   1 O :   -0.356101
   2 C :   -0.180141
   3 C :   -0.219610
   4 H :    0.130979
   5 H :    0.157213
   6 H :    0.141199
   7 H :    0.140192
Sum of atomic charges:   -0.0000000

LOEWDIN ATOMIC CHARGES
----------------------
   0 C :    0.153763
   1 O :   -0.253197
   2 C :   -0.131256
   3 C :   -0.136762
   4 H :    0.074012
   5 H :    0.102398
   6 H :    0.094434
   7 H :    0.096608

  Mayer bond orders larger than 0.100000
B(  0-C ,  1-O ) :   1.9482 B(  0-C ,  2-C ) :   0.9801 B(  0-C ,  4-H ) :   0.9086
B(  2-C ,  3-C ) :   1.9921 B(  2-C ,  5-H ) :   0.9507 B(  3-C ,  6-H ) :   0.9625
B(  3-C ,  7-H ) :   0.9598

-----------------------------------------------------------------------------
         ABSORPTION SPECTRUM VIA TRANSITION ELECTRIC DIPOLE MOMENTS
-----------------------------------------------------------------------------
State   Energy    Wavelength  fosc         T2        TX        TY        TZ
        (cm-1)      (nm)                 (au**2)    (au)      (au)      (au)
-----------------------------------------------------------------------------
   1   35662.1    280.4   0.000093462   0.00086   0.02591   0.00881   0.01067

Dispersion correction           -0.024899727
FINAL SINGLE POINT ENERGY      -189.308595309344

DIPOLE MOMENT
-------------
                                X             Y             Z
Electronic contribution:     -2.77579      -0.87741       1.27340
Nuclear contribution   :      3.48360       1.33450      -1.93373
                        -----------------------------------------
Total Dipole Moment    :      0.70781       0.45709      -0.66033
                        -----------------------------------------
Magnitude (a.u.)       :      1.07049
Magnitude (Debye)      :      2.72097

Rotational constants in cm-1:     1.093309     0.161497     0.155114
Rotational constants in MHz : 32776.589138  4841.567045  4650.204699

                             ****ORCA TERMINATED NORMALLY****
TOTAL RUN TIME: 0 days 0 hours 0 minutes 11 seconds 576 msec
