                         Program Version 5.0.3 -  RELEASE  -
|  1> ! B3LYP cc-pVDZ
|  2> !TightSCF
|  3> %scf
|  4>  ConvForced true
|  5>  convergence tight
|  6>  MaxIter 500
|  7> end
|  8>
|  9> %tddft
| 10>  nroots 1
| 11> end
| 12>
| 13> # 	10511
| 14> * xyz 0 1
| 15> 		C   -1.161748  -0.343229   0.032426
| 16> 		O   -1.745184  -1.115337  -0.757583
| 17> 		C   -0.002325   0.510266  -0.268771
| 18> 		C    1.221508   0.074128   0.268821
| 19> 		H   -1.504012  -0.073345   0.961869
| 20> 		H   -0.250842   1.250962  -0.993150
| 21> 		H    1.290719  -0.902590   0.733911
| 22> 		H    2.137333   0.678508   0.003555
| 23> *
| 24>
| 25>                          ****END OF INPUT****

CARTESIAN COORDINATES (ANGSTROEM)
---------------------------------
  C     -1.161748   -0.343229    0.032426
  O     -1.745184   -1.115337   -0.757583
  C     -0.002325    0.510266   -0.268771
  C      1.221508    0.074128    0.268821
  H     -1.504012   -0.073345    0.961869
  H     -0.250842    1.250962   -0.993150
  H      1.290719   -0.902590    0.733911
  H      2.137333    0.678508    0.003555

 Total Charge           Charge          ....    0
 Multiplicity           Mult            ....    1
 Number of Electrons    NEL             ....   30
 Basis Dimension        Dim             ....   76

ORBITAL ENERGIES
----------------

  NO   OCC          E(Eh)            E(eV)
   0   2.0000     -19.144289      -520.9426
   1   2.0000     -10.273317      -279.5512
   2   2.0000     -10.221380      -278.1379
   3   2.0000     -10.213456      -277.9223
   4   2.0000      -1.027661       -27.9641
   5   2.0000      -0.793678       -21.5971
   6   2.0000      -0.660161       -17.9639
   7   2.0000      -0.573849       -15.6152
   8   2.0000      -0.483771       -13.1641
   9   2.0000      -0.456444       -12.4205
  10   2.0000      -0.438040       -11.9197
  11   2.0000      -0.396742       -10.7959
  12   2.0000      -0.363412        -9.8889
  13   2.0000      -0.277149        -7.5416
  14   2.0000      -0.254569        -6.9272
  15   0.0000      -0.055606        -1.5131
  16   0.0000      -0.016006        -0.4355
  17   0.0000       0.083189         2.2637
  18   0.0000       0.091076         2.4783
  19   0.0000       0.113883         3.0989

MULLIKEN ATOMIC CHARGES
-----------------------
   0 C :    0.204906
   1 O :   -0.219191
   2 C :   -0.077809
   3 C :   -0.004213
   4 H :   -0.012878
   5 H :    0.020690
   6 H :    0.039300
   7 H :    0.049195
Sum of atomic charges:   -0.0000000

LOEWDIN ATOMIC CHARGES
----------------------
   0 C :    0.003463
   1 O :   -0.027372
   2 C :   -0.037793
   3 C :   -0.025385
   4 H :   -0.013540
   5 H :    0.032812
   6 H :    0.029294
   7 H :    0.038521

  Mayer bond orders larger than 0.100000
B(  0-C ,  1-O ) :   2.1884 B(  0-C ,  2-C ) :   1.0193 B(  0-C ,  4-H ) :   0.9269
B(  2-C ,  3-C ) :   1.9814 B(  2-C ,  5-H ) :   0.9472 B(  3-C ,  6-H ) :   0.9479
B(  3-C ,  7-H ) :   0.9521

-----------------------------------------------------------------------------
         ABSORPTION SPECTRUM VIA TRANSITION ELECTRIC DIPOLE MOMENTS
-----------------------------------------------------------------------------
State   Energy    Wavelength  fosc         T2        TX        TY        TZ
        (cm-1)      (nm)                 (au**2)    (au)      (au)      (au)
-----------------------------------------------------------------------------
   1   29537.5    338.6   0.000244733   0.00273  -0.05006  -0.01411   0.00471

FINAL SINGLE POINT ENERGY      -191.638375760181

DIPOLE MOMENT
-------------
                                X             Y             Z
Electronic contribution:     -2.66515      -1.18662      -0.93077
Nuclear contribution   :      3.26055       1.81798       1.39178
                        -----------------------------------------
Total Dipole Moment    :      0.59540       0.63136       0.46100
                        -----------------------------------------
Magnitude (a.u.)       :      0.98267
Magnitude (Debye)      :      2.49775

Rotational constants in cm-1:     1.012195     0.161581     0.154712
Rotational constants in MHz : 30344.849142  4844.075724  4638.155737

                             ****ORCA TERMINATED NORMALLY****
TOTAL RUN TIME: 0 days 0 hours 3 minutes 25 seconds 290 msec
