                         Program Version 5.0.3 -  RELEASE  -
|  1> ! HF-3c
|  2> !TightSCF
|  3> %scf
|  4>  ConvForced true
|  5>  convergence tight
|  6>  MaxIter 500
|  7> end
|  8>
|  9> %tddft
| 10>  nroots 1
| 11> end
| 12>
| 13> # 	794
| 14> * xyz 0 1
| 15> 		C   -1.148796  -0.438110   0.017612
| 16> 		O   -2.108484  -0.662334   0.712464
| 17> 		C    0.017049   0.354912   0.372893
| 18> 		C    1.199814   0.065710  -0.239895
| 19> 		H   -1.229426  -0.541819  -1.053517
| 20> 		H   -0.174572   1.055510   1.170327
| 21> 		H    1.346007  -0.606428  -0.950092
| 22> 		H    2.171157   0.772724   0.013293
| 23> *
| 24>
| 25>                          ****END OF INPUT****

CARTESIAN COORDINATES (ANGSTROEM)
---------------------------------
  C     -1.148796   -0.438110    0.017612
  O     -2.108484   -0.662334    0.712464
  C      0.017049    0.354912    0.372893
  C      1.199814    0.065710   -0.239895
  H     -1.229426   -0.541819   -1.053517
  H     -0.174572    1.055510    1.170327
  H      1.346007   -0.606428   -0.950092
  H      2.171157    0.772724    0.013293

 Total Charge           Charge          ....    0
 Multiplicity           Mult            ....    1
 Number of Electrons    NEL             ....   30
 Basis Dimension        Dim             ....   24

ORBITAL ENERGIES
----------------

  NO   OCC          E(Eh)            E(eV)
   0   2.0000     -20.367785      -554.2356
   1   2.0000     -11.293844      -307.3211
   2   2.0000     -11.195708      -304.6507
   3   2.0000     -11.193358      -304.5868
   4   2.0000      -1.404960       -38.2309
   5   2.0000      -1.084390       -29.5078
   6   2.0000      -0.886887       -24.1334
   7   2.0000      -0.787936       -21.4408
   8   2.0000      -0.676748       -18.4153
   9   2.0000      -0.636775       -17.3275
  10   2.0000      -0.597920       -16.2702
  11   2.0000      -0.543355       -14.7854
  12   2.0000      -0.522363       -14.2142
  13   2.0000      -0.410612       -11.1733
  14   2.0000      -0.391040       -10.6407
  15   0.0000       0.131335         3.5738
  16   0.0000       0.277454         7.5499
  17   0.0000       0.499266        13.5857
  18   0.0000       0.645059        17.5529
  19   0.0000       0.666802        18.1446

MULLIKEN ATOMIC CHARGES
-----------------------
   0 C :    0.158836
   1 O :   -0.348545
   2 C :   -0.171523
   3 C :   -0.220615
   4 H :    0.133498
   5 H :    0.159868
   6 H :    0.138776
   7 H :    0.149704
Sum of atomic charges:    0.0000000

LOEWDIN ATOMIC CHARGES
----------------------
   0 C :    0.141636
   1 O :   -0.252381
   2 C :   -0.124607
   3 C :   -0.126656
   4 H :    0.067964
   5 H :    0.104023
   6 H :    0.081196
   7 H :    0.108824

  Mayer bond orders larger than 0.100000
B(  0-C ,  1-O ) :   1.9086 B(  0-C ,  2-C ) :   1.0260 B(  0-C ,  4-H ) :   0.9251
B(  2-C ,  3-C ) :   1.9499 B(  2-C ,  5-H ) :   0.9530 B(  3-C ,  6-H ) :   0.9700
B(  3-C ,  7-H ) :   0.9606

-----------------------------------------------------------------------------
         ABSORPTION SPECTRUM VIA TRANSITION ELECTRIC DIPOLE MOMENTS
-----------------------------------------------------------------------------
State   Energy    Wavelength  fosc         T2        TX        TY        TZ
        (cm-1)      (nm)                 (au**2)    (au)      (au)      (au)
-----------------------------------------------------------------------------
   1   32152.9    311.0   0.000093741   0.00096  -0.01256  -0.00792  -0.02719

Dispersion correction           -0.025544685
FINAL SINGLE POINT ENERGY      -189.311695484976

DIPOLE MOMENT
-------------
                                X             Y             Z
Electronic contribution:     -3.00441      -0.96398       1.06187
Nuclear contribution   :      4.02016       1.30830      -1.59077
                        -----------------------------------------
Total Dipole Moment    :      1.01574       0.34432      -0.52890
                        -----------------------------------------
Magnitude (a.u.)       :      1.19583
Magnitude (Debye)      :      3.03957

Rotational constants in cm-1:     1.510218     0.155514     0.144496
Rotational constants in MHz : 45275.194703  4662.189620  4331.887233

                             ****ORCA TERMINATED NORMALLY****
TOTAL RUN TIME: 0 days 0 hours 0 minutes 11 seconds 361 msec
