                         Program Version 5.0.3 -  RELEASE  -
|  1> ! HF-3c
|  2> !TightSCF
|  3> %scf
|  4>  ConvForced true
|  5>  convergence tight
|  6>  MaxIter 500
|  7> end
|  8>
|  9> %tddft
| 10>  nroots 1
| 11> end
| 12>
| 13> # 	13320
| 14> * xyz 0 1
| 15> 		C   -1.203742  -0.257156  -0.012972
| 16> 		O   -1.194706  -1.537906   0.016351
| 17> 		C   -0.031611   0.608095  -0.017010
| 18> 		C    1.166737  -0.008744  -0.037887
| 19> 		H   -2.162584   0.187462  -0.024255
| 20> 		H   -0.206917   1.616775   0.117624
| 21> 		H    1.315798  -1.196013  -0.118537
| 22> 		H    2.289955   0.557225   0.102361
| 23> *
| 24>
| 25>                          ****END OF INPUT****

CARTESIAN COORDINATES (ANGSTROEM)
---------------------------------
  C     -1.203742   -0.257156   -0.012972
  O     -1.194706   -1.537906    0.016351
  C     -0.031611    0.608095   -0.017010
  C      1.166737   -0.008744   -0.037887
  H     -2.162584    0.187462   -0.024255
  H     -0.206917    1.616775    0.117624
  H      1.315798   -1.196013   -0.118537
  H      2.289955    0.557225    0.102361

 Total Charge           Charge          ....    0
 Multiplicity           Mult            ....    1
 Number of Electrons    NEL             ....   30
 Basis Dimension        Dim             ....   24

ORBITAL ENERGIES
----------------

  NO   OCC          E(Eh)            E(eV)
   0   2.0000     -20.328287      -553.1608
   1   2.0000     -11.272296      -306.7348
   2   2.0000     -11.196556      -304.6738
   3   2.0000     -11.185941      -304.3849
   4   2.0000      -1.342220       -36.5237
   5   2.0000      -1.071665       -29.1615
   6   2.0000      -0.880628       -23.9631
   7   2.0000      -0.741474       -20.1765
   8   2.0000      -0.689347       -18.7581
   9   2.0000      -0.602101       -16.3840
  10   2.0000      -0.556988       -15.1564
  11   2.0000      -0.511289       -13.9129
  12   2.0000      -0.499203       -13.5840
  13   2.0000      -0.410670       -11.1749
  14   2.0000      -0.376323       -10.2403
  15   0.0000       0.124038         3.3752
  16   0.0000       0.301611         8.2072
  17   0.0000       0.465972        12.6797
  18   0.0000       0.524276        14.2663
  19   0.0000       0.643852        17.5201

MULLIKEN ATOMIC CHARGES
-----------------------
   0 C :    0.137168
   1 O :   -0.354082
   2 C :   -0.220829
   3 C :   -0.153373
   4 H :    0.136474
   5 H :    0.146642
   6 H :    0.163924
   7 H :    0.144076
Sum of atomic charges:    0.0000000

LOEWDIN ATOMIC CHARGES
----------------------
   0 C :    0.141356
   1 O :   -0.283224
   2 C :   -0.170677
   3 C :   -0.071534
   4 H :    0.071482
   5 H :    0.090556
   6 H :    0.116621
   7 H :    0.105419

  Mayer bond orders larger than 0.100000
B(  0-C ,  1-O ) :   1.8755 B(  0-C ,  2-C ) :   1.0591 B(  0-C ,  4-H ) :   0.9411
B(  2-C ,  3-C ) :   1.9081 B(  2-C ,  5-H ) :   0.9591 B(  3-C ,  6-H ) :   0.9525
B(  3-C ,  7-H ) :   0.9583

-----------------------------------------------------------------------------
         ABSORPTION SPECTRUM VIA TRANSITION ELECTRIC DIPOLE MOMENTS
-----------------------------------------------------------------------------
State   Energy    Wavelength  fosc         T2        TX        TY        TZ
        (cm-1)      (nm)                 (au**2)    (au)      (au)      (au)
-----------------------------------------------------------------------------
   1   29197.1    342.5   0.000043174   0.00049  -0.01592  -0.00099  -0.01524

Dispersion correction           -0.025484247
FINAL SINGLE POINT ENERGY      -189.319472690044

DIPOLE MOMENT
-------------
                                X             Y             Z
Electronic contribution:     -1.82448      -1.48059      -0.08596
Nuclear contribution   :      2.39826       2.36896       0.10463
                        -----------------------------------------
Total Dipole Moment    :      0.57378       0.88837       0.01867
                        -----------------------------------------
Magnitude (a.u.)       :      1.05772
Magnitude (Debye)      :      2.68851

Rotational constants in cm-1:     0.698655     0.213415     0.163650
Rotational constants in MHz : 20945.153026  6398.012156  4906.112994

                             ****ORCA TERMINATED NORMALLY****
TOTAL RUN TIME: 0 days 0 hours 0 minutes 12 seconds 232 msec
