                         Program Version 5.0.3 -  RELEASE  -
|  1> ! B3LYP cc-pVDZ
|  2> !TightSCF
|  3> %scf
|  4>  ConvForced true
|  5>  convergence tight
|  6>  MaxIter 500
|  7> end
|  8>
|  9> %tddft
| 10>  nroots 1
| 11> end
| 12>
| 13> # 	29106
| 14> * xyz 0 1
| 15> 		C   -0.626441  -0.487308  -0.026135
| 16> 		O   -0.668830  -1.673602   0.013232
| 17> 		C    0.688022   0.367849   0.008057
| 18> 		C    1.896390  -0.015991  -0.013940
| 19> 		H   -1.652114   0.093282   0.020813
| 20> 		H    0.772260   1.420023   0.087513
| 21> 		H    2.341037  -0.918961   0.013830
| 22> 		H    2.837580   0.831320   0.055906
| 23> *
| 24>
| 25>                          ****END OF INPUT****

CARTESIAN COORDINATES (ANGSTROEM)
---------------------------------
  C     -0.626441   -0.487308   -0.026135
  O     -0.668830   -1.673602    0.013232
  C      0.688022    0.367849    0.008057
  C      1.896390   -0.015991   -0.013940
  H     -1.652114    0.093282    0.020813
  H      0.772260    1.420023    0.087513
  H      2.341037   -0.918961    0.013830
  H      2.837580    0.831320    0.055906

 Total Charge           Charge          ....    0
 Multiplicity           Mult            ....    1
 Number of Electrons    NEL             ....   30
 Basis Dimension        Dim             ....   76

ORBITAL ENERGIES
----------------

  NO   OCC          E(Eh)            E(eV)
   0   2.0000     -19.150239      -521.1045
   1   2.0000     -10.294135      -280.1176
   2   2.0000     -10.208554      -277.7889
   3   2.0000     -10.199352      -277.5385
   4   2.0000      -1.067748       -29.0549
   5   2.0000      -0.805413       -21.9164
   6   2.0000      -0.636954       -17.3324
   7   2.0000      -0.560269       -15.2457
   8   2.0000      -0.503333       -13.6964
   9   2.0000      -0.454589       -12.3700
  10   2.0000      -0.426054       -11.5935
  11   2.0000      -0.409395       -11.1402
  12   2.0000      -0.355634        -9.6773
  13   2.0000      -0.302157        -8.2221
  14   2.0000      -0.260100        -7.0777
  15   0.0000      -0.059645        -1.6230
  16   0.0000       0.040576         1.1041
  17   0.0000       0.063095         1.7169
  18   0.0000       0.089749         2.4422
  19   0.0000       0.116729         3.1764

MULLIKEN ATOMIC CHARGES
-----------------------
   0 C :    0.159638
   1 O :   -0.149651
   2 C :   -0.029681
   3 C :    0.016967
   4 H :   -0.003779
   5 H :   -0.015091
   6 H :   -0.012178
   7 H :    0.033775
Sum of atomic charges:   -0.0000000

LOEWDIN ATOMIC CHARGES
----------------------
   0 C :   -0.032733
   1 O :    0.027560
   2 C :   -0.091980
   3 C :    0.011942
   4 H :   -0.000212
   5 H :    0.035080
   6 H :   -0.000273
   7 H :    0.050616

  Mayer bond orders larger than 0.100000
B(  0-C ,  1-O ) :   2.2533 B(  0-C ,  2-C ) :   0.9327 B(  0-C ,  4-H ) :   0.8996
B(  2-C ,  3-C ) :   2.0052 B(  2-C ,  5-H ) :   0.9126 B(  3-C ,  6-H ) :   0.9654
B(  3-C ,  7-H ) :   0.9394

-----------------------------------------------------------------------------
         ABSORPTION SPECTRUM VIA TRANSITION ELECTRIC DIPOLE MOMENTS
-----------------------------------------------------------------------------
State   Energy    Wavelength  fosc         T2        TX        TY        TZ
        (cm-1)      (nm)                 (au**2)    (au)      (au)      (au)
-----------------------------------------------------------------------------
   1   30679.0    326.0   0.000156118   0.00168  -0.01537   0.00600   0.03746

FINAL SINGLE POINT ENERGY      -191.621398159663

DIPOLE MOMENT
-------------
                                X             Y             Z
Electronic contribution:     -2.52931      -2.34491      -0.15032
Nuclear contribution   :      2.87065       3.12487       0.16680
                        -----------------------------------------
Total Dipole Moment    :      0.34134       0.77996       0.01649
                        -----------------------------------------
Magnitude (a.u.)       :      0.85154
Magnitude (Debye)      :      2.16445

Rotational constants in cm-1:     0.894979     0.180054     0.149965
Rotational constants in MHz : 26830.799444  5397.876069  4495.850277

                             ****ORCA TERMINATED NORMALLY****
TOTAL RUN TIME: 0 days 0 hours 3 minutes 22 seconds 707 msec
