                         Program Version 5.0.3 -  RELEASE  -
|  1> ! B3LYP cc-pVDZ
|  2> !TightSCF
|  3> %scf
|  4>  ConvForced true
|  5>  convergence tight
|  6>  MaxIter 500
|  7> end
|  8>
|  9> %tddft
| 10>  nroots 1
| 11> end
| 12>
| 13> # 	30458
| 14> * xyz 0 1
| 15> 		C   -0.630517  -0.443629   0.013976
| 16> 		O   -0.579373  -1.609978  -0.009802
| 17> 		C    0.621453   0.384197   0.009503
| 18> 		C    1.870581  -0.103568   0.002470
| 19> 		H   -1.619758   0.150367  -0.067198
| 20> 		H    0.456099   1.323331  -0.039272
| 21> 		H    2.262793  -1.245371   0.086396
| 22> 		H    2.846868   0.552109  -0.143378
| 23> *
| 24>
| 25>                          ****END OF INPUT****

CARTESIAN COORDINATES (ANGSTROEM)
---------------------------------
  C     -0.630517   -0.443629    0.013976
  O     -0.579373   -1.609978   -0.009802
  C      0.621453    0.384197    0.009503
  C      1.870581   -0.103568    0.002470
  H     -1.619758    0.150367   -0.067198
  H      0.456099    1.323331   -0.039272
  H      2.262793   -1.245371    0.086396
  H      2.846868    0.552109   -0.143378

 Total Charge           Charge          ....    0
 Multiplicity           Mult            ....    1
 Number of Electrons    NEL             ....   30
 Basis Dimension        Dim             ....   76

ORBITAL ENERGIES
----------------

  NO   OCC          E(Eh)            E(eV)
   0   2.0000     -19.138524      -520.7857
   1   2.0000     -10.276194      -279.6294
   2   2.0000     -10.230307      -278.3808
   3   2.0000     -10.192705      -277.3576
   4   2.0000      -1.071671       -29.1617
   5   2.0000      -0.789651       -21.4875
   6   2.0000      -0.646663       -17.5966
   7   2.0000      -0.543710       -14.7951
   8   2.0000      -0.505980       -13.7684
   9   2.0000      -0.452222       -12.3056
  10   2.0000      -0.429871       -11.6974
  11   2.0000      -0.411710       -11.2032
  12   2.0000      -0.364621        -9.9218
  13   2.0000      -0.286595        -7.7987
  14   2.0000      -0.254294        -6.9197
  15   0.0000      -0.063676        -1.7327
  16   0.0000       0.059754         1.6260
  17   0.0000       0.068000         1.8504
  18   0.0000       0.074084         2.0159
  19   0.0000       0.116280         3.1641

MULLIKEN ATOMIC CHARGES
-----------------------
   0 C :    0.144972
   1 O :   -0.143079
   2 C :    0.023443
   3 C :   -0.042659
   4 H :   -0.024571
   5 H :   -0.075397
   6 H :    0.064799
   7 H :    0.052492
Sum of atomic charges:   -0.0000000

LOEWDIN ATOMIC CHARGES
----------------------
   0 C :   -0.058482
   1 O :    0.042479
   2 C :   -0.068051
   3 C :    0.005045
   4 H :   -0.006409
   5 H :   -0.013049
   6 H :    0.052739
   7 H :    0.045728

  Mayer bond orders larger than 0.100000
B(  0-C ,  1-O ) :   2.2617 B(  0-C ,  2-C ) :   1.0343 B(  0-C ,  4-H ) :   0.8969
B(  2-C ,  3-C ) :   1.9478 B(  2-C ,  5-H ) :   0.9388 B(  3-C ,  6-H ) :   0.9412
B(  3-C ,  7-H ) :   0.9433

-----------------------------------------------------------------------------
         ABSORPTION SPECTRUM VIA TRANSITION ELECTRIC DIPOLE MOMENTS
-----------------------------------------------------------------------------
State   Energy    Wavelength  fosc         T2        TX        TY        TZ
        (cm-1)      (nm)                 (au**2)    (au)      (au)      (au)
-----------------------------------------------------------------------------
   1   29182.8    342.7   0.000057689   0.00065   0.00703   0.00930  -0.02269

FINAL SINGLE POINT ENERGY      -191.639597311515

DIPOLE MOMENT
-------------
                                X             Y             Z
Electronic contribution:     -2.19449      -1.72767       0.13840
Nuclear contribution   :      2.54659       2.51801      -0.15283
                        -----------------------------------------
Total Dipole Moment    :      0.35209       0.79034      -0.01443
                        -----------------------------------------
Magnitude (a.u.)       :      0.86534
Magnitude (Debye)      :      2.19952

Rotational constants in cm-1:     0.776779     0.203996     0.161688
Rotational constants in MHz : 23287.237683  6115.655203  4847.285346

                             ****ORCA TERMINATED NORMALLY****
TOTAL RUN TIME: 0 days 0 hours 3 minutes 21 seconds 901 msec
