                         Program Version 5.0.3 -  RELEASE  -
|  1> ! HF-3c
|  2> !TightSCF
|  3> %scf
|  4>  ConvForced true
|  5>  convergence tight
|  6>  MaxIter 500
|  7> end
|  8>
|  9> %tddft
| 10>  nroots 1
| 11> end
| 12>
| 13> # 	16613
| 14> * xyz 0 1
| 15> 		C   -1.159529  -0.351682  -0.103416
| 16> 		O   -1.768976  -0.928071  -1.009141
| 17> 		C    0.092943   0.440586  -0.254205
| 18> 		C    1.220707  -0.009713   0.163636
| 19> 		H   -1.609641  -0.339407   1.055613
| 20> 		H   -0.014512   1.390723  -0.861989
| 21> 		H    1.267571  -0.899313   0.763016
| 22> 		H    1.981651   0.672932   0.200706
| 23> *
| 24>
| 25>                          ****END OF INPUT****

CARTESIAN COORDINATES (ANGSTROEM)
---------------------------------
  C     -1.159529   -0.351682   -0.103416
  O     -1.768976   -0.928071   -1.009141
  C      0.092943    0.440586   -0.254205
  C      1.220707   -0.009713    0.163636
  H     -1.609641   -0.339407    1.055613
  H     -0.014512    1.390723   -0.861989
  H      1.267571   -0.899313    0.763016
  H      1.981651    0.672932    0.200706

 Total Charge           Charge          ....    0
 Multiplicity           Mult            ....    1
 Number of Electrons    NEL             ....   30
 Basis Dimension        Dim             ....   24

ORBITAL ENERGIES
----------------

  NO   OCC          E(Eh)            E(eV)
   0   2.0000     -20.367064      -554.2160
   1   2.0000     -11.290975      -307.2430
   2   2.0000     -11.201055      -304.7962
   3   2.0000     -11.186628      -304.4036
   4   2.0000      -1.385134       -37.6914
   5   2.0000      -1.103124       -30.0175
   6   2.0000      -0.882190       -24.0056
   7   2.0000      -0.748736       -20.3741
   8   2.0000      -0.675263       -18.3749
   9   2.0000      -0.641643       -17.4600
  10   2.0000      -0.599042       -16.3008
  11   2.0000      -0.551159       -14.9978
  12   2.0000      -0.493913       -13.4401
  13   2.0000      -0.419810       -11.4236
  14   2.0000      -0.401339       -10.9210
  15   0.0000       0.170089         4.6284
  16   0.0000       0.236405         6.4329
  17   0.0000       0.499713        13.5979
  18   0.0000       0.575594        15.6627
  19   0.0000       0.646834        17.6012

MULLIKEN ATOMIC CHARGES
-----------------------
   0 C :    0.181071
   1 O :   -0.346406
   2 C :   -0.153853
   3 C :   -0.270041
   4 H :    0.134565
   5 H :    0.160371
   6 H :    0.146748
   7 H :    0.147545
Sum of atomic charges:   -0.0000000

LOEWDIN ATOMIC CHARGES
----------------------
   0 C :    0.154554
   1 O :   -0.257078
   2 C :   -0.105705
   3 C :   -0.172106
   4 H :    0.083216
   5 H :    0.109272
   6 H :    0.095593
   7 H :    0.092254

  Mayer bond orders larger than 0.100000
B(  0-C ,  1-O ) :   1.9491 B(  0-C ,  2-C ) :   0.9899 B(  0-C ,  4-H ) :   0.9041
B(  2-C ,  3-C ) :   1.9984 B(  2-C ,  5-H ) :   0.9429 B(  3-C ,  6-H ) :   0.9616
B(  3-C ,  7-H ) :   0.9613

-----------------------------------------------------------------------------
         ABSORPTION SPECTRUM VIA TRANSITION ELECTRIC DIPOLE MOMENTS
-----------------------------------------------------------------------------
State   Energy    Wavelength  fosc         T2        TX        TY        TZ
        (cm-1)      (nm)                 (au**2)    (au)      (au)      (au)
-----------------------------------------------------------------------------
   1   33302.5    300.3   0.000054389   0.00054   0.02303   0.00142  -0.00226

Dispersion correction           -0.025254341
FINAL SINGLE POINT ENERGY      -189.311698718664

DIPOLE MOMENT
-------------
                                X             Y             Z
Electronic contribution:     -2.64603      -1.07785      -1.47634
Nuclear contribution   :      3.16585       1.63821       2.23401
                        -----------------------------------------
Total Dipole Moment    :      0.51981       0.56036       0.75767
                        -----------------------------------------
Magnitude (a.u.)       :      1.07623
Magnitude (Debye)      :      2.73556

Rotational constants in cm-1:     1.100174     0.160043     0.157070
Rotational constants in MHz : 32982.379400  4797.975771  4708.840192

                             ****ORCA TERMINATED NORMALLY****
TOTAL RUN TIME: 0 days 0 hours 0 minutes 16 seconds 96 msec
