                         Program Version 5.0.3 -  RELEASE  -
|  1> ! HF-3c
|  2> !TightSCF
|  3> %scf
|  4>  ConvForced true
|  5>  convergence tight
|  6>  MaxIter 500
|  7> end
|  8>
|  9> %tddft
| 10>  nroots 1
| 11> end
| 12>
| 13> # 	13861
| 14> * xyz 0 1
| 15> 		C   -1.211188  -0.350450   0.011064
| 16> 		O   -1.253793  -1.523111  -0.058787
| 17> 		C   -0.012011   0.566820  -0.021841
| 18> 		C    1.209768  -0.059499   0.062740
| 19> 		H   -2.150571   0.252290   0.086919
| 20> 		H   -0.210382   1.667896  -0.098707
| 21> 		H    1.366577  -1.167498   0.038425
| 22> 		H    2.271334   0.584926  -0.012461
| 23> *
| 24>
| 25>                          ****END OF INPUT****

CARTESIAN COORDINATES (ANGSTROEM)
---------------------------------
  C     -1.211188   -0.350450    0.011064
  O     -1.253793   -1.523111   -0.058787
  C     -0.012011    0.566820   -0.021841
  C      1.209768   -0.059499    0.062740
  H     -2.150571    0.252290    0.086919
  H     -0.210382    1.667896   -0.098707
  H      1.366577   -1.167498    0.038425
  H      2.271334    0.584926   -0.012461

 Total Charge           Charge          ....    0
 Multiplicity           Mult            ....    1
 Number of Electrons    NEL             ....   30
 Basis Dimension        Dim             ....   24

ORBITAL ENERGIES
----------------

  NO   OCC          E(Eh)            E(eV)
   0   2.0000     -20.369063      -554.2704
   1   2.0000     -11.296850      -307.4029
   2   2.0000     -11.186137      -304.3903
   3   2.0000     -11.175721      -304.1068
   4   2.0000      -1.421833       -38.6901
   5   2.0000      -1.051663       -28.6172
   6   2.0000      -0.867953       -23.6182
   7   2.0000      -0.731563       -19.9068
   8   2.0000      -0.686901       -18.6915
   9   2.0000      -0.611283       -16.6339
  10   2.0000      -0.573723       -15.6118
  11   2.0000      -0.547923       -14.9097
  12   2.0000      -0.517575       -14.0839
  13   2.0000      -0.395414       -10.7598
  14   2.0000      -0.380872       -10.3640
  15   0.0000       0.141528         3.8512
  16   0.0000       0.308316         8.3897
  17   0.0000       0.484561        13.1856
  18   0.0000       0.571002        15.5378
  19   0.0000       0.588179        16.0052

MULLIKEN ATOMIC CHARGES
-----------------------
   0 C :    0.183273
   1 O :   -0.370254
   2 C :   -0.187060
   3 C :   -0.186577
   4 H :    0.120931
   5 H :    0.144960
   6 H :    0.155743
   7 H :    0.138984
Sum of atomic charges:    0.0000000

LOEWDIN ATOMIC CHARGES
----------------------
   0 C :    0.154236
   1 O :   -0.262937
   2 C :   -0.152318
   3 C :   -0.098688
   4 H :    0.058750
   5 H :    0.096487
   6 H :    0.104224
   7 H :    0.100246

  Mayer bond orders larger than 0.100000
B(  0-C ,  1-O ) :   1.9156 B(  0-C ,  2-C ) :   1.0068 B(  0-C ,  4-H ) :   0.9183
B(  2-C ,  3-C ) :   1.9390 B(  2-C ,  5-H ) :   0.9602 B(  3-C ,  6-H ) :   0.9588
B(  3-C ,  7-H ) :   0.9607

-----------------------------------------------------------------------------
         ABSORPTION SPECTRUM VIA TRANSITION ELECTRIC DIPOLE MOMENTS
-----------------------------------------------------------------------------
State   Energy    Wavelength  fosc         T2        TX        TY        TZ
        (cm-1)      (nm)                 (au**2)    (au)      (au)      (au)
-----------------------------------------------------------------------------
   1   34978.9    285.9   0.000033065   0.00031   0.01653  -0.00141   0.00601

Dispersion correction           -0.025097332
FINAL SINGLE POINT ENERGY      -189.310569669947

DIPOLE MOMENT
-------------
                                X             Y             Z
Electronic contribution:     -1.97075      -1.72682      -0.00088
Nuclear contribution   :      2.45180       2.65271       0.03273
                        -----------------------------------------
Total Dipole Moment    :      0.48105       0.92590       0.03185
                        -----------------------------------------
Magnitude (a.u.)       :      1.04389
Magnitude (Debye)      :      2.65336

Rotational constants in cm-1:     0.734683     0.205278     0.160699
Rotational constants in MHz : 22025.234092  6154.080964  4817.645378

                             ****ORCA TERMINATED NORMALLY****
TOTAL RUN TIME: 0 days 0 hours 0 minutes 10 seconds 802 msec
