                         Program Version 5.0.3 -  RELEASE  -
|  1> ! B3LYP cc-pVDZ
|  2> !TightSCF
|  3> %scf
|  4>  ConvForced true
|  5>  convergence tight
|  6>  MaxIter 500
|  7> end
|  8>
|  9> %tddft
| 10>  nroots 1
| 11> end
| 12>
| 13> # 	10763
| 14> * xyz 0 1
| 15> 		C   -1.225170  -0.275151  -0.032546
| 16> 		O   -1.309692  -1.434324   0.365139
| 17> 		C   -0.054801   0.514277   0.130564
| 18> 		C    1.187547   0.011624  -0.021586
| 19> 		H   -2.019834   0.183813  -0.535894
| 20> 		H   -0.234239   1.549025   0.465996
| 21> 		H    1.443867  -1.018965  -0.398868
| 22> 		H    2.191525   0.554870   0.146988
| 23> *
| 24>
| 25>                          ****END OF INPUT****

CARTESIAN COORDINATES (ANGSTROEM)
---------------------------------
  C     -1.225170   -0.275151   -0.032546
  O     -1.309692   -1.434324    0.365139
  C     -0.054801    0.514277    0.130564
  C      1.187547    0.011624   -0.021586
  H     -2.019834    0.183813   -0.535894
  H     -0.234239    1.549025    0.465996
  H      1.443867   -1.018965   -0.398868
  H      2.191525    0.554870    0.146988

 Total Charge           Charge          ....    0
 Multiplicity           Mult            ....    1
 Number of Electrons    NEL             ....   30
 Basis Dimension        Dim             ....   76

ORBITAL ENERGIES
----------------

  NO   OCC          E(Eh)            E(eV)
   0   2.0000     -19.134227      -520.6688
   1   2.0000     -10.266173      -279.3568
   2   2.0000     -10.223408      -278.1931
   3   2.0000     -10.206984      -277.7462
   4   2.0000      -1.034776       -28.1577
   5   2.0000      -0.796119       -21.6635
   6   2.0000      -0.666542       -18.1375
   7   2.0000      -0.553754       -15.0684
   8   2.0000      -0.502033       -13.6610
   9   2.0000      -0.454409       -12.3651
  10   2.0000      -0.432995       -11.7824
  11   2.0000      -0.376461       -10.2440
  12   2.0000      -0.371570       -10.1109
  13   2.0000      -0.286560        -7.7977
  14   2.0000      -0.252668        -6.8754
  15   0.0000      -0.063208        -1.7200
  16   0.0000       0.029738         0.8092
  17   0.0000       0.070798         1.9265
  18   0.0000       0.084894         2.3101
  19   0.0000       0.119034         3.2391

MULLIKEN ATOMIC CHARGES
-----------------------
   0 C :    0.210880
   1 O :   -0.208161
   2 C :   -0.078576
   3 C :    0.001711
   4 H :   -0.030429
   5 H :    0.012567
   6 H :    0.046207
   7 H :    0.045801
Sum of atomic charges:   -0.0000000

LOEWDIN ATOMIC CHARGES
----------------------
   0 C :   -0.024838
   1 O :   -0.014926
   2 C :   -0.075471
   3 C :    0.005805
   4 H :   -0.010728
   5 H :    0.039570
   6 H :    0.039077
   7 H :    0.041512

  Mayer bond orders larger than 0.100000
B(  0-C ,  1-O ) :   2.1904 B(  0-C ,  2-C ) :   1.0733 B(  0-C ,  4-H ) :   0.9273
B(  2-C ,  3-C ) :   1.9554 B(  2-C ,  5-H ) :   0.9327 B(  3-C ,  6-H ) :   0.9479
B(  3-C ,  7-H ) :   0.9513

-----------------------------------------------------------------------------
         ABSORPTION SPECTRUM VIA TRANSITION ELECTRIC DIPOLE MOMENTS
-----------------------------------------------------------------------------
State   Energy    Wavelength  fosc         T2        TX        TY        TZ
        (cm-1)      (nm)                 (au**2)    (au)      (au)      (au)
-----------------------------------------------------------------------------
   1   28250.0    354.0   0.000238029   0.00277   0.05182   0.00123   0.00933

FINAL SINGLE POINT ENERGY      -191.664487543625

DIPOLE MOMENT
-------------
                                X             Y             Z
Electronic contribution:     -2.24488      -1.53612       0.45361
Nuclear contribution   :      2.66567       2.42285      -0.72895
                        -----------------------------------------
Total Dipole Moment    :      0.42080       0.88673      -0.27534
                        -----------------------------------------
Magnitude (a.u.)       :      1.01940
Magnitude (Debye)      :      2.59110

Rotational constants in cm-1:     0.775969     0.203443     0.166732
Rotational constants in MHz : 23262.957972  6099.071277  4998.502870

                             ****ORCA TERMINATED NORMALLY****
TOTAL RUN TIME: 0 days 0 hours 3 minutes 12 seconds 960 msec
