                         Program Version 5.0.3 -  RELEASE  -
|  1> ! HF-3c
|  2> !TightSCF
|  3> %scf
|  4>  ConvForced true
|  5>  convergence tight
|  6>  MaxIter 500
|  7> end
|  8>
|  9> %tddft
| 10>  nroots 1
| 11> end
| 12>
| 13> # 	26457
| 14> * xyz 0 1
| 15> 		C   -0.622748  -0.437851  -0.005309
| 16> 		O   -0.608699  -1.638796  -0.003420
| 17> 		C    0.655745   0.378048   0.025723
| 18> 		C    1.899428  -0.085036   0.006117
| 19> 		H   -1.534873   0.073024  -0.028745
| 20> 		H    0.372178   1.371659  -0.101554
| 21> 		H    2.001561  -1.043657   0.004373
| 22> 		H    2.721005   0.579326  -0.147871
| 23> *
| 24>
| 25>                          ****END OF INPUT****

CARTESIAN COORDINATES (ANGSTROEM)
---------------------------------
  C     -0.622748   -0.437851   -0.005309
  O     -0.608699   -1.638796   -0.003420
  C      0.655745    0.378048    0.025723
  C      1.899428   -0.085036    0.006117
  H     -1.534873    0.073024   -0.028745
  H      0.372178    1.371659   -0.101554
  H      2.001561   -1.043657    0.004373
  H      2.721005    0.579326   -0.147871

 Total Charge           Charge          ....    0
 Multiplicity           Mult            ....    1
 Number of Electrons    NEL             ....   30
 Basis Dimension        Dim             ....   24

ORBITAL ENERGIES
----------------

  NO   OCC          E(Eh)            E(eV)
   0   2.0000     -20.377279      -554.4940
   1   2.0000     -11.302451      -307.5553
   2   2.0000     -11.198750      -304.7335
   3   2.0000     -11.194901      -304.6287
   4   2.0000      -1.415452       -38.5164
   5   2.0000      -1.087216       -29.5847
   6   2.0000      -0.911977       -24.8162
   7   2.0000      -0.775532       -21.1033
   8   2.0000      -0.715720       -19.4757
   9   2.0000      -0.630806       -17.1651
  10   2.0000      -0.618662       -16.8347
  11   2.0000      -0.553320       -15.0566
  12   2.0000      -0.546513       -14.8714
  13   2.0000      -0.419891       -11.4258
  14   2.0000      -0.404322       -11.0022
  15   0.0000       0.128439         3.4950
  16   0.0000       0.299294         8.1442
  17   0.0000       0.533669        14.5219
  18   0.0000       0.687186        18.6993
  19   0.0000       0.742243        20.1975

MULLIKEN ATOMIC CHARGES
-----------------------
   0 C :    0.157855
   1 O :   -0.342158
   2 C :   -0.154214
   3 C :   -0.255195
   4 H :    0.141822
   5 H :    0.136955
   6 H :    0.157325
   7 H :    0.157609
Sum of atomic charges:    0.0000000

LOEWDIN ATOMIC CHARGES
----------------------
   0 C :    0.140193
   1 O :   -0.243013
   2 C :   -0.106910
   3 C :   -0.142880
   4 H :    0.072577
   5 H :    0.082134
   6 H :    0.093521
   7 H :    0.104377

  Mayer bond orders larger than 0.100000
B(  0-C ,  1-O ) :   1.9185 B(  0-C ,  2-C ) :   1.0062 B(  0-C ,  4-H ) :   0.9324
B(  2-C ,  3-C ) :   1.9630 B(  2-C ,  5-H ) :   0.9637 B(  3-C ,  6-H ) :   0.9627
B(  3-C ,  7-H ) :   0.9617

-----------------------------------------------------------------------------
         ABSORPTION SPECTRUM VIA TRANSITION ELECTRIC DIPOLE MOMENTS
-----------------------------------------------------------------------------
State   Energy    Wavelength  fosc         T2        TX        TY        TZ
        (cm-1)      (nm)                 (au**2)    (au)      (au)      (au)
-----------------------------------------------------------------------------
   1   32111.9    311.4   0.000037923   0.00039  -0.01926  -0.00350  -0.00233

Dispersion correction           -0.025801794
FINAL SINGLE POINT ENERGY      -189.325842475081

DIPOLE MOMENT
-------------
                                X             Y             Z
Electronic contribution:     -2.00301      -1.77822       0.18497
Nuclear contribution   :      2.18435       2.70793      -0.25611
                        -----------------------------------------
Total Dipole Moment    :      0.18133       0.92971      -0.07114
                        -----------------------------------------
Magnitude (a.u.)       :      0.94989
Magnitude (Debye)      :      2.41444

Rotational constants in cm-1:     0.821596     0.198530     0.160022
Rotational constants in MHz : 24630.833404  5951.790540  4797.330135

                             ****ORCA TERMINATED NORMALLY****
TOTAL RUN TIME: 0 days 0 hours 0 minutes 11 seconds 207 msec
