                         Program Version 5.0.3 -  RELEASE  -
|  1> ! B3LYP cc-pVDZ
|  2> !TightSCF
|  3> %scf
|  4>  ConvForced true
|  5>  convergence tight
|  6>  MaxIter 500
|  7> end
|  8>
|  9> %tddft
| 10>  nroots 1
| 11> end
| 12>
| 13> # 	1073
| 14> * xyz 0 1
| 15> 		C   -1.197767  -0.314341   0.062427
| 16> 		O   -1.964216  -0.645923   0.918357
| 17> 		C   -0.035821   0.479903   0.227456
| 18> 		C    1.155016   0.063589  -0.185834
| 19> 		H   -1.508671  -0.715682  -1.027537
| 20> 		H   -0.009605   1.410783   0.939731
| 21> 		H    1.413540  -0.767825  -0.900988
| 22> 		H    2.067407   0.592441  -0.060960
| 23> *
| 24>
| 25>                          ****END OF INPUT****

CARTESIAN COORDINATES (ANGSTROEM)
---------------------------------
  C     -1.197767   -0.314341    0.062427
  O     -1.964216   -0.645923    0.918357
  C     -0.035821    0.479903    0.227456
  C      1.155016    0.063589   -0.185834
  H     -1.508671   -0.715682   -1.027537
  H     -0.009605    1.410783    0.939731
  H      1.413540   -0.767825   -0.900988
  H      2.067407    0.592441   -0.060960

 Total Charge           Charge          ....    0
 Multiplicity           Mult            ....    1
 Number of Electrons    NEL             ....   30
 Basis Dimension        Dim             ....   76

ORBITAL ENERGIES
----------------

  NO   OCC          E(Eh)            E(eV)
   0   2.0000     -19.138060      -520.7731
   1   2.0000     -10.279706      -279.7250
   2   2.0000     -10.217282      -278.0264
   3   2.0000     -10.216252      -277.9983
   4   2.0000      -1.056388       -28.7458
   5   2.0000      -0.809386       -22.0245
   6   2.0000      -0.656515       -17.8647
   7   2.0000      -0.553217       -15.0538
   8   2.0000      -0.484825       -13.1927
   9   2.0000      -0.475728       -12.9452
  10   2.0000      -0.435315       -11.8455
  11   2.0000      -0.390108       -10.6154
  12   2.0000      -0.371598       -10.1117
  13   2.0000      -0.295583        -8.0432
  14   2.0000      -0.252208        -6.8629
  15   0.0000      -0.057593        -1.5672
  16   0.0000       0.017834         0.4853
  17   0.0000       0.073116         1.9896
  18   0.0000       0.083485         2.2717
  19   0.0000       0.100542         2.7359

MULLIKEN ATOMIC CHARGES
-----------------------
   0 C :    0.146703
   1 O :   -0.172778
   2 C :   -0.073605
   3 C :    0.023279
   4 H :   -0.021014
   5 H :    0.041787
   6 H :    0.031622
   7 H :    0.024007
Sum of atomic charges:   -0.0000000

LOEWDIN ATOMIC CHARGES
----------------------
   0 C :   -0.058531
   1 O :    0.016002
   2 C :   -0.072727
   3 C :   -0.002200
   4 H :   -0.003457
   5 H :    0.060131
   6 H :    0.035819
   7 H :    0.024964

  Mayer bond orders larger than 0.100000
B(  0-C ,  1-O ) :   2.2065 B(  0-C ,  2-C ) :   1.0317 B(  0-C ,  4-H ) :   0.9075
B(  2-C ,  3-C ) :   1.9734 B(  2-C ,  5-H ) :   0.9220 B(  3-C ,  6-H ) :   0.9569
B(  3-C ,  7-H ) :   0.9471

-----------------------------------------------------------------------------
         ABSORPTION SPECTRUM VIA TRANSITION ELECTRIC DIPOLE MOMENTS
-----------------------------------------------------------------------------
State   Energy    Wavelength  fosc         T2        TX        TY        TZ
        (cm-1)      (nm)                 (au**2)    (au)      (au)      (au)
-----------------------------------------------------------------------------
   1   29987.8    333.5   0.000695995   0.00764  -0.08647  -0.00743   0.01037

FINAL SINGLE POINT ENERGY      -191.648623255313

DIPOLE MOMENT
-------------
                                X             Y             Z
Electronic contribution:     -2.94845      -0.57326       1.46238
Nuclear contribution   :      3.85454       0.95232      -1.97150
                        -----------------------------------------
Total Dipole Moment    :      0.90609       0.37906      -0.50912
                        -----------------------------------------
Magnitude (a.u.)       :      1.10630
Magnitude (Debye)      :      2.81199

Rotational constants in cm-1:     1.266116     0.161459     0.153424
Rotational constants in MHz : 37957.199919  4840.424947  4599.539426

                             ****ORCA TERMINATED NORMALLY****
TOTAL RUN TIME: 0 days 0 hours 3 minutes 7 seconds 213 msec
