                         Program Version 5.0.3 -  RELEASE  -
|  1> ! B3LYP cc-pVDZ
|  2> !TightSCF
|  3> %scf
|  4>  ConvForced true
|  5>  convergence tight
|  6>  MaxIter 500
|  7> end
|  8>
|  9> %tddft
| 10>  nroots 1
| 11> end
| 12>
| 13> # 	16928
| 14> * xyz 0 1
| 15> 		C   -1.186161  -0.391392   0.023449
| 16> 		O   -1.386811  -1.463400   0.564970
| 17> 		C    0.050085   0.378216   0.068981
| 18> 		C    1.248735   0.048504  -0.048783
| 19> 		H   -2.169730   0.116444  -0.529797
| 20> 		H   -0.143171   1.522863   0.067673
| 21> 		H    1.473518  -0.946736  -0.120556
| 22> 		H    2.059014   0.846441  -0.029045
| 23> *
| 24>
| 25>                          ****END OF INPUT****

CARTESIAN COORDINATES (ANGSTROEM)
---------------------------------
  C     -1.186161   -0.391392    0.023449
  O     -1.386811   -1.463400    0.564970
  C      0.050085    0.378216    0.068981
  C      1.248735    0.048504   -0.048783
  H     -2.169730    0.116444   -0.529797
  H     -0.143171    1.522863    0.067673
  H      1.473518   -0.946736   -0.120556
  H      2.059014    0.846441   -0.029045

 Total Charge           Charge          ....    0
 Multiplicity           Mult            ....    1
 Number of Electrons    NEL             ....   30
 Basis Dimension        Dim             ....   76

ORBITAL ENERGIES
----------------

  NO   OCC          E(Eh)            E(eV)
   0   2.0000     -19.143971      -520.9339
   1   2.0000     -10.287881      -279.9475
   2   2.0000     -10.204683      -277.6835
   3   2.0000     -10.201968      -277.6097
   4   2.0000      -1.046679       -28.4816
   5   2.0000      -0.819451       -22.2984
   6   2.0000      -0.660344       -17.9689
   7   2.0000      -0.537454       -14.6249
   8   2.0000      -0.506045       -13.7702
   9   2.0000      -0.454392       -12.3646
  10   2.0000      -0.437707       -11.9106
  11   2.0000      -0.396415       -10.7870
  12   2.0000      -0.365228        -9.9384
  13   2.0000      -0.306818        -8.3489
  14   2.0000      -0.255748        -6.9593
  15   0.0000      -0.058740        -1.5984
  16   0.0000       0.035676         0.9708
  17   0.0000       0.061010         1.6602
  18   0.0000       0.088010         2.3949
  19   0.0000       0.111210         3.0262

MULLIKEN ATOMIC CHARGES
-----------------------
   0 C :    0.125448
   1 O :   -0.183349
   2 C :   -0.099949
   3 C :    0.121599
   4 H :   -0.007824
   5 H :    0.008720
   6 H :   -0.005708
   7 H :    0.041063
Sum of atomic charges:    0.0000000

LOEWDIN ATOMIC CHARGES
----------------------
   0 C :   -0.036645
   1 O :   -0.004942
   2 C :   -0.086838
   3 C :    0.007676
   4 H :    0.003140
   5 H :    0.048013
   6 H :    0.016690
   7 H :    0.052908

  Mayer bond orders larger than 0.100000
B(  0-C ,  1-O ) :   2.2003 B(  0-C ,  2-C ) :   1.0193 B(  0-C ,  4-H ) :   0.8902
B(  2-C ,  3-C ) :   2.0517 B(  2-C ,  5-H ) :   0.9111 B(  3-C ,  6-H ) :   0.9234
B(  3-C ,  7-H ) :   0.9200

-----------------------------------------------------------------------------
         ABSORPTION SPECTRUM VIA TRANSITION ELECTRIC DIPOLE MOMENTS
-----------------------------------------------------------------------------
State   Energy    Wavelength  fosc         T2        TX        TY        TZ
        (cm-1)      (nm)                 (au**2)    (au)      (au)      (au)
-----------------------------------------------------------------------------
   1   29655.0    337.2   0.000649102   0.00721  -0.07816  -0.00032   0.03311

FINAL SINGLE POINT ENERGY      -191.642594341040

DIPOLE MOMENT
-------------
                                X             Y             Z
Electronic contribution:     -1.89240      -2.07556       0.81489
Nuclear contribution   :      2.44118       2.86281      -1.16676
                        -----------------------------------------
Total Dipole Moment    :      0.54878       0.78725      -0.35187
                        -----------------------------------------
Magnitude (a.u.)       :      1.02212
Magnitude (Debye)      :      2.59803

Rotational constants in cm-1:     0.943404     0.183400     0.157221
Rotational constants in MHz : 28282.543773  5498.198590  4713.381506

                             ****ORCA TERMINATED NORMALLY****
TOTAL RUN TIME: 0 days 0 hours 3 minutes 8 seconds 795 msec
