                         Program Version 5.0.3 -  RELEASE  -
|  1> ! HF-3c
|  2> !TightSCF
|  3> %scf
|  4>  ConvForced true
|  5>  convergence tight
|  6>  MaxIter 500
|  7> end
|  8>
|  9> %tddft
| 10>  nroots 1
| 11> end
| 12>
| 13> # 	5309
| 14> * xyz 0 1
| 15> 		C   -1.191342  -0.232925   0.000924
| 16> 		O   -1.582577  -1.098324   0.849018
| 17> 		C    0.067945   0.552296   0.171887
| 18> 		C    1.154944  -0.046772  -0.122607
| 19> 		H   -1.707947  -0.324799  -1.036901
| 20> 		H   -0.116030   1.565223   0.645793
| 21> 		H    1.271936  -0.991749  -0.520531
| 22> 		H    2.070454   0.527920  -0.009906
| 23> *
| 24>
| 25>                          ****END OF INPUT****

CARTESIAN COORDINATES (ANGSTROEM)
---------------------------------
  C     -1.191342   -0.232925    0.000924
  O     -1.582577   -1.098324    0.849018
  C      0.067945    0.552296    0.171887
  C      1.154944   -0.046772   -0.122607
  H     -1.707947   -0.324799   -1.036901
  H     -0.116030    1.565223    0.645793
  H      1.271936   -0.991749   -0.520531
  H      2.070454    0.527920   -0.009906

 Total Charge           Charge          ....    0
 Multiplicity           Mult            ....    1
 Number of Electrons    NEL             ....   30
 Basis Dimension        Dim             ....   24

ORBITAL ENERGIES
----------------

  NO   OCC          E(Eh)            E(eV)
   0   2.0000     -20.347941      -553.6956
   1   2.0000     -11.275288      -306.8162
   2   2.0000     -11.205884      -304.9276
   3   2.0000     -11.190916      -304.5203
   4   2.0000      -1.355800       -36.8932
   5   2.0000      -1.102556       -30.0021
   6   2.0000      -0.879858       -23.9422
   7   2.0000      -0.759225       -20.6596
   8   2.0000      -0.677002       -18.4222
   9   2.0000      -0.643285       -17.5047
  10   2.0000      -0.593693       -16.1552
  11   2.0000      -0.537716       -14.6320
  12   2.0000      -0.469623       -12.7791
  13   2.0000      -0.423761       -11.5311
  14   2.0000      -0.404819       -11.0157
  15   0.0000       0.178102         4.8464
  16   0.0000       0.221552         6.0287
  17   0.0000       0.533190        14.5089
  18   0.0000       0.561701        15.2847
  19   0.0000       0.687145        18.6982

MULLIKEN ATOMIC CHARGES
-----------------------
   0 C :    0.153105
   1 O :   -0.339075
   2 C :   -0.157115
   3 C :   -0.259526
   4 H :    0.142506
   5 H :    0.162590
   6 H :    0.150250
   7 H :    0.147266
Sum of atomic charges:    0.0000000

LOEWDIN ATOMIC CHARGES
----------------------
   0 C :    0.142542
   1 O :   -0.262638
   2 C :   -0.105788
   3 C :   -0.161658
   4 H :    0.085647
   5 H :    0.111133
   6 H :    0.094257
   7 H :    0.096506

  Mayer bond orders larger than 0.100000
B(  0-C ,  1-O ) :   1.9398 B(  0-C ,  2-C ) :   0.9891 B(  0-C ,  4-H ) :   0.9231
B(  2-C ,  3-C ) :   2.0059 B(  2-C ,  5-H ) :   0.9447 B(  3-C ,  6-H ) :   0.9625
B(  3-C ,  7-H ) :   0.9572

-----------------------------------------------------------------------------
         ABSORPTION SPECTRUM VIA TRANSITION ELECTRIC DIPOLE MOMENTS
-----------------------------------------------------------------------------
State   Energy    Wavelength  fosc         T2        TX        TY        TZ
        (cm-1)      (nm)                 (au**2)    (au)      (au)      (au)
-----------------------------------------------------------------------------
   1   30576.3    327.1   0.000238131   0.00256   0.04330   0.01432   0.02199

Dispersion correction           -0.025358312
FINAL SINGLE POINT ENERGY      -189.325038610947

DIPOLE MOMENT
-------------
                                X             Y             Z
Electronic contribution:     -2.51225      -0.93858       1.08758
Nuclear contribution   :      2.97430       1.62055      -1.74292
                        -----------------------------------------
Total Dipole Moment    :      0.46205       0.68197      -0.65534
                        -----------------------------------------
Magnitude (a.u.)       :      1.05264
Magnitude (Debye)      :      2.67559

Rotational constants in cm-1:     0.866630     0.179734     0.166430
Rotational constants in MHz : 25980.903758  5388.287926  4989.438205

                             ****ORCA TERMINATED NORMALLY****
TOTAL RUN TIME: 0 days 0 hours 0 minutes 13 seconds 476 msec
