                         Program Version 5.0.3 -  RELEASE  -
|  1> ! B3LYP cc-pVDZ
|  2> !TightSCF
|  3> %scf
|  4>  ConvForced true
|  5>  convergence tight
|  6>  MaxIter 500
|  7> end
|  8>
|  9> %tddft
| 10>  nroots 1
| 11> end
| 12>
| 13> # 	112
| 14> * xyz 0 1
| 15> 		C   -1.200725  -0.369212   0.031078
| 16> 		O   -1.684235  -1.160040  -0.754519
| 17> 		C   -0.041850   0.477876  -0.194401
| 18> 		C    1.233799   0.080395   0.199913
| 19> 		H   -1.586923  -0.268773   0.796626
| 20> 		H   -0.233007   1.554914  -0.544628
| 21> 		H    1.340930  -1.109746   0.478807
| 22> 		H    2.215369   0.814018  -0.034450
| 23> *
| 24>
| 25>                          ****END OF INPUT****

CARTESIAN COORDINATES (ANGSTROEM)
---------------------------------
  C     -1.200725   -0.369212    0.031078
  O     -1.684235   -1.160040   -0.754519
  C     -0.041850    0.477876   -0.194401
  C      1.233799    0.080395    0.199913
  H     -1.586923   -0.268773    0.796626
  H     -0.233007    1.554914   -0.544628
  H      1.340930   -1.109746    0.478807
  H      2.215369    0.814018   -0.034450

 Total Charge           Charge          ....    0
 Multiplicity           Mult            ....    1
 Number of Electrons    NEL             ....   30
 Basis Dimension        Dim             ....   76

ORBITAL ENERGIES
----------------

  NO   OCC          E(Eh)            E(eV)
   0   2.0000     -19.140448      -520.8381
   1   2.0000     -10.258806      -279.1563
   2   2.0000     -10.236515      -278.5497
   3   2.0000     -10.216391      -278.0021
   4   2.0000      -1.047907       -28.5150
   5   2.0000      -0.788904       -21.4672
   6   2.0000      -0.669535       -18.2190
   7   2.0000      -0.572259       -15.5720
   8   2.0000      -0.494818       -13.4647
   9   2.0000      -0.447954       -12.1895
  10   2.0000      -0.430067       -11.7027
  11   2.0000      -0.379314       -10.3216
  12   2.0000      -0.366453        -9.9717
  13   2.0000      -0.279458        -7.6044
  14   2.0000      -0.256911        -6.9909
  15   0.0000      -0.040016        -1.0889
  16   0.0000      -0.024100        -0.6558
  17   0.0000       0.056557         1.5390
  18   0.0000       0.072652         1.9770
  19   0.0000       0.117647         3.2013

MULLIKEN ATOMIC CHARGES
-----------------------
   0 C :    0.337463
   1 O :   -0.201275
   2 C :   -0.109801
   3 C :   -0.104228
   4 H :   -0.101797
   5 H :    0.043350
   6 H :    0.063720
   7 H :    0.072569
Sum of atomic charges:   -0.0000000

LOEWDIN ATOMIC CHARGES
----------------------
   0 C :    0.012051
   1 O :    0.018274
   2 C :   -0.056638
   3 C :   -0.070278
   4 H :   -0.065443
   5 H :    0.050047
   6 H :    0.052616
   7 H :    0.059371

  Mayer bond orders larger than 0.100000
B(  0-C ,  1-O ) :   2.2274 B(  0-C ,  2-C ) :   1.0049 B(  0-C ,  4-H ) :   0.9403
B(  2-C ,  3-C ) :   1.9956 B(  2-C ,  5-H ) :   0.9296 B(  3-C ,  6-H ) :   0.9335
B(  3-C ,  7-H ) :   0.9339

-----------------------------------------------------------------------------
         ABSORPTION SPECTRUM VIA TRANSITION ELECTRIC DIPOLE MOMENTS
-----------------------------------------------------------------------------
State   Energy    Wavelength  fosc         T2        TX        TY        TZ
        (cm-1)      (nm)                 (au**2)    (au)      (au)      (au)
-----------------------------------------------------------------------------
   1   31802.8    314.4   0.000023753   0.00025  -0.00359   0.01456   0.00459

FINAL SINGLE POINT ENERGY      -191.561745763188

DIPOLE MOMENT
-------------
                                X             Y             Z
Electronic contribution:     -2.85811      -1.27762      -0.85453
Nuclear contribution   :      3.30435       1.93954       1.37665
                        -----------------------------------------
Total Dipole Moment    :      0.44624       0.66191       0.52212
                        -----------------------------------------
Magnitude (a.u.)       :      0.95387
Magnitude (Debye)      :      2.42455

Rotational constants in cm-1:     1.005771     0.164668     0.154083
Rotational constants in MHz : 30152.260580  4936.623835  4619.304117

                             ****ORCA TERMINATED NORMALLY****
TOTAL RUN TIME: 0 days 0 hours 3 minutes 18 seconds 346 msec
