                         Program Version 5.0.3 -  RELEASE  -
|  1> ! B3LYP cc-pVDZ
|  2> !TightSCF
|  3> %scf
|  4>  ConvForced true
|  5>  convergence tight
|  6>  MaxIter 500
|  7> end
|  8>
|  9> %tddft
| 10>  nroots 1
| 11> end
| 12>
| 13> # 	17400
| 14> * xyz 0 1
| 15> 		C   -1.255379  -0.259548   0.031807
| 16> 		O   -1.198510  -1.497504   0.006263
| 17> 		C   -0.116602   0.501465  -0.024201
| 18> 		C    1.263848  -0.017643  -0.011744
| 19> 		H   -2.037335   0.344603  -0.044002
| 20> 		H   -0.132301   1.532644  -0.017002
| 21> 		H    1.424917  -1.109277   0.003414
| 22> 		H    2.062777   0.468019   0.092661
| 23> *
| 24>
| 25>                          ****END OF INPUT****

CARTESIAN COORDINATES (ANGSTROEM)
---------------------------------
  C     -1.255379   -0.259548    0.031807
  O     -1.198510   -1.497504    0.006263
  C     -0.116602    0.501465   -0.024201
  C      1.263848   -0.017643   -0.011744
  H     -2.037335    0.344603   -0.044002
  H     -0.132301    1.532644   -0.017002
  H      1.424917   -1.109277    0.003414
  H      2.062777    0.468019    0.092661

 Total Charge           Charge          ....    0
 Multiplicity           Mult            ....    1
 Number of Electrons    NEL             ....   30
 Basis Dimension        Dim             ....   76

ORBITAL ENERGIES
----------------

  NO   OCC          E(Eh)            E(eV)
   0   2.0000     -19.128112      -520.5024
   1   2.0000     -10.254522      -279.0397
   2   2.0000     -10.221078      -278.1297
   3   2.0000     -10.204012      -277.6653
   4   2.0000      -1.024539       -27.8791
   5   2.0000      -0.789947       -21.4955
   6   2.0000      -0.696848       -18.9622
   7   2.0000      -0.570028       -15.5113
   8   2.0000      -0.514153       -13.9908
   9   2.0000      -0.436987       -11.8910
  10   2.0000      -0.434172       -11.8144
  11   2.0000      -0.391111       -10.6427
  12   2.0000      -0.379936       -10.3386
  13   2.0000      -0.267353        -7.2750
  14   2.0000      -0.252591        -6.8734
  15   0.0000      -0.095239        -2.5916
  16   0.0000       0.060953         1.6586
  17   0.0000       0.083679         2.2770
  18   0.0000       0.096346         2.6217
  19   0.0000       0.137605         3.7444

MULLIKEN ATOMIC CHARGES
-----------------------
   0 C :    0.275263
   1 O :   -0.228496
   2 C :   -0.108736
   3 C :    0.120742
   4 H :   -0.050451
   5 H :   -0.034194
   6 H :    0.047559
   7 H :   -0.021686
Sum of atomic charges:    0.0000000

LOEWDIN ATOMIC CHARGES
----------------------
   0 C :   -0.041886
   1 O :   -0.028049
   2 C :   -0.046751
   3 C :    0.105289
   4 H :   -0.016249
   5 H :    0.013247
   6 H :    0.038503
   7 H :   -0.024105

  Mayer bond orders larger than 0.100000
B(  0-C ,  1-O ) :   2.1211 B(  0-C ,  2-C ) :   1.1709 B(  0-C ,  4-H ) :   0.9277
B(  1-O ,  3-C ) :   0.1524 B(  2-C ,  3-C ) :   1.8680 B(  2-C ,  5-H ) :   0.9508
B(  3-C ,  6-H ) :   0.9587 B(  3-C ,  7-H ) :   0.9546

-----------------------------------------------------------------------------
         ABSORPTION SPECTRUM VIA TRANSITION ELECTRIC DIPOLE MOMENTS
-----------------------------------------------------------------------------
State   Energy    Wavelength  fosc         T2        TX        TY        TZ
        (cm-1)      (nm)                 (au**2)    (au)      (au)      (au)
-----------------------------------------------------------------------------
   1   22208.9    450.3   0.000008961   0.00013  -0.00885  -0.00442   0.00591

FINAL SINGLE POINT ENERGY      -191.641887238145

DIPOLE MOMENT
-------------
                                X             Y             Z
Electronic contribution:     -2.00698      -1.49639       0.00022
Nuclear contribution   :      2.50540       2.48270       0.02723
                        -----------------------------------------
Total Dipole Moment    :      0.49842       0.98631       0.02744
                        -----------------------------------------
Magnitude (a.u.)       :      1.10543
Magnitude (Debye)      :      2.80978

Rotational constants in cm-1:     0.715956     0.215338     0.165637
Rotational constants in MHz : 21463.812143  6455.660589  4965.675141

                             ****ORCA TERMINATED NORMALLY****
TOTAL RUN TIME: 0 days 0 hours 3 minutes 3 seconds 39 msec
