                         Program Version 5.0.3 -  RELEASE  -
|  1> ! HF-3c
|  2> !TightSCF
|  3> %scf
|  4>  ConvForced true
|  5>  convergence tight
|  6>  MaxIter 500
|  7> end
|  8>
|  9> %tddft
| 10>  nroots 1
| 11> end
| 12>
| 13> # 	7238
| 14> * xyz 0 1
| 15> 		C   -1.118257  -0.320338  -0.171762
| 16> 		O   -2.167689  -0.245093  -0.703377
| 17> 		C    0.095378   0.511880  -0.343607
| 18> 		C    1.282397   0.061385   0.285497
| 19> 		H   -1.249552  -0.951728   0.784226
| 20> 		H   -0.067439   1.239346  -1.131479
| 21> 		H    1.185541  -0.857163   1.032290
| 22> 		H    2.009359   0.638485   0.337946
| 23> *
| 24>
| 25>                          ****END OF INPUT****

CARTESIAN COORDINATES (ANGSTROEM)
---------------------------------
  C     -1.118257   -0.320338   -0.171762
  O     -2.167689   -0.245093   -0.703377
  C      0.095378    0.511880   -0.343607
  C      1.282397    0.061385    0.285497
  H     -1.249552   -0.951728    0.784226
  H     -0.067439    1.239346   -1.131479
  H      1.185541   -0.857163    1.032290
  H      2.009359    0.638485    0.337946

 Total Charge           Charge          ....    0
 Multiplicity           Mult            ....    1
 Number of Electrons    NEL             ....   30
 Basis Dimension        Dim             ....   24

ORBITAL ENERGIES
----------------

  NO   OCC          E(Eh)            E(eV)
   0   2.0000     -20.363830      -554.1280
   1   2.0000     -11.291438      -307.2557
   2   2.0000     -11.202931      -304.8472
   3   2.0000     -11.198338      -304.7223
   4   2.0000      -1.421676       -38.6858
   5   2.0000      -1.071074       -29.1454
   6   2.0000      -0.891501       -24.2590
   7   2.0000      -0.769796       -20.9472
   8   2.0000      -0.666564       -18.1381
   9   2.0000      -0.653056       -17.7706
  10   2.0000      -0.578943       -15.7538
  11   2.0000      -0.557293       -15.1647
  12   2.0000      -0.542907       -14.7732
  13   2.0000      -0.396321       -10.7845
  14   2.0000      -0.384652       -10.4669
  15   0.0000       0.114385         3.1126
  16   0.0000       0.289908         7.8888
  17   0.0000       0.508528        13.8378
  18   0.0000       0.577894        15.7253
  19   0.0000       0.645262        17.5585

MULLIKEN ATOMIC CHARGES
-----------------------
   0 C :    0.164825
   1 O :   -0.361778
   2 C :   -0.153627
   3 C :   -0.231714
   4 H :    0.124285
   5 H :    0.160882
   6 H :    0.157609
   7 H :    0.139519
Sum of atomic charges:    0.0000000

LOEWDIN ATOMIC CHARGES
----------------------
   0 C :    0.132855
   1 O :   -0.257209
   2 C :   -0.107192
   3 C :   -0.129521
   4 H :    0.065149
   5 H :    0.104853
   6 H :    0.113779
   7 H :    0.077286

  Mayer bond orders larger than 0.100000
B(  0-C ,  1-O ) :   1.9000 B(  0-C ,  2-C ) :   1.0265 B(  0-C ,  4-H ) :   0.9226
B(  2-C ,  3-C ) :   1.9312 B(  2-C ,  5-H ) :   0.9552 B(  3-C ,  6-H ) :   0.9599
B(  3-C ,  7-H ) :   0.9730

-----------------------------------------------------------------------------
         ABSORPTION SPECTRUM VIA TRANSITION ELECTRIC DIPOLE MOMENTS
-----------------------------------------------------------------------------
State   Energy    Wavelength  fosc         T2        TX        TY        TZ
        (cm-1)      (nm)                 (au**2)    (au)      (au)      (au)
-----------------------------------------------------------------------------
   1   31712.4    315.3   0.000389236   0.00404  -0.05860  -0.00925   0.02282

Dispersion correction           -0.025244514
FINAL SINGLE POINT ENERGY      -189.281271832972

DIPOLE MOMENT
-------------
                                X             Y             Z
Electronic contribution:     -2.74042      -0.13207      -1.31879
Nuclear contribution   :      3.72363       0.11574       1.82180
                        -----------------------------------------
Total Dipole Moment    :      0.98321      -0.01632       0.50301
                        -----------------------------------------
Magnitude (a.u.)       :      1.10453
Magnitude (Debye)      :      2.80750

Rotational constants in cm-1:     1.489750     0.153035     0.139476
Rotational constants in MHz : 44661.591777  4587.859737  4181.372510

                             ****ORCA TERMINATED NORMALLY****
TOTAL RUN TIME: 0 days 0 hours 0 minutes 11 seconds 183 msec
