                         Program Version 5.0.3 -  RELEASE  -
|  1> ! HF-3c
|  2> !TightSCF
|  3> %scf
|  4>  ConvForced true
|  5>  convergence tight
|  6>  MaxIter 500
|  7> end
|  8>
|  9> %tddft
| 10>  nroots 1
| 11> end
| 12>
| 13> # 	2780
| 14> * xyz 0 1
| 15> 		C   -1.251485  -0.288490  -0.009433
| 16> 		O   -1.157508  -1.471446   0.005428
| 17> 		C    0.036915   0.574373   0.056495
| 18> 		C    1.263848   0.028114  -0.033812
| 19> 		H   -2.245982  -0.026566  -0.124294
| 20> 		H   -0.043221   1.607045  -0.039447
| 21> 		H    1.245776  -1.111086  -0.033019
| 22> 		H    2.171080   0.649665   0.106527
| 23> *
| 24>
| 25>                          ****END OF INPUT****

CARTESIAN COORDINATES (ANGSTROEM)
---------------------------------
  C     -1.251485   -0.288490   -0.009433
  O     -1.157508   -1.471446    0.005428
  C      0.036915    0.574373    0.056495
  C      1.263848    0.028114   -0.033812
  H     -2.245982   -0.026566   -0.124294
  H     -0.043221    1.607045   -0.039447
  H      1.245776   -1.111086   -0.033019
  H      2.171080    0.649665    0.106527

 Total Charge           Charge          ....    0
 Multiplicity           Mult            ....    1
 Number of Electrons    NEL             ....   30
 Basis Dimension        Dim             ....   24

ORBITAL ENERGIES
----------------

  NO   OCC          E(Eh)            E(eV)
   0   2.0000     -20.365237      -554.1663
   1   2.0000     -11.299505      -307.4752
   2   2.0000     -11.183848      -304.3280
   3   2.0000     -11.182288      -304.2855
   4   2.0000      -1.424432       -38.7608
   5   2.0000      -1.062982       -28.9252
   6   2.0000      -0.871017       -23.7016
   7   2.0000      -0.765531       -20.8311
   8   2.0000      -0.711058       -19.3489
   9   2.0000      -0.601906       -16.3787
  10   2.0000      -0.599185       -16.3047
  11   2.0000      -0.546720       -14.8770
  12   2.0000      -0.523866       -14.2551
  13   2.0000      -0.416382       -11.3303
  14   2.0000      -0.390239       -10.6189
  15   0.0000       0.143636         3.9085
  16   0.0000       0.296314         8.0631
  17   0.0000       0.491198        13.3662
  18   0.0000       0.590963        16.0809
  19   0.0000       0.670042        18.2328

MULLIKEN ATOMIC CHARGES
-----------------------
   0 C :    0.146464
   1 O :   -0.356213
   2 C :   -0.174754
   3 C :   -0.218709
   4 H :    0.151909
   5 H :    0.136448
   6 H :    0.163712
   7 H :    0.151143
Sum of atomic charges:   -0.0000000

LOEWDIN ATOMIC CHARGES
----------------------
   0 C :    0.131326
   1 O :   -0.254435
   2 C :   -0.130031
   3 C :   -0.124652
   4 H :    0.080472
   5 H :    0.082130
   6 H :    0.113116
   7 H :    0.102075

  Mayer bond orders larger than 0.100000
B(  0-C ,  1-O ) :   1.9160 B(  0-C ,  2-C ) :   0.9935 B(  0-C ,  4-H ) :   0.9378
B(  2-C ,  3-C ) :   1.9632 B(  2-C ,  5-H ) :   0.9642 B(  3-C ,  6-H ) :   0.9535
B(  3-C ,  7-H ) :   0.9623

-----------------------------------------------------------------------------
         ABSORPTION SPECTRUM VIA TRANSITION ELECTRIC DIPOLE MOMENTS
-----------------------------------------------------------------------------
State   Energy    Wavelength  fosc         T2        TX        TY        TZ
        (cm-1)      (nm)                 (au**2)    (au)      (au)      (au)
-----------------------------------------------------------------------------
   1   33605.5    297.6   0.000048131   0.00047  -0.01537   0.00151   0.01526

Dispersion correction           -0.025572501
FINAL SINGLE POINT ENERGY      -189.317113796136

DIPOLE MOMENT
-------------
                                X             Y             Z
Electronic contribution:     -1.92491      -1.48356       0.06242
Nuclear contribution   :      2.16913       2.28087      -0.09499
                        -----------------------------------------
Total Dipole Moment    :      0.24422       0.79730      -0.03257
                        -----------------------------------------
Magnitude (a.u.)       :      0.83450
Magnitude (Debye)      :      2.12114

Rotational constants in cm-1:     0.778410     0.205545     0.162853
Rotational constants in MHz : 23336.134820  6162.073166  4882.200571

                             ****ORCA TERMINATED NORMALLY****
TOTAL RUN TIME: 0 days 0 hours 0 minutes 12 seconds 707 msec
