                         Program Version 5.0.3 -  RELEASE  -
|  1> ! B3LYP cc-pVDZ
|  2> !TightSCF
|  3> %scf
|  4>  ConvForced true
|  5>  convergence tight
|  6>  MaxIter 500
|  7> end
|  8>
|  9> %tddft
| 10>  nroots 1
| 11> end
| 12>
| 13> # 	16003
| 14> * xyz 0 1
| 15> 		C   -1.185313  -0.267341   0.037973
| 16> 		O   -1.198994  -1.428513  -0.247397
| 17> 		C    0.022231   0.547091  -0.063865
| 18> 		C    1.210176  -0.051491   0.077356
| 19> 		H   -2.137189   0.138877   0.349073
| 20> 		H   -0.115211   1.676940  -0.291224
| 21> 		H    1.393999  -1.085358   0.097280
| 22> 		H    2.048362   0.430871   0.008905
| 23> *
| 24>
| 25>                          ****END OF INPUT****

CARTESIAN COORDINATES (ANGSTROEM)
---------------------------------
  C     -1.185313   -0.267341    0.037973
  O     -1.198994   -1.428513   -0.247397
  C      0.022231    0.547091   -0.063865
  C      1.210176   -0.051491    0.077356
  H     -2.137189    0.138877    0.349073
  H     -0.115211    1.676940   -0.291224
  H      1.393999   -1.085358    0.097280
  H      2.048362    0.430871    0.008905

 Total Charge           Charge          ....    0
 Multiplicity           Mult            ....    1
 Number of Electrons    NEL             ....   30
 Basis Dimension        Dim             ....   76

ORBITAL ENERGIES
----------------

  NO   OCC          E(Eh)            E(eV)
   0   2.0000     -19.130555      -520.5689
   1   2.0000     -10.265661      -279.3428
   2   2.0000     -10.210518      -277.8423
   3   2.0000     -10.195876      -277.4439
   4   2.0000      -1.051835       -28.6219
   5   2.0000      -0.796168       -21.6648
   6   2.0000      -0.664916       -18.0933
   7   2.0000      -0.555660       -15.1203
   8   2.0000      -0.507215       -13.8020
   9   2.0000      -0.453800       -12.3485
  10   2.0000      -0.433187       -11.7876
  11   2.0000      -0.395439       -10.7605
  12   2.0000      -0.381867       -10.3911
  13   2.0000      -0.286649        -7.8001
  14   2.0000      -0.249777        -6.7968
  15   0.0000      -0.061602        -1.6763
  16   0.0000       0.044066         1.1991
  17   0.0000       0.075764         2.0616
  18   0.0000       0.103012         2.8031
  19   0.0000       0.117136         3.1874

MULLIKEN ATOMIC CHARGES
-----------------------
   0 C :    0.193850
   1 O :   -0.185326
   2 C :   -0.161069
   3 C :    0.168835
   4 H :   -0.033072
   5 H :    0.019088
   6 H :    0.019222
   7 H :   -0.021528
Sum of atomic charges:    0.0000000

LOEWDIN ATOMIC CHARGES
----------------------
   0 C :   -0.044558
   1 O :    0.007510
   2 C :   -0.069005
   3 C :    0.047520
   4 H :   -0.009687
   5 H :    0.043191
   6 H :    0.028169
   7 H :   -0.003140

  Mayer bond orders larger than 0.100000
B(  0-C ,  1-O ) :   2.2040 B(  0-C ,  2-C ) :   1.0402 B(  0-C ,  4-H ) :   0.9324
B(  2-C ,  3-C ) :   1.9789 B(  2-C ,  5-H ) :   0.9373 B(  3-C ,  6-H ) :   0.9462
B(  3-C ,  7-H ) :   0.9420

-----------------------------------------------------------------------------
         ABSORPTION SPECTRUM VIA TRANSITION ELECTRIC DIPOLE MOMENTS
-----------------------------------------------------------------------------
State   Energy    Wavelength  fosc         T2        TX        TY        TZ
        (cm-1)      (nm)                 (au**2)    (au)      (au)      (au)
-----------------------------------------------------------------------------
   1   28472.9    351.2   0.000034236   0.00040  -0.01686  -0.00104   0.01052

FINAL SINGLE POINT ENERGY      -191.653791867765

DIPOLE MOMENT
-------------
                                X             Y             Z
Electronic contribution:     -1.88150      -1.51536      -0.21590
Nuclear contribution   :      2.26912       2.34134       0.36357
                        -----------------------------------------
Total Dipole Moment    :      0.38762       0.82598       0.14767
                        -----------------------------------------
Magnitude (a.u.)       :      0.92428
Magnitude (Debye)      :      2.34933

Rotational constants in cm-1:     0.754845     0.217750     0.171637
Rotational constants in MHz : 22629.681607  6527.994647  5145.535193

                             ****ORCA TERMINATED NORMALLY****
TOTAL RUN TIME: 0 days 0 hours 3 minutes 26 seconds 672 msec
