                         Program Version 5.0.3 -  RELEASE  -
|  1> ! HF-3c
|  2> !TightSCF
|  3> %scf
|  4>  ConvForced true
|  5>  convergence tight
|  6>  MaxIter 500
|  7> end
|  8>
|  9> %tddft
| 10>  nroots 1
| 11> end
| 12>
| 13> # 	18226
| 14> * xyz 0 1
| 15> 		C   -1.178400  -0.338339   0.053967
| 16> 		O   -1.433094  -1.377726   0.598329
| 17> 		C   -0.025784   0.464374   0.201554
| 18> 		C    1.204912  -0.014178  -0.160267
| 19> 		H   -1.854755  -0.007659  -0.784543
| 20> 		H   -0.050635   1.621116   0.460918
| 21> 		H    1.301579  -1.092405  -0.323617
| 22> 		H    2.112686   0.720837  -0.102142
| 23> *
| 24>
| 25>                          ****END OF INPUT****

CARTESIAN COORDINATES (ANGSTROEM)
---------------------------------
  C     -1.178400   -0.338339    0.053967
  O     -1.433094   -1.377726    0.598329
  C     -0.025784    0.464374    0.201554
  C      1.204912   -0.014178   -0.160267
  H     -1.854755   -0.007659   -0.784543
  H     -0.050635    1.621116    0.460918
  H      1.301579   -1.092405   -0.323617
  H      2.112686    0.720837   -0.102142

 Total Charge           Charge          ....    0
 Multiplicity           Mult            ....    1
 Number of Electrons    NEL             ....   30
 Basis Dimension        Dim             ....   24

ORBITAL ENERGIES
----------------

  NO   OCC          E(Eh)            E(eV)
   0   2.0000     -20.370847      -554.3189
   1   2.0000     -11.301493      -307.5293
   2   2.0000     -11.183860      -304.3283
   3   2.0000     -11.177606      -304.1581
   4   2.0000      -1.410478       -38.3811
   5   2.0000      -1.074169       -29.2296
   6   2.0000      -0.886148       -24.1133
   7   2.0000      -0.736491       -20.0410
   8   2.0000      -0.691405       -18.8141
   9   2.0000      -0.613147       -16.6846
  10   2.0000      -0.599005       -16.2997
  11   2.0000      -0.539716       -14.6864
  12   2.0000      -0.495402       -13.4806
  13   2.0000      -0.413862       -11.2618
  14   2.0000      -0.383607       -10.4385
  15   0.0000       0.161088         4.3834
  16   0.0000       0.239468         6.5163
  17   0.0000       0.542196        14.7539
  18   0.0000       0.586276        15.9534
  19   0.0000       0.625073        17.0091

MULLIKEN ATOMIC CHARGES
-----------------------
   0 C :    0.160910
   1 O :   -0.346715
   2 C :   -0.171460
   3 C :   -0.219850
   4 H :    0.134424
   5 H :    0.152546
   6 H :    0.145054
   7 H :    0.145090
Sum of atomic charges:    0.0000000

LOEWDIN ATOMIC CHARGES
----------------------
   0 C :    0.143766
   1 O :   -0.250625
   2 C :   -0.135604
   3 C :   -0.134067
   4 H :    0.072465
   5 H :    0.108164
   6 H :    0.094625
   7 H :    0.101276

  Mayer bond orders larger than 0.100000
B(  0-C ,  1-O ) :   1.9201 B(  0-C ,  2-C ) :   1.0336 B(  0-C ,  4-H ) :   0.9112
B(  2-C ,  3-C ) :   1.9550 B(  2-C ,  5-H ) :   0.9455 B(  3-C ,  6-H ) :   0.9639
B(  3-C ,  7-H ) :   0.9623

-----------------------------------------------------------------------------
         ABSORPTION SPECTRUM VIA TRANSITION ELECTRIC DIPOLE MOMENTS
-----------------------------------------------------------------------------
State   Energy    Wavelength  fosc         T2        TX        TY        TZ
        (cm-1)      (nm)                 (au**2)    (au)      (au)      (au)
-----------------------------------------------------------------------------
   1   34365.6    291.0   0.000080066   0.00077  -0.02202  -0.00872   0.01435

Dispersion correction           -0.025368588
FINAL SINGLE POINT ENERGY      -189.303876228508

DIPOLE MOMENT
-------------
                                X             Y             Z
Electronic contribution:     -2.35231      -1.56481       0.90280
Nuclear contribution   :      2.83237       2.45157      -1.36361
                        -----------------------------------------
Total Dipole Moment    :      0.48005       0.88676      -0.46081
                        -----------------------------------------
Magnitude (a.u.)       :      1.10866
Magnitude (Debye)      :      2.81800

Rotational constants in cm-1:     0.868336     0.187567     0.163497
Rotational constants in MHz : 26032.060002  5623.109533  4901.521210

                             ****ORCA TERMINATED NORMALLY****
TOTAL RUN TIME: 0 days 0 hours 0 minutes 10 seconds 998 msec
