                         Program Version 5.0.3 -  RELEASE  -
|  1> ! B3LYP cc-pVDZ
|  2> !TightSCF
|  3> %scf
|  4>  ConvForced true
|  5>  convergence tight
|  6>  MaxIter 500
|  7> end
|  8>
|  9> %tddft
| 10>  nroots 1
| 11> end
| 12>
| 13> # 	10538
| 14> * xyz 0 1
| 15> 		C   -1.234942  -0.365347  -0.061747
| 16> 		O   -2.187228  -0.472693  -0.638380
| 17> 		C   -0.025112   0.441377  -0.371054
| 18> 		C    1.128890   0.262390   0.321064
| 19> 		H   -0.925922  -1.094997   0.675466
| 20> 		H   -0.023723   1.260087  -1.185439
| 21> 		H    1.208330  -0.693839   1.219836
| 22> 		H    1.991728   0.657744   0.105987
| 23> *
| 24>
| 25>                          ****END OF INPUT****

CARTESIAN COORDINATES (ANGSTROEM)
---------------------------------
  C     -1.234942   -0.365347   -0.061747
  O     -2.187228   -0.472693   -0.638380
  C     -0.025112    0.441377   -0.371054
  C      1.128890    0.262390    0.321064
  H     -0.925922   -1.094997    0.675466
  H     -0.023723    1.260087   -1.185439
  H      1.208330   -0.693839    1.219836
  H      1.991728    0.657744    0.105987

 Total Charge           Charge          ....    0
 Multiplicity           Mult            ....    1
 Number of Electrons    NEL             ....   30
 Basis Dimension        Dim             ....   76

ORBITAL ENERGIES
----------------

  NO   OCC          E(Eh)            E(eV)
   0   2.0000     -19.141188      -520.8582
   1   2.0000     -10.267465      -279.3919
   2   2.0000     -10.225524      -278.2506
   3   2.0000     -10.212463      -277.8952
   4   2.0000      -1.103391       -30.0248
   5   2.0000      -0.795514       -21.6470
   6   2.0000      -0.650030       -17.6882
   7   2.0000      -0.563077       -15.3221
   8   2.0000      -0.489293       -13.3144
   9   2.0000      -0.467275       -12.7152
  10   2.0000      -0.437427       -11.9030
  11   2.0000      -0.429254       -11.6806
  12   2.0000      -0.368004       -10.0139
  13   2.0000      -0.293708        -7.9922
  14   2.0000      -0.254228        -6.9179
  15   0.0000      -0.058064        -1.5800
  16   0.0000       0.044271         1.2047
  17   0.0000       0.061195         1.6652
  18   0.0000       0.082102         2.2341
  19   0.0000       0.129208         3.5159

MULLIKEN ATOMIC CHARGES
-----------------------
   0 C :    0.207669
   1 O :   -0.107778
   2 C :   -0.139698
   3 C :    0.042566
   4 H :   -0.067785
   5 H :    0.018949
   6 H :    0.051629
   7 H :   -0.005553
Sum of atomic charges:   -0.0000000

LOEWDIN ATOMIC CHARGES
----------------------
   0 C :   -0.109231
   1 O :    0.100681
   2 C :   -0.066281
   3 C :    0.015029
   4 H :   -0.022873
   5 H :    0.040966
   6 H :    0.052714
   7 H :   -0.011004

  Mayer bond orders larger than 0.100000
B(  0-C ,  1-O ) :   2.2980 B(  0-C ,  2-C ) :   1.0303 B(  0-C ,  4-H ) :   0.8994
B(  2-C ,  3-C ) :   1.9402 B(  2-C ,  5-H ) :   0.9368 B(  3-C ,  6-H ) :   0.9294
B(  3-C ,  7-H ) :   0.9422

-----------------------------------------------------------------------------
         ABSORPTION SPECTRUM VIA TRANSITION ELECTRIC DIPOLE MOMENTS
-----------------------------------------------------------------------------
State   Energy    Wavelength  fosc         T2        TX        TY        TZ
        (cm-1)      (nm)                 (au**2)    (au)      (au)      (au)
-----------------------------------------------------------------------------
   1   31017.8    322.4   0.000034999   0.00037  -0.00302   0.01903   0.00048

FINAL SINGLE POINT ENERGY      -191.613569862396

DIPOLE MOMENT
-------------
                                X             Y             Z
Electronic contribution:     -3.48136      -0.13657      -1.20767
Nuclear contribution   :      4.38392       0.34035       1.47724
                        -----------------------------------------
Total Dipole Moment    :      0.90257       0.20378       0.26957
                        -----------------------------------------
Magnitude (a.u.)       :      0.96375
Magnitude (Debye)      :      2.44966

Rotational constants in cm-1:     1.529679     0.157030     0.142867
Rotational constants in MHz : 45858.622320  4707.644128  4283.059261

                             ****ORCA TERMINATED NORMALLY****
TOTAL RUN TIME: 0 days 0 hours 3 minutes 21 seconds 402 msec
