                         Program Version 5.0.3 -  RELEASE  -
|  1> ! HF-3c
|  2> !TightSCF
|  3> %scf
|  4>  ConvForced true
|  5>  convergence tight
|  6>  MaxIter 500
|  7> end
|  8>
|  9> %tddft
| 10>  nroots 1
| 11> end
| 12>
| 13> # 	2147
| 14> * xyz 0 1
| 15> 		C   -1.231560  -0.352933  -0.042342
| 16> 		O   -1.373098  -1.387994   0.535296
| 17> 		C    0.004970   0.437167   0.216048
| 18> 		C    1.191773  -0.042220  -0.147015
| 19> 		H   -1.922793   0.265443  -0.763002
| 20> 		H   -0.144534   1.646365   0.467248
| 21> 		H    1.295688  -0.999860  -0.208761
| 22> 		H    2.205178   0.430802  -0.103125
| 23> *
| 24>
| 25>                          ****END OF INPUT****

CARTESIAN COORDINATES (ANGSTROEM)
---------------------------------
  C     -1.231560   -0.352933   -0.042342
  O     -1.373098   -1.387994    0.535296
  C      0.004970    0.437167    0.216048
  C      1.191773   -0.042220   -0.147015
  H     -1.922793    0.265443   -0.763002
  H     -0.144534    1.646365    0.467248
  H      1.295688   -0.999860   -0.208761
  H      2.205178    0.430802   -0.103125

 Total Charge           Charge          ....    0
 Multiplicity           Mult            ....    1
 Number of Electrons    NEL             ....   30
 Basis Dimension        Dim             ....   24

ORBITAL ENERGIES
----------------

  NO   OCC          E(Eh)            E(eV)
   0   2.0000     -20.382840      -554.6453
   1   2.0000     -11.307833      -307.7018
   2   2.0000     -11.184847      -304.3551
   3   2.0000     -11.172193      -304.0108
   4   2.0000      -1.421893       -38.6917
   5   2.0000      -1.072517       -29.1847
   6   2.0000      -0.888573       -24.1793
   7   2.0000      -0.744143       -20.2492
   8   2.0000      -0.684162       -18.6170
   9   2.0000      -0.617294       -16.7974
  10   2.0000      -0.614432       -16.7195
  11   2.0000      -0.540884       -14.7182
  12   2.0000      -0.506365       -13.7789
  13   2.0000      -0.407937       -11.1005
  14   2.0000      -0.391143       -10.6435
  15   0.0000       0.163685         4.4541
  16   0.0000       0.251396         6.8408
  17   0.0000       0.500940        13.6313
  18   0.0000       0.538350        14.6492
  19   0.0000       0.595525        16.2051

MULLIKEN ATOMIC CHARGES
-----------------------
   0 C :    0.181543
   1 O :   -0.346856
   2 C :   -0.133376
   3 C :   -0.273592
   4 H :    0.147195
   5 H :    0.142073
   6 H :    0.138088
   7 H :    0.144924
Sum of atomic charges:   -0.0000000

LOEWDIN ATOMIC CHARGES
----------------------
   0 C :    0.154430
   1 O :   -0.245938
   2 C :   -0.101391
   3 C :   -0.174384
   4 H :    0.088082
   5 H :    0.102448
   6 H :    0.079357
   7 H :    0.097396

  Mayer bond orders larger than 0.100000
B(  0-C ,  1-O ) :   1.9428 B(  0-C ,  2-C ) :   0.9954 B(  0-C ,  4-H ) :   0.9037
B(  2-C ,  3-C ) :   1.9805 B(  2-C ,  5-H ) :   0.9461 B(  3-C ,  6-H ) :   0.9664
B(  3-C ,  7-H ) :   0.9622

-----------------------------------------------------------------------------
         ABSORPTION SPECTRUM VIA TRANSITION ELECTRIC DIPOLE MOMENTS
-----------------------------------------------------------------------------
State   Energy    Wavelength  fosc         T2        TX        TY        TZ
        (cm-1)      (nm)                 (au**2)    (au)      (au)      (au)
-----------------------------------------------------------------------------
   1   35062.3    285.2   0.000123354   0.00116   0.01171   0.02124   0.02387

Dispersion correction           -0.025351656
FINAL SINGLE POINT ENERGY      -189.279877780421

DIPOLE MOMENT
-------------
                                X             Y             Z
Electronic contribution:     -2.55426      -1.67346       0.66740
Nuclear contribution   :      2.73186       2.60662      -1.11805
                        -----------------------------------------
Total Dipole Moment    :      0.17760       0.93316      -0.45065
                        -----------------------------------------
Magnitude (a.u.)       :      1.05139
Magnitude (Debye)      :      2.67243

Rotational constants in cm-1:     0.808177     0.194548     0.166834
Rotational constants in MHz : 24228.531941  5832.416077  5001.564919

                             ****ORCA TERMINATED NORMALLY****
TOTAL RUN TIME: 0 days 0 hours 0 minutes 16 seconds 76 msec
