                         Program Version 5.0.3 -  RELEASE  -
|  1> ! HF-3c
|  2> !TightSCF
|  3> %scf
|  4>  ConvForced true
|  5>  convergence tight
|  6>  MaxIter 500
|  7> end
|  8>
|  9> %tddft
| 10>  nroots 1
| 11> end
| 12>
| 13> # 	21272
| 14> * xyz 0 1
| 15> 		C   -0.624369  -0.410278  -0.019257
| 16> 		O   -0.609543  -1.659071   0.028741
| 17> 		C    0.656736   0.350956  -0.001320
| 18> 		C    1.869728  -0.076206  -0.023390
| 19> 		H   -1.552412   0.119055  -0.212920
| 20> 		H    0.588547   1.480715   0.267277
| 21> 		H    2.269159  -1.005618  -0.136260
| 22> 		H    2.680728   0.636211   0.176124
| 23> *
| 24>
| 25>                          ****END OF INPUT****

CARTESIAN COORDINATES (ANGSTROEM)
---------------------------------
  C     -0.624369   -0.410278   -0.019257
  O     -0.609543   -1.659071    0.028741
  C      0.656736    0.350956   -0.001320
  C      1.869728   -0.076206   -0.023390
  H     -1.552412    0.119055   -0.212920
  H      0.588547    1.480715    0.267277
  H      2.269159   -1.005618   -0.136260
  H      2.680728    0.636211    0.176124

 Total Charge           Charge          ....    0
 Multiplicity           Mult            ....    1
 Number of Electrons    NEL             ....   30
 Basis Dimension        Dim             ....   24

ORBITAL ENERGIES
----------------

  NO   OCC          E(Eh)            E(eV)
   0   2.0000     -20.363581      -554.1212
   1   2.0000     -11.292572      -307.2865
   2   2.0000     -11.195462      -304.6440
   3   2.0000     -11.191536      -304.5372
   4   2.0000      -1.378054       -37.4988
   5   2.0000      -1.086162       -29.5560
   6   2.0000      -0.899124       -24.4664
   7   2.0000      -0.762180       -20.7400
   8   2.0000      -0.698181       -18.9985
   9   2.0000      -0.620951       -16.8969
  10   2.0000      -0.593685       -16.1550
  11   2.0000      -0.528738       -14.3877
  12   2.0000      -0.511059       -13.9066
  13   2.0000      -0.419754       -11.4221
  14   2.0000      -0.404471       -11.0062
  15   0.0000       0.128137         3.4868
  16   0.0000       0.306342         8.3360
  17   0.0000       0.513283        13.9672
  18   0.0000       0.586088        15.9483
  19   0.0000       0.705155        19.1882

MULLIKEN ATOMIC CHARGES
-----------------------
   0 C :    0.146188
   1 O :   -0.331846
   2 C :   -0.160952
   3 C :   -0.237529
   4 H :    0.146225
   5 H :    0.142962
   6 H :    0.151108
   7 H :    0.143844
Sum of atomic charges:   -0.0000000

LOEWDIN ATOMIC CHARGES
----------------------
   0 C :    0.139308
   1 O :   -0.248178
   2 C :   -0.119942
   3 C :   -0.135593
   4 H :    0.081423
   5 H :    0.096792
   6 H :    0.091906
   7 H :    0.094284

  Mayer bond orders larger than 0.100000
B(  0-C ,  1-O ) :   1.9106 B(  0-C ,  2-C ) :   1.0229 B(  0-C ,  4-H ) :   0.9323
B(  2-C ,  3-C ) :   1.9669 B(  2-C ,  5-H ) :   0.9501 B(  3-C ,  6-H ) :   0.9617
B(  3-C ,  7-H ) :   0.9600

-----------------------------------------------------------------------------
         ABSORPTION SPECTRUM VIA TRANSITION ELECTRIC DIPOLE MOMENTS
-----------------------------------------------------------------------------
State   Energy    Wavelength  fosc         T2        TX        TY        TZ
        (cm-1)      (nm)                 (au**2)    (au)      (au)      (au)
-----------------------------------------------------------------------------
   1   29623.8    337.6   0.000175635   0.00195   0.04397  -0.00207   0.00378

Dispersion correction           -0.025220827
FINAL SINGLE POINT ENERGY      -189.340302219430

DIPOLE MOMENT
-------------
                                X             Y             Z
Electronic contribution:     -2.33409      -1.93515      -0.07886
Nuclear contribution   :      2.58066       2.93953       0.08703
                        -----------------------------------------
Total Dipole Moment    :      0.24657       1.00438       0.00817
                        -----------------------------------------
Magnitude (a.u.)       :      1.03423
Magnitude (Debye)      :      2.62880

Rotational constants in cm-1:     0.801361     0.197265     0.158871
Rotational constants in MHz : 24024.198605  5913.867411  4762.829262

                             ****ORCA TERMINATED NORMALLY****
TOTAL RUN TIME: 0 days 0 hours 0 minutes 11 seconds 439 msec
