                         Program Version 5.0.3 -  RELEASE  -
|  1> ! B3LYP cc-pVDZ
|  2> !TightSCF
|  3> %scf
|  4>  ConvForced true
|  5>  convergence tight
|  6>  MaxIter 500
|  7> end
|  8>
|  9> %tddft
| 10>  nroots 1
| 11> end
| 12>
| 13> # 	15237
| 14> * xyz 0 1
| 15> 		C   -1.205557  -0.224090  -0.114729
| 16> 		O   -2.063895  -0.149524  -0.786469
| 17> 		C    0.058288   0.568688  -0.223016
| 18> 		C    1.298956   0.008435   0.204327
| 19> 		H   -1.236611  -0.974429   0.708778
| 20> 		H   -0.102134   1.349803  -0.924105
| 21> 		H    1.133785  -0.993180   0.982526
| 22> 		H    2.146377   0.444086   0.162546
| 23> *
| 24>
| 25>                          ****END OF INPUT****

CARTESIAN COORDINATES (ANGSTROEM)
---------------------------------
  C     -1.205557   -0.224090   -0.114729
  O     -2.063895   -0.149524   -0.786469
  C      0.058288    0.568688   -0.223016
  C      1.298956    0.008435    0.204327
  H     -1.236611   -0.974429    0.708778
  H     -0.102134    1.349803   -0.924105
  H      1.133785   -0.993180    0.982526
  H      2.146377    0.444086    0.162546

 Total Charge           Charge          ....    0
 Multiplicity           Mult            ....    1
 Number of Electrons    NEL             ....   30
 Basis Dimension        Dim             ....   76

ORBITAL ENERGIES
----------------

  NO   OCC          E(Eh)            E(eV)
   0   2.0000     -19.139396      -520.8095
   1   2.0000     -10.264772      -279.3187
   2   2.0000     -10.229821      -278.3676
   3   2.0000     -10.210663      -277.8463
   4   2.0000      -1.120967       -30.5031
   5   2.0000      -0.780106       -21.2278
   6   2.0000      -0.650320       -17.6961
   7   2.0000      -0.569049       -15.4846
   8   2.0000      -0.488662       -13.2972
   9   2.0000      -0.468341       -12.7442
  10   2.0000      -0.447197       -12.1688
  11   2.0000      -0.432801       -11.7771
  12   2.0000      -0.379824       -10.3355
  13   2.0000      -0.282938        -7.6991
  14   2.0000      -0.250900        -6.8273
  15   0.0000      -0.061597        -1.6761
  16   0.0000       0.052600         1.4313
  17   0.0000       0.056728         1.5436
  18   0.0000       0.100026         2.7218
  19   0.0000       0.122259         3.3268

MULLIKEN ATOMIC CHARGES
-----------------------
   0 C :    0.142568
   1 O :   -0.082126
   2 C :   -0.076909
   3 C :    0.047418
   4 H :   -0.072948
   5 H :   -0.006506
   6 H :    0.058653
   7 H :   -0.010150
Sum of atomic charges:   -0.0000000

LOEWDIN ATOMIC CHARGES
----------------------
   0 C :   -0.120897
   1 O :    0.122934
   2 C :   -0.045701
   3 C :    0.020578
   4 H :   -0.029391
   5 H :    0.016723
   6 H :    0.058640
   7 H :   -0.022887

  Mayer bond orders larger than 0.100000
B(  0-C ,  1-O ) :   2.3211 B(  0-C ,  2-C ) :   1.0315 B(  0-C ,  4-H ) :   0.8950
B(  2-C ,  3-C ) :   1.9191 B(  2-C ,  5-H ) :   0.9415 B(  3-C ,  6-H ) :   0.9378
B(  3-C ,  7-H ) :   0.9531

-----------------------------------------------------------------------------
         ABSORPTION SPECTRUM VIA TRANSITION ELECTRIC DIPOLE MOMENTS
-----------------------------------------------------------------------------
State   Energy    Wavelength  fosc         T2        TX        TY        TZ
        (cm-1)      (nm)                 (au**2)    (au)      (au)      (au)
-----------------------------------------------------------------------------
   1   30510.0    327.8   0.001778745   0.01919   0.13584   0.00850   0.02585

FINAL SINGLE POINT ENERGY      -191.597030447937

DIPOLE MOMENT
-------------
                                X             Y             Z
Electronic contribution:     -2.99342       0.35840      -1.40742
Nuclear contribution   :      3.75589      -0.27761       1.75090
                        -----------------------------------------
Total Dipole Moment    :      0.76246       0.08079       0.34348
                        -----------------------------------------
Magnitude (a.u.)       :      0.84015
Magnitude (Debye)      :      2.13550

Rotational constants in cm-1:     1.422516     0.158034     0.145162
Rotational constants in MHz : 42645.948664  4737.746038  4351.842303

                             ****ORCA TERMINATED NORMALLY****
TOTAL RUN TIME: 0 days 0 hours 3 minutes 21 seconds 174 msec
