                         Program Version 5.0.3 -  RELEASE  -
|  1> ! B3LYP cc-pVDZ
|  2> !TightSCF
|  3> %scf
|  4>  ConvForced true
|  5>  convergence tight
|  6>  MaxIter 500
|  7> end
|  8>
|  9> %tddft
| 10>  nroots 1
| 11> end
| 12>
| 13> # 	12220
| 14> * xyz 0 1
| 15> 		C   -1.236370  -0.282131  -0.060769
| 16> 		O   -1.201142  -1.504413  -0.073609
| 17> 		C   -0.043082   0.636155  -0.132663
| 18> 		C    1.188028   0.000329  -0.041246
| 19> 		H   -2.144807   0.156311   0.293650
| 20> 		H   -0.295018   1.602778   0.060722
| 21> 		H    1.347484  -1.080920   0.216148
| 22> 		H    2.352598   0.508451  -0.208669
| 23> *
| 24>
| 25>                          ****END OF INPUT****

CARTESIAN COORDINATES (ANGSTROEM)
---------------------------------
  C     -1.236370   -0.282131   -0.060769
  O     -1.201142   -1.504413   -0.073609
  C     -0.043082    0.636155   -0.132663
  C      1.188028    0.000329   -0.041246
  H     -2.144807    0.156311    0.293650
  H     -0.295018    1.602778    0.060722
  H      1.347484   -1.080920    0.216148
  H      2.352598    0.508451   -0.208669

 Total Charge           Charge          ....    0
 Multiplicity           Mult            ....    1
 Number of Electrons    NEL             ....   30
 Basis Dimension        Dim             ....   76

ORBITAL ENERGIES
----------------

  NO   OCC          E(Eh)            E(eV)
   0   2.0000     -19.134237      -520.6691
   1   2.0000     -10.269571      -279.4492
   2   2.0000     -10.243230      -278.7325
   3   2.0000     -10.211949      -277.8813
   4   2.0000      -1.036198       -28.1964
   5   2.0000      -0.784925       -21.3589
   6   2.0000      -0.650312       -17.6959
   7   2.0000      -0.551682       -15.0120
   8   2.0000      -0.496306       -13.5052
   9   2.0000      -0.450838       -12.2679
  10   2.0000      -0.419632       -11.4188
  11   2.0000      -0.393714       -10.7135
  12   2.0000      -0.364716        -9.9244
  13   2.0000      -0.278941        -7.5904
  14   2.0000      -0.250722        -6.8225
  15   0.0000      -0.079095        -2.1523
  16   0.0000       0.037896         1.0312
  17   0.0000       0.053116         1.4454
  18   0.0000       0.081979         2.2308
  19   0.0000       0.125433         3.4132

MULLIKEN ATOMIC CHARGES
-----------------------
   0 C :    0.185728
   1 O :   -0.205654
   2 C :   -0.037770
   3 C :   -0.029870
   4 H :   -0.025428
   5 H :   -0.018695
   6 H :    0.069835
   7 H :    0.061854
Sum of atomic charges:   -0.0000000

LOEWDIN ATOMIC CHARGES
----------------------
   0 C :   -0.023214
   1 O :   -0.018945
   2 C :   -0.071494
   3 C :    0.021805
   4 H :   -0.010423
   5 H :    0.009996
   6 H :    0.039953
   7 H :    0.052321

  Mayer bond orders larger than 0.100000
B(  0-C ,  1-O ) :   2.1664 B(  0-C ,  2-C ) :   1.0603 B(  0-C ,  4-H ) :   0.9286
B(  2-C ,  3-C ) :   1.8880 B(  2-C ,  5-H ) :   0.9568 B(  3-C ,  6-H ) :   0.9423
B(  3-C ,  7-H ) :   0.9510

-----------------------------------------------------------------------------
         ABSORPTION SPECTRUM VIA TRANSITION ELECTRIC DIPOLE MOMENTS
-----------------------------------------------------------------------------
State   Energy    Wavelength  fosc         T2        TX        TY        TZ
        (cm-1)      (nm)                 (au**2)    (au)      (au)      (au)
-----------------------------------------------------------------------------
   1   25385.3    393.9   0.000178525   0.00232   0.03460   0.01371   0.03050

FINAL SINGLE POINT ENERGY      -191.651712512986

DIPOLE MOMENT
-------------
                                X             Y             Z
Electronic contribution:     -2.07359      -1.48193      -0.44765
Nuclear contribution   :      2.44439       2.34206       0.58244
                        -----------------------------------------
Total Dipole Moment    :      0.37080       0.86013       0.13479
                        -----------------------------------------
Magnitude (a.u.)       :      0.94630
Magnitude (Debye)      :      2.40531

Rotational constants in cm-1:     0.696964     0.209659     0.162118
Rotational constants in MHz : 20894.441200  6285.407109  4860.175398

                             ****ORCA TERMINATED NORMALLY****
TOTAL RUN TIME: 0 days 0 hours 3 minutes 21 seconds 715 msec
