                         Program Version 5.0.3 -  RELEASE  -
|  1> ! B3LYP cc-pVDZ
|  2> !TightSCF
|  3> %scf
|  4>  ConvForced true
|  5>  convergence tight
|  6>  MaxIter 500
|  7> end
|  8>
|  9> %tddft
| 10>  nroots 1
| 11> end
| 12>
| 13> # 	17599
| 14> * xyz 0 1
| 15> 		C   -1.263897  -0.393629  -0.092428
| 16> 		O   -2.245451  -0.262958  -0.567845
| 17> 		C   -0.079897   0.376991  -0.254995
| 18> 		C    1.175722   0.065606   0.287014
| 19> 		H   -1.104376  -1.090341   0.566267
| 20> 		H   -0.111526   1.432280  -1.024348
| 21> 		H    1.373808  -0.707827   1.022062
| 22> 		H    2.223857   0.616067   0.019102
| 23> *
| 24>
| 25>                          ****END OF INPUT****

CARTESIAN COORDINATES (ANGSTROEM)
---------------------------------
  C     -1.263897   -0.393629   -0.092428
  O     -2.245451   -0.262958   -0.567845
  C     -0.079897    0.376991   -0.254995
  C      1.175722    0.065606    0.287014
  H     -1.104376   -1.090341    0.566267
  H     -0.111526    1.432280   -1.024348
  H      1.373808   -0.707827    1.022062
  H      2.223857    0.616067    0.019102

 Total Charge           Charge          ....    0
 Multiplicity           Mult            ....    1
 Number of Electrons    NEL             ....   30
 Basis Dimension        Dim             ....   76

ORBITAL ENERGIES
----------------

  NO   OCC          E(Eh)            E(eV)
   0   2.0000     -19.131383      -520.5914
   1   2.0000     -10.250522      -278.9309
   2   2.0000     -10.237874      -278.5867
   3   2.0000     -10.221999      -278.1547
   4   2.0000      -1.111372       -30.2420
   5   2.0000      -0.789452       -21.4821
   6   2.0000      -0.656125       -17.8541
   7   2.0000      -0.575800       -15.6683
   8   2.0000      -0.494508       -13.4563
   9   2.0000      -0.461883       -12.5685
  10   2.0000      -0.437656       -11.9092
  11   2.0000      -0.417646       -11.3647
  12   2.0000      -0.364949        -9.9308
  13   2.0000      -0.285896        -7.7796
  14   2.0000      -0.251902        -6.8546
  15   0.0000      -0.065292        -1.7767
  16   0.0000       0.042098         1.1456
  17   0.0000       0.067976         1.8497
  18   0.0000       0.079328         2.1586
  19   0.0000       0.127759         3.4765

MULLIKEN ATOMIC CHARGES
-----------------------
   0 C :    0.285425
   1 O :   -0.105181
   2 C :   -0.180251
   3 C :   -0.024835
   4 H :   -0.117486
   5 H :    0.035332
   6 H :    0.037176
   7 H :    0.069819
Sum of atomic charges:    0.0000000

LOEWDIN ATOMIC CHARGES
----------------------
   0 C :   -0.138175
   1 O :    0.123202
   2 C :   -0.069221
   3 C :   -0.006581
   4 H :   -0.037625
   5 H :    0.050250
   6 H :    0.022084
   7 H :    0.056066

  Mayer bond orders larger than 0.100000
B(  0-C ,  1-O ) :   2.3069 B(  0-C ,  2-C ) :   1.0654 B(  0-C ,  4-H ) :   0.9120
B(  2-C ,  3-C ) :   1.8908 B(  2-C ,  5-H ) :   0.9174 B(  3-C ,  6-H ) :   0.9466
B(  3-C ,  7-H ) :   0.9494

-----------------------------------------------------------------------------
         ABSORPTION SPECTRUM VIA TRANSITION ELECTRIC DIPOLE MOMENTS
-----------------------------------------------------------------------------
State   Energy    Wavelength  fosc         T2        TX        TY        TZ
        (cm-1)      (nm)                 (au**2)    (au)      (au)      (au)
-----------------------------------------------------------------------------
   1   29325.0    341.0   0.000034732   0.00039  -0.00827  -0.00801   0.01604

FINAL SINGLE POINT ENERGY      -191.596425119817

DIPOLE MOMENT
-------------
                                X             Y             Z
Electronic contribution:     -3.61146      -0.50388      -0.78380
Nuclear contribution   :      4.58978       0.45707       1.15841
                        -----------------------------------------
Total Dipole Moment    :      0.97833      -0.04681       0.37461
                        -----------------------------------------
Magnitude (a.u.)       :      1.04864
Magnitude (Debye)      :      2.66543

Rotational constants in cm-1:     1.698179     0.154760     0.142067
Rotational constants in MHz : 50910.119649  4639.576306  4259.064772

                             ****ORCA TERMINATED NORMALLY****
TOTAL RUN TIME: 0 days 0 hours 3 minutes 20 seconds 901 msec
