                         Program Version 5.0.3 -  RELEASE  -
|  1> ! HF-3c
|  2> !TightSCF
|  3> %scf
|  4>  ConvForced true
|  5>  convergence tight
|  6>  MaxIter 500
|  7> end
|  8>
|  9> %tddft
| 10>  nroots 1
| 11> end
| 12>
| 13> # 	25958
| 14> * xyz 0 1
| 15> 		C   -0.631012  -0.452715  -0.028525
| 16> 		O   -0.525783  -1.581544   0.017163
| 17> 		C    0.606321   0.423289  -0.038909
| 18> 		C    1.840611  -0.161322   0.019277
| 19> 		H   -1.731655   0.020947   0.157895
| 20> 		H    0.637930   1.478449   0.200288
| 21> 		H    1.887423  -1.198396  -0.138232
| 22> 		H    2.845025   0.311190   0.095162
| 23> *
| 24>
| 25>                          ****END OF INPUT****

CARTESIAN COORDINATES (ANGSTROEM)
---------------------------------
  C     -0.631012   -0.452715   -0.028525
  O     -0.525783   -1.581544    0.017163
  C      0.606321    0.423289   -0.038909
  C      1.840611   -0.161322    0.019277
  H     -1.731655    0.020947    0.157895
  H      0.637930    1.478449    0.200288
  H      1.887423   -1.198396   -0.138232
  H      2.845025    0.311190    0.095162

 Total Charge           Charge          ....    0
 Multiplicity           Mult            ....    1
 Number of Electrons    NEL             ....   30
 Basis Dimension        Dim             ....   24

ORBITAL ENERGIES
----------------

  NO   OCC          E(Eh)            E(eV)
   0   2.0000     -20.386880      -554.7552
   1   2.0000     -11.317634      -307.9685
   2   2.0000     -11.181004      -304.2506
   3   2.0000     -11.177174      -304.1464
   4   2.0000      -1.465082       -39.8669
   5   2.0000      -1.059455       -28.8292
   6   2.0000      -0.865141       -23.5417
   7   2.0000      -0.743728       -20.2379
   8   2.0000      -0.713321       -19.4104
   9   2.0000      -0.618022       -16.8172
  10   2.0000      -0.595165       -16.1953
  11   2.0000      -0.575671       -15.6648
  12   2.0000      -0.524259       -14.2658
  13   2.0000      -0.403933       -10.9916
  14   2.0000      -0.385406       -10.4874
  15   0.0000       0.146239         3.9794
  16   0.0000       0.305740         8.3196
  17   0.0000       0.482286        13.1237
  18   0.0000       0.615644        16.7525
  19   0.0000       0.639082        17.3903

MULLIKEN ATOMIC CHARGES
-----------------------
   0 C :    0.200680
   1 O :   -0.371484
   2 C :   -0.179557
   3 C :   -0.218946
   4 H :    0.134749
   5 H :    0.140930
   6 H :    0.147032
   7 H :    0.146596
Sum of atomic charges:   -0.0000000

LOEWDIN ATOMIC CHARGES
----------------------
   0 C :    0.150896
   1 O :   -0.248651
   2 C :   -0.141194
   3 C :   -0.117634
   4 H :    0.077532
   5 H :    0.089826
   6 H :    0.091299
   7 H :    0.097926

  Mayer bond orders larger than 0.100000
B(  0-C ,  1-O ) :   1.9287 B(  0-C ,  2-C ) :   0.9903 B(  0-C ,  4-H ) :   0.9020
B(  2-C ,  3-C ) :   1.9540 B(  2-C ,  5-H ) :   0.9627 B(  3-C ,  6-H ) :   0.9635
B(  3-C ,  7-H ) :   0.9660

-----------------------------------------------------------------------------
         ABSORPTION SPECTRUM VIA TRANSITION ELECTRIC DIPOLE MOMENTS
-----------------------------------------------------------------------------
State   Energy    Wavelength  fosc         T2        TX        TY        TZ
        (cm-1)      (nm)                 (au**2)    (au)      (au)      (au)
-----------------------------------------------------------------------------
   1   37318.8    268.0   0.000044567   0.00039   0.01287   0.00118   0.01504

Dispersion correction           -0.025595830
FINAL SINGLE POINT ENERGY      -189.294205574933

DIPOLE MOMENT
-------------
                                X             Y             Z
Electronic contribution:     -2.04371      -1.53780      -0.24104
Nuclear contribution   :      2.25910       2.36381       0.29496
                        -----------------------------------------
Total Dipole Moment    :      0.21539       0.82601       0.05391
                        -----------------------------------------
Magnitude (a.u.)       :      0.85533
Magnitude (Debye)      :      2.17408

Rotational constants in cm-1:     0.758962     0.215951     0.168556
Rotational constants in MHz : 22753.098151  6474.038866  5053.186957

                             ****ORCA TERMINATED NORMALLY****
TOTAL RUN TIME: 0 days 0 hours 0 minutes 10 seconds 15 msec
