                         Program Version 5.0.3 -  RELEASE  -
|  1> ! B3LYP cc-pVDZ
|  2> !TightSCF
|  3> %scf
|  4>  ConvForced true
|  5>  convergence tight
|  6>  MaxIter 500
|  7> end
|  8>
|  9> %tddft
| 10>  nroots 1
| 11> end
| 12>
| 13> # 	27643
| 14> * xyz 0 1
| 15> 		C   -0.647738  -0.464362   0.070983
| 16> 		O   -0.573849  -1.657065  -0.033461
| 17> 		C    0.653794   0.483471  -0.049875
| 18> 		C    1.865561  -0.150669   0.012074
| 19> 		H   -1.491509   0.172441   0.023674
| 20> 		H    0.554523   1.520790  -0.057350
| 21> 		H    2.164935  -1.047463   0.151046
| 22> 		H    2.552344   0.502012   0.013223
| 23> *
| 24>
| 25>                          ****END OF INPUT****

CARTESIAN COORDINATES (ANGSTROEM)
---------------------------------
  C     -0.647738   -0.464362    0.070983
  O     -0.573849   -1.657065   -0.033461
  C      0.653794    0.483471   -0.049875
  C      1.865561   -0.150669    0.012074
  H     -1.491509    0.172441    0.023674
  H      0.554523    1.520790   -0.057350
  H      2.164935   -1.047463    0.151046
  H      2.552344    0.502012    0.013223

 Total Charge           Charge          ....    0
 Multiplicity           Mult            ....    1
 Number of Electrons    NEL             ....   30
 Basis Dimension        Dim             ....   76

ORBITAL ENERGIES
----------------

  NO   OCC          E(Eh)            E(eV)
   0   2.0000     -19.146779      -521.0103
   1   2.0000     -10.278381      -279.6890
   2   2.0000     -10.202617      -277.6273
   3   2.0000     -10.182472      -277.0791
   4   2.0000      -1.054697       -28.6998
   5   2.0000      -0.785186       -21.3660
   6   2.0000      -0.659736       -17.9523
   7   2.0000      -0.569966       -15.5096
   8   2.0000      -0.502805       -13.6820
   9   2.0000      -0.458988       -12.4897
  10   2.0000      -0.428522       -11.6607
  11   2.0000      -0.398509       -10.8440
  12   2.0000      -0.392787       -10.6883
  13   2.0000      -0.279051        -7.5934
  14   2.0000      -0.252200        -6.8627
  15   0.0000      -0.063325        -1.7232
  16   0.0000       0.039981         1.0879
  17   0.0000       0.082433         2.2431
  18   0.0000       0.103771         2.8238
  19   0.0000       0.129303         3.5185

MULLIKEN ATOMIC CHARGES
-----------------------
   0 C :    0.214846
   1 O :   -0.174716
   2 C :   -0.173173
   3 C :    0.235958
   4 H :   -0.016767
   5 H :   -0.018915
   6 H :   -0.034234
   7 H :   -0.032998
Sum of atomic charges:    0.0000000

LOEWDIN ATOMIC CHARGES
----------------------
   0 C :   -0.012345
   1 O :    0.015409
   2 C :   -0.049933
   3 C :    0.066251
   4 H :   -0.017623
   5 H :    0.011264
   6 H :   -0.008451
   7 H :   -0.004573

  Mayer bond orders larger than 0.100000
B(  0-C ,  1-O ) :   2.2210 B(  0-C ,  2-C ) :   0.9937 B(  0-C ,  4-H ) :   0.9210
B(  2-C ,  3-C ) :   1.9821 B(  2-C ,  5-H ) :   0.9418 B(  3-C ,  6-H ) :   0.9630
B(  3-C ,  7-H ) :   0.9375

-----------------------------------------------------------------------------
         ABSORPTION SPECTRUM VIA TRANSITION ELECTRIC DIPOLE MOMENTS
-----------------------------------------------------------------------------
State   Energy    Wavelength  fosc         T2        TX        TY        TZ
        (cm-1)      (nm)                 (au**2)    (au)      (au)      (au)
-----------------------------------------------------------------------------
   1   28641.0    349.1   0.000161637   0.00186  -0.03945  -0.01294   0.01156

FINAL SINGLE POINT ENERGY      -191.618823900669

DIPOLE MOMENT
-------------
                                X             Y             Z
Electronic contribution:     -2.13260      -1.99112      -0.02986
Nuclear contribution   :      2.38834       2.86231       0.12237
                        -----------------------------------------
Total Dipole Moment    :      0.25574       0.87119       0.09251
                        -----------------------------------------
Magnitude (a.u.)       :      0.91265
Magnitude (Debye)      :      2.31978

Rotational constants in cm-1:     0.721999     0.202679     0.158662
Rotational constants in MHz : 21644.987438  6076.176341  4756.580632

                             ****ORCA TERMINATED NORMALLY****
TOTAL RUN TIME: 0 days 0 hours 3 minutes 22 seconds 167 msec
