                         Program Version 5.0.3 -  RELEASE  -
|  1> ! HF-3c
|  2> !TightSCF
|  3> %scf
|  4>  ConvForced true
|  5>  convergence tight
|  6>  MaxIter 500
|  7> end
|  8>
|  9> %tddft
| 10>  nroots 1
| 11> end
| 12>
| 13> # 	14285
| 14> * xyz 0 1
| 15> 		C   -1.159137  -0.264871   0.049773
| 16> 		O   -1.466917  -1.277184   0.680391
| 17> 		C   -0.002930   0.555422   0.138111
| 18> 		C    1.186342  -0.002651  -0.109031
| 19> 		H   -1.841592  -0.112832  -0.679696
| 20> 		H   -0.210868   1.539507   0.443981
| 21> 		H    1.203660  -1.006374  -0.366214
| 22> 		H    2.306685   0.601931  -0.167734
| 23> *
| 24>
| 25>                          ****END OF INPUT****

CARTESIAN COORDINATES (ANGSTROEM)
---------------------------------
  C     -1.159137   -0.264871    0.049773
  O     -1.466917   -1.277184    0.680391
  C     -0.002930    0.555422    0.138111
  C      1.186342   -0.002651   -0.109031
  H     -1.841592   -0.112832   -0.679696
  H     -0.210868    1.539507    0.443981
  H      1.203660   -1.006374   -0.366214
  H      2.306685    0.601931   -0.167734

 Total Charge           Charge          ....    0
 Multiplicity           Mult            ....    1
 Number of Electrons    NEL             ....   30
 Basis Dimension        Dim             ....   24

ORBITAL ENERGIES
----------------

  NO   OCC          E(Eh)            E(eV)
   0   2.0000     -20.360259      -554.0308
   1   2.0000     -11.289800      -307.2111
   2   2.0000     -11.197300      -304.6940
   3   2.0000     -11.194108      -304.6072
   4   2.0000      -1.390137       -37.8276
   5   2.0000      -1.094161       -29.7736
   6   2.0000      -0.898442       -24.4478
   7   2.0000      -0.776747       -21.1363
   8   2.0000      -0.702000       -19.1024
   9   2.0000      -0.624120       -16.9832
  10   2.0000      -0.603392       -16.4191
  11   2.0000      -0.532963       -14.5027
  12   2.0000      -0.496214       -13.5027
  13   2.0000      -0.418294       -11.3824
  14   2.0000      -0.401321       -10.9205
  15   0.0000       0.162179         4.4131
  16   0.0000       0.231325         6.2947
  17   0.0000       0.474631        12.9154
  18   0.0000       0.644567        17.5396
  19   0.0000       0.684934        18.6380

MULLIKEN ATOMIC CHARGES
-----------------------
   0 C :    0.134132
   1 O :   -0.333560
   2 C :   -0.195003
   3 C :   -0.200330
   4 H :    0.142494
   5 H :    0.154860
   6 H :    0.141836
   7 H :    0.155570
Sum of atomic charges:    0.0000000

LOEWDIN ATOMIC CHARGES
----------------------
   0 C :    0.133904
   1 O :   -0.249109
   2 C :   -0.142964
   3 C :   -0.115165
   4 H :    0.070658
   5 H :    0.099084
   6 H :    0.086695
   7 H :    0.116896

  Mayer bond orders larger than 0.100000
B(  0-C ,  1-O ) :   1.9194 B(  0-C ,  2-C ) :   1.0251 B(  0-C ,  4-H ) :   0.9342
B(  2-C ,  3-C ) :   1.9659 B(  2-C ,  5-H ) :   0.9490 B(  3-C ,  6-H ) :   0.9657
B(  3-C ,  7-H ) :   0.9557

-----------------------------------------------------------------------------
         ABSORPTION SPECTRUM VIA TRANSITION ELECTRIC DIPOLE MOMENTS
-----------------------------------------------------------------------------
State   Energy    Wavelength  fosc         T2        TX        TY        TZ
        (cm-1)      (nm)                 (au**2)    (au)      (au)      (au)
-----------------------------------------------------------------------------
   1   31808.5    314.4   0.000013945   0.00014  -0.00318   0.00802   0.00836

Dispersion correction           -0.025735786
FINAL SINGLE POINT ENERGY      -189.294375229201

DIPOLE MOMENT
-------------
                                X             Y             Z
Electronic contribution:     -2.20983      -1.25269       0.94466
Nuclear contribution   :      2.80484       2.01167      -1.45504
                        -----------------------------------------
Total Dipole Moment    :      0.59501       0.75897      -0.51037
                        -----------------------------------------
Magnitude (a.u.)       :      1.09113
Magnitude (Debye)      :      2.77343

Rotational constants in cm-1:     0.888396     0.187959     0.164069
Rotational constants in MHz : 26633.449823  5634.854154  4918.652836

                             ****ORCA TERMINATED NORMALLY****
TOTAL RUN TIME: 0 days 0 hours 0 minutes 12 seconds 922 msec
