                         Program Version 5.0.3 -  RELEASE  -
|  1> ! B3LYP cc-pVDZ
|  2> !TightSCF
|  3> %scf
|  4>  ConvForced true
|  5>  convergence tight
|  6>  MaxIter 500
|  7> end
|  8>
|  9> %tddft
| 10>  nroots 1
| 11> end
| 12>
| 13> # 	4378
| 14> * xyz 0 1
| 15> 		C   -1.125835  -0.394367   0.145725
| 16> 		O   -2.091764  -0.474068   0.689875
| 17> 		C    0.024484   0.405767   0.352709
| 18> 		C    1.293104   0.072611  -0.261450
| 19> 		H   -1.161440  -0.917672  -0.883477
| 20> 		H   -0.070182   1.324019   0.911015
| 21> 		H    1.284320  -0.873565  -0.959628
| 22> 		H    1.892534   0.866103  -0.053358
| 23> *
| 24>
| 25>                          ****END OF INPUT****

CARTESIAN COORDINATES (ANGSTROEM)
---------------------------------
  C     -1.125835   -0.394367    0.145725
  O     -2.091764   -0.474068    0.689875
  C      0.024484    0.405767    0.352709
  C      1.293104    0.072611   -0.261450
  H     -1.161440   -0.917672   -0.883477
  H     -0.070182    1.324019    0.911015
  H      1.284320   -0.873565   -0.959628
  H      1.892534    0.866103   -0.053358

 Total Charge           Charge          ....    0
 Multiplicity           Mult            ....    1
 Number of Electrons    NEL             ....   30
 Basis Dimension        Dim             ....   76

ORBITAL ENERGIES
----------------

  NO   OCC          E(Eh)            E(eV)
   0   2.0000     -19.132698      -520.6272
   1   2.0000     -10.261520      -279.2302
   2   2.0000     -10.231946      -278.4254
   3   2.0000     -10.211301      -277.8636
   4   2.0000      -1.103434       -30.0260
   5   2.0000      -0.793281       -21.5863
   6   2.0000      -0.655063       -17.8252
   7   2.0000      -0.559342       -15.2205
   8   2.0000      -0.489752       -13.3268
   9   2.0000      -0.466970       -12.7069
  10   2.0000      -0.436083       -11.8664
  11   2.0000      -0.424027       -11.5383
  12   2.0000      -0.391324       -10.6485
  13   2.0000      -0.282675        -7.6920
  14   2.0000      -0.242321        -6.5939
  15   0.0000      -0.070887        -1.9289
  16   0.0000       0.047074         1.2809
  17   0.0000       0.064827         1.7640
  18   0.0000       0.091293         2.4842
  19   0.0000       0.125561         3.4167

MULLIKEN ATOMIC CHARGES
-----------------------
   0 C :    0.146685
   1 O :   -0.100442
   2 C :   -0.111377
   3 C :    0.051550
   4 H :   -0.076491
   5 H :    0.004097
   6 H :    0.066496
   7 H :    0.019483
Sum of atomic charges:    0.0000000

LOEWDIN ATOMIC CHARGES
----------------------
   0 C :   -0.140484
   1 O :    0.100821
   2 C :   -0.046674
   3 C :    0.019063
   4 H :   -0.028815
   5 H :    0.026263
   6 H :    0.057111
   7 H :    0.012715

  Mayer bond orders larger than 0.100000
B(  0-C ,  1-O ) :   2.2983 B(  0-C ,  2-C ) :   1.0656 B(  0-C ,  4-H ) :   0.8983
B(  2-C ,  3-C ) :   1.9107 B(  2-C ,  5-H ) :   0.9437 B(  3-C ,  6-H ) :   0.9382
B(  3-C ,  7-H ) :   0.9386

-----------------------------------------------------------------------------
         ABSORPTION SPECTRUM VIA TRANSITION ELECTRIC DIPOLE MOMENTS
-----------------------------------------------------------------------------
State   Energy    Wavelength  fosc         T2        TX        TY        TZ
        (cm-1)      (nm)                 (au**2)    (au)      (au)      (au)
-----------------------------------------------------------------------------
   1   26612.7    375.8   0.000446013   0.00552  -0.05656  -0.04815  -0.00042

FINAL SINGLE POINT ENERGY      -191.628288560172

DIPOLE MOMENT
-------------
                                X             Y             Z
Electronic contribution:     -2.84655      -0.49617       1.47613
Nuclear contribution   :      3.75642       0.78207      -1.78055
                        -----------------------------------------
Total Dipole Moment    :      0.90987       0.28590      -0.30442
                        -----------------------------------------
Magnitude (a.u.)       :      1.00113
Magnitude (Debye)      :      2.54468

Rotational constants in cm-1:     1.544352     0.157242     0.144268
Rotational constants in MHz : 46298.503917  4713.998907  4325.045277

                             ****ORCA TERMINATED NORMALLY****
TOTAL RUN TIME: 0 days 0 hours 3 minutes 17 seconds 340 msec
