                         Program Version 5.0.3 -  RELEASE  -
|  1> ! HF-3c
|  2> !TightSCF
|  3> %scf
|  4>  ConvForced true
|  5>  convergence tight
|  6>  MaxIter 500
|  7> end
|  8>
|  9> %tddft
| 10>  nroots 1
| 11> end
| 12>
| 13> # 	13722
| 14> * xyz 0 1
| 15> 		C   -1.199507  -0.353540   0.028601
| 16> 		O   -1.232866  -1.571924  -0.081269
| 17> 		C    0.014114   0.515765   0.010379
| 18> 		C    1.200409  -0.017909   0.004221
| 19> 		H   -2.208641   0.474712   0.111101
| 20> 		H   -0.062610   1.557300   0.066824
| 21> 		H    1.286293  -1.006728   0.055871
| 22> 		H    2.225437   0.452616  -0.171596
| 23> *
| 24>
| 25>                          ****END OF INPUT****

CARTESIAN COORDINATES (ANGSTROEM)
---------------------------------
  C     -1.199507   -0.353540    0.028601
  O     -1.232866   -1.571924   -0.081269
  C      0.014114    0.515765    0.010379
  C      1.200409   -0.017909    0.004221
  H     -2.208641    0.474712    0.111101
  H     -0.062610    1.557300    0.066824
  H      1.286293   -1.006728    0.055871
  H      2.225437    0.452616   -0.171596

 Total Charge           Charge          ....    0
 Multiplicity           Mult            ....    1
 Number of Electrons    NEL             ....   30
 Basis Dimension        Dim             ....   24

ORBITAL ENERGIES
----------------

  NO   OCC          E(Eh)            E(eV)
   0   2.0000     -20.366290      -554.1949
   1   2.0000     -11.293862      -307.3216
   2   2.0000     -11.195490      -304.6448
   3   2.0000     -11.191986      -304.5494
   4   2.0000      -1.390099       -37.8265
   5   2.0000      -1.094891       -29.7935
   6   2.0000      -0.883284       -24.0354
   7   2.0000      -0.752300       -20.4711
   8   2.0000      -0.684313       -18.6211
   9   2.0000      -0.620622       -16.8880
  10   2.0000      -0.582937       -15.8625
  11   2.0000      -0.540588       -14.7102
  12   2.0000      -0.530672       -14.4403
  13   2.0000      -0.406692       -11.0667
  14   2.0000      -0.394216       -10.7272
  15   0.0000       0.132486         3.6051
  16   0.0000       0.310268         8.4428
  17   0.0000       0.439275        11.9533
  18   0.0000       0.566810        15.4237
  19   0.0000       0.614671        16.7261

MULLIKEN ATOMIC CHARGES
-----------------------
   0 C :    0.200497
   1 O :   -0.359957
   2 C :   -0.193762
   3 C :   -0.220861
   4 H :    0.125817
   5 H :    0.145096
   6 H :    0.149435
   7 H :    0.153734
Sum of atomic charges:   -0.0000000

LOEWDIN ATOMIC CHARGES
----------------------
   0 C :    0.165528
   1 O :   -0.267283
   2 C :   -0.145225
   3 C :   -0.115215
   4 H :    0.079086
   5 H :    0.089566
   6 H :    0.088237
   7 H :    0.105307

  Mayer bond orders larger than 0.100000
B(  0-C ,  1-O ) :   1.9237 B(  0-C ,  2-C ) :   1.0114 B(  0-C ,  4-H ) :   0.8971
B(  2-C ,  3-C ) :   1.9519 B(  2-C ,  5-H ) :   0.9598 B(  3-C ,  6-H ) :   0.9624
B(  3-C ,  7-H ) :   0.9605

-----------------------------------------------------------------------------
         ABSORPTION SPECTRUM VIA TRANSITION ELECTRIC DIPOLE MOMENTS
-----------------------------------------------------------------------------
State   Energy    Wavelength  fosc         T2        TX        TY        TZ
        (cm-1)      (nm)                 (au**2)    (au)      (au)      (au)
-----------------------------------------------------------------------------
   1   32746.3    305.4   0.000049792   0.00050  -0.01809   0.00286  -0.01286

Dispersion correction           -0.025746760
FINAL SINGLE POINT ENERGY      -189.304674376955

DIPOLE MOMENT
-------------
                                X             Y             Z
Electronic contribution:     -2.02086      -1.83188      -0.03851
Nuclear contribution   :      2.37490       2.83672       0.10545
                        -----------------------------------------
Total Dipole Moment    :      0.35404       1.00484       0.06693
                        -----------------------------------------
Magnitude (a.u.)       :      1.06749
Magnitude (Debye)      :      2.71333

Rotational constants in cm-1:     0.761700     0.205144     0.161834
Rotational constants in MHz : 22835.198560  6150.065829  4851.654030

                             ****ORCA TERMINATED NORMALLY****
TOTAL RUN TIME: 0 days 0 hours 0 minutes 12 seconds 702 msec
