                         Program Version 5.0.3 -  RELEASE  -
|  1> ! HF-3c
|  2> !TightSCF
|  3> %scf
|  4>  ConvForced true
|  5>  convergence tight
|  6>  MaxIter 500
|  7> end
|  8>
|  9> %tddft
| 10>  nroots 1
| 11> end
| 12>
| 13> # 	17440
| 14> * xyz 0 1
| 15> 		C   -1.227144  -0.344398  -0.031526
| 16> 		O   -1.125946  -1.512305  -0.051793
| 17> 		C    0.031781   0.509585  -0.075643
| 18> 		C    1.226914  -0.066355  -0.011385
| 19> 		H   -2.207282   0.288772   0.034032
| 20> 		H   -0.081420   1.650969   0.151205
| 21> 		H    1.275113  -1.257827  -0.007587
| 22> 		H    2.056892   0.765074  -0.026985
| 23> *
| 24>
| 25>                          ****END OF INPUT****

CARTESIAN COORDINATES (ANGSTROEM)
---------------------------------
  C     -1.227144   -0.344398   -0.031526
  O     -1.125946   -1.512305   -0.051793
  C      0.031781    0.509585   -0.075643
  C      1.226914   -0.066355   -0.011385
  H     -2.207282    0.288772    0.034032
  H     -0.081420    1.650969    0.151205
  H      1.275113   -1.257827   -0.007587
  H      2.056892    0.765074   -0.026985

 Total Charge           Charge          ....    0
 Multiplicity           Mult            ....    1
 Number of Electrons    NEL             ....   30
 Basis Dimension        Dim             ....   24

ORBITAL ENERGIES
----------------

  NO   OCC          E(Eh)            E(eV)
   0   2.0000     -20.371201      -554.3286
   1   2.0000     -11.298359      -307.4440
   2   2.0000     -11.171299      -303.9865
   3   2.0000     -11.160172      -303.6837
   4   2.0000      -1.428509       -38.8717
   5   2.0000      -1.055217       -28.7139
   6   2.0000      -0.858359       -23.3571
   7   2.0000      -0.710771       -19.3410
   8   2.0000      -0.685714       -18.6592
   9   2.0000      -0.607887       -16.5415
  10   2.0000      -0.561179       -15.2705
  11   2.0000      -0.553179       -15.0528
  12   2.0000      -0.507392       -13.8068
  13   2.0000      -0.397390       -10.8135
  14   2.0000      -0.382783       -10.4160
  15   0.0000       0.154608         4.2071
  16   0.0000       0.317125         8.6294
  17   0.0000       0.500833        13.6284
  18   0.0000       0.518796        14.1172
  19   0.0000       0.582598        15.8533

MULLIKEN ATOMIC CHARGES
-----------------------
   0 C :    0.186849
   1 O :   -0.372553
   2 C :   -0.179341
   3 C :   -0.216970
   4 H :    0.133304
   5 H :    0.129045
   6 H :    0.171564
   7 H :    0.148103
Sum of atomic charges:    0.0000000

LOEWDIN ATOMIC CHARGES
----------------------
   0 C :    0.153110
   1 O :   -0.262936
   2 C :   -0.149886
   3 C :   -0.131040
   4 H :    0.074400
   5 H :    0.086324
   6 H :    0.124736
   7 H :    0.105293

  Mayer bond orders larger than 0.100000
B(  0-C ,  1-O ) :   1.9242 B(  0-C ,  2-C ) :   0.9924 B(  0-C ,  4-H ) :   0.9109
B(  2-C ,  3-C ) :   1.9590 B(  2-C ,  5-H ) :   0.9599 B(  3-C ,  6-H ) :   0.9469
B(  3-C ,  7-H ) :   0.9583

-----------------------------------------------------------------------------
         ABSORPTION SPECTRUM VIA TRANSITION ELECTRIC DIPOLE MOMENTS
-----------------------------------------------------------------------------
State   Energy    Wavelength  fosc         T2        TX        TY        TZ
        (cm-1)      (nm)                 (au**2)    (au)      (au)      (au)
-----------------------------------------------------------------------------
   1   35721.1    279.9   0.000219596   0.00202   0.04242   0.00283   0.01472

Dispersion correction           -0.025693025
FINAL SINGLE POINT ENERGY      -189.298009705889

DIPOLE MOMENT
-------------
                                X             Y             Z
Electronic contribution:     -1.85570      -1.87464      -0.19592
Nuclear contribution   :      2.07655       2.78330       0.28175
                        -----------------------------------------
Total Dipole Moment    :      0.22086       0.90867       0.08584
                        -----------------------------------------
Magnitude (a.u.)       :      0.93905
Magnitude (Debye)      :      2.38689

Rotational constants in cm-1:     0.734026     0.217598     0.168067
Rotational constants in MHz : 22005.537676  6523.437184  5038.511808

                             ****ORCA TERMINATED NORMALLY****
TOTAL RUN TIME: 0 days 0 hours 0 minutes 10 seconds 669 msec
