                         Program Version 5.0.3 -  RELEASE  -
|  1> ! HF-3c
|  2> !TightSCF
|  3> %scf
|  4>  ConvForced true
|  5>  convergence tight
|  6>  MaxIter 500
|  7> end
|  8>
|  9> %tddft
| 10>  nroots 1
| 11> end
| 12>
| 13> # 	7805
| 14> * xyz 0 1
| 15> 		C   -1.187450  -0.347329  -0.025876
| 16> 		O   -1.279389  -1.462090  -0.323758
| 17> 		C    0.012330   0.512575  -0.107007
| 18> 		C    1.219848  -0.045388   0.066578
| 19> 		H   -2.141980   0.184373   0.255603
| 20> 		H   -0.002770   1.681207   0.002928
| 21> 		H    1.405719  -1.118000   0.123633
| 22> 		H    1.998267   0.643966   0.048061
| 23> *
| 24>
| 25>                          ****END OF INPUT****

CARTESIAN COORDINATES (ANGSTROEM)
---------------------------------
  C     -1.187450   -0.347329   -0.025876
  O     -1.279389   -1.462090   -0.323758
  C      0.012330    0.512575   -0.107007
  C      1.219848   -0.045388    0.066578
  H     -2.141980    0.184373    0.255603
  H     -0.002770    1.681207    0.002928
  H      1.405719   -1.118000    0.123633
  H      1.998267    0.643966    0.048061

 Total Charge           Charge          ....    0
 Multiplicity           Mult            ....    1
 Number of Electrons    NEL             ....   30
 Basis Dimension        Dim             ....   24

ORBITAL ENERGIES
----------------

  NO   OCC          E(Eh)            E(eV)
   0   2.0000     -20.379947      -554.5666
   1   2.0000     -11.308741      -307.7265
   2   2.0000     -11.187158      -304.4181
   3   2.0000     -11.184535      -304.3467
   4   2.0000      -1.442757       -39.2594
   5   2.0000      -1.079053       -29.3625
   6   2.0000      -0.885374       -24.0922
   7   2.0000      -0.743834       -20.2408
   8   2.0000      -0.708624       -19.2826
   9   2.0000      -0.619233       -16.8502
  10   2.0000      -0.602277       -16.3888
  11   2.0000      -0.558735       -15.2040
  12   2.0000      -0.533931       -14.5290
  13   2.0000      -0.405687       -11.0393
  14   2.0000      -0.395806       -10.7704
  15   0.0000       0.142476         3.8770
  16   0.0000       0.308528         8.3955
  17   0.0000       0.531489        14.4625
  18   0.0000       0.585046        15.9199
  19   0.0000       0.653344        17.7784

MULLIKEN ATOMIC CHARGES
-----------------------
   0 C :    0.183228
   1 O :   -0.363815
   2 C :   -0.163872
   3 C :   -0.231231
   4 H :    0.126243
   5 H :    0.149850
   6 H :    0.158255
   7 H :    0.141343
Sum of atomic charges:   -0.0000000

LOEWDIN ATOMIC CHARGES
----------------------
   0 C :    0.149242
   1 O :   -0.250947
   2 C :   -0.131049
   3 C :   -0.127600
   4 H :    0.063328
   5 H :    0.104373
   6 H :    0.104552
   7 H :    0.088102

  Mayer bond orders larger than 0.100000
B(  0-C ,  1-O ) :   1.9178 B(  0-C ,  2-C ) :   1.0110 B(  0-C ,  4-H ) :   0.9152
B(  2-C ,  3-C ) :   1.9483 B(  2-C ,  5-H ) :   0.9547 B(  3-C ,  6-H ) :   0.9608
B(  3-C ,  7-H ) :   0.9673

-----------------------------------------------------------------------------
         ABSORPTION SPECTRUM VIA TRANSITION ELECTRIC DIPOLE MOMENTS
-----------------------------------------------------------------------------
State   Energy    Wavelength  fosc         T2        TX        TY        TZ
        (cm-1)      (nm)                 (au**2)    (au)      (au)      (au)
-----------------------------------------------------------------------------
   1   35541.4    281.4   0.000800030   0.00741  -0.08549  -0.00531  -0.00859

Dispersion correction           -0.025604801
FINAL SINGLE POINT ENERGY      -189.311066932804

DIPOLE MOMENT
-------------
                                X             Y             Z
Electronic contribution:     -2.04524      -1.74839      -0.48299
Nuclear contribution   :      2.41658       2.66483       0.77130
                        -----------------------------------------
Total Dipole Moment    :      0.37133       0.91644       0.28830
                        -----------------------------------------
Magnitude (a.u.)       :      1.02998
Magnitude (Debye)      :      2.61800

Rotational constants in cm-1:     0.811235     0.204215     0.165160
Rotational constants in MHz : 24320.220953  6122.202582  4951.375440

                             ****ORCA TERMINATED NORMALLY****
TOTAL RUN TIME: 0 days 0 hours 0 minutes 9 seconds 772 msec
