                         Program Version 5.0.3 -  RELEASE  -
|  1> ! B3LYP cc-pVDZ
|  2> !TightSCF
|  3> %scf
|  4>  ConvForced true
|  5>  convergence tight
|  6>  MaxIter 500
|  7> end
|  8>
|  9> %tddft
| 10>  nroots 1
| 11> end
| 12>
| 13> # 	14356
| 14> * xyz 0 1
| 15> 		C   -1.176393  -0.342591   0.051212
| 16> 		O   -1.944465  -0.646113   0.925866
| 17> 		C   -0.021582   0.480334   0.307727
| 18> 		C    1.166172   0.067247  -0.302973
| 19> 		H   -1.258396  -0.776323  -0.938357
| 20> 		H   -0.182315   1.403544   0.928536
| 21> 		H    1.265310  -0.807197  -1.072811
| 22> 		H    2.122731   0.602156   0.118566
| 23> *
| 24>
| 25>                          ****END OF INPUT****

CARTESIAN COORDINATES (ANGSTROEM)
---------------------------------
  C     -1.176393   -0.342591    0.051212
  O     -1.944465   -0.646113    0.925866
  C     -0.021582    0.480334    0.307727
  C      1.166172    0.067247   -0.302973
  H     -1.258396   -0.776323   -0.938357
  H     -0.182315    1.403544    0.928536
  H      1.265310   -0.807197   -1.072811
  H      2.122731    0.602156    0.118566

 Total Charge           Charge          ....    0
 Multiplicity           Mult            ....    1
 Number of Electrons    NEL             ....   30
 Basis Dimension        Dim             ....   76

ORBITAL ENERGIES
----------------

  NO   OCC          E(Eh)            E(eV)
   0   2.0000     -19.132971      -520.6346
   1   2.0000     -10.267198      -279.3847
   2   2.0000     -10.236884      -278.5598
   3   2.0000     -10.216859      -278.0149
   4   2.0000      -1.048397       -28.5283
   5   2.0000      -0.792406       -21.5625
   6   2.0000      -0.639592       -17.4042
   7   2.0000      -0.568152       -15.4602
   8   2.0000      -0.475702       -12.9445
   9   2.0000      -0.458369       -12.4729
  10   2.0000      -0.428464       -11.6591
  11   2.0000      -0.390931       -10.6378
  12   2.0000      -0.381554       -10.3826
  13   2.0000      -0.280430        -7.6309
  14   2.0000      -0.251956        -6.8561
  15   0.0000      -0.058815        -1.6004
  16   0.0000       0.016205         0.4410
  17   0.0000       0.060299         1.6408
  18   0.0000       0.079887         2.1738
  19   0.0000       0.116015         3.1569

MULLIKEN ATOMIC CHARGES
-----------------------
   0 C :    0.184443
   1 O :   -0.195688
   2 C :   -0.059870
   3 C :   -0.056718
   4 H :   -0.032049
   5 H :    0.033840
   6 H :    0.064905
   7 H :    0.061136
Sum of atomic charges:   -0.0000000

LOEWDIN ATOMIC CHARGES
----------------------
   0 C :   -0.052761
   1 O :    0.004037
   2 C :   -0.053623
   3 C :   -0.028171
   4 H :   -0.010642
   5 H :    0.044729
   6 H :    0.047838
   7 H :    0.048593

  Mayer bond orders larger than 0.100000
B(  0-C ,  1-O ) :   2.1722 B(  0-C ,  2-C ) :   1.0727 B(  0-C ,  4-H ) :   0.9278
B(  2-C ,  3-C ) :   1.9022 B(  2-C ,  5-H ) :   0.9450 B(  3-C ,  6-H ) :   0.9426
B(  3-C ,  7-H ) :   0.9416

-----------------------------------------------------------------------------
         ABSORPTION SPECTRUM VIA TRANSITION ELECTRIC DIPOLE MOMENTS
-----------------------------------------------------------------------------
State   Energy    Wavelength  fosc         T2        TX        TY        TZ
        (cm-1)      (nm)                 (au**2)    (au)      (au)      (au)
-----------------------------------------------------------------------------
   1   29915.6    334.3   0.000379840   0.00418   0.06062   0.01254  -0.01866

FINAL SINGLE POINT ENERGY      -191.651727424384

DIPOLE MOMENT
-------------
                                X             Y             Z
Electronic contribution:     -2.95255      -0.55272       1.28130
Nuclear contribution   :      3.78250       0.88713      -1.86607
                        -----------------------------------------
Total Dipole Moment    :      0.82995       0.33441      -0.58477
                        -----------------------------------------
Magnitude (a.u.)       :      1.06892
Magnitude (Debye)      :      2.71698

Rotational constants in cm-1:     1.202314     0.162978     0.151439
Rotational constants in MHz : 36044.472918  4885.951067  4540.026869

                             ****ORCA TERMINATED NORMALLY****
TOTAL RUN TIME: 0 days 0 hours 3 minutes 21 seconds 826 msec
