                         Program Version 5.0.3 -  RELEASE  -
|  1> ! HF-3c
|  2> !TightSCF
|  3> %scf
|  4>  ConvForced true
|  5>  convergence tight
|  6>  MaxIter 500
|  7> end
|  8>
|  9> %tddft
| 10>  nroots 1
| 11> end
| 12>
| 13> # 	32381
| 14> * xyz 0 1
| 15> 		C   -0.558730  -0.425461   0.054033
| 16> 		O   -0.556199  -1.600268  -0.031606
| 17> 		C    0.572060   0.418041  -0.092112
| 18> 		C    1.841505  -0.154681   0.027866
| 19> 		H   -1.527370   0.030217   0.232587
| 20> 		H    0.468108   1.511695   0.163753
| 21> 		H    1.896910  -1.338099   0.282652
| 22> 		H    2.834066   0.371569  -0.060142
| 23> *
| 24>
| 25>                          ****END OF INPUT****

CARTESIAN COORDINATES (ANGSTROEM)
---------------------------------
  C     -0.558730   -0.425461    0.054033
  O     -0.556199   -1.600268   -0.031606
  C      0.572060    0.418041   -0.092112
  C      1.841505   -0.154681    0.027866
  H     -1.527370    0.030217    0.232587
  H      0.468108    1.511695    0.163753
  H      1.896910   -1.338099    0.282652
  H      2.834066    0.371569   -0.060142

 Total Charge           Charge          ....    0
 Multiplicity           Mult            ....    1
 Number of Electrons    NEL             ....   30
 Basis Dimension        Dim             ....   24

ORBITAL ENERGIES
----------------

  NO   OCC          E(Eh)            E(eV)
   0   2.0000     -20.352486      -553.8193
   1   2.0000     -11.294662      -307.3434
   2   2.0000     -11.193603      -304.5934
   3   2.0000     -11.174382      -304.0704
   4   2.0000      -1.418259       -38.5928
   5   2.0000      -1.060972       -28.8705
   6   2.0000      -0.882766       -24.0213
   7   2.0000      -0.741509       -20.1775
   8   2.0000      -0.692562       -18.8456
   9   2.0000      -0.604872       -16.4594
  10   2.0000      -0.581989       -15.8367
  11   2.0000      -0.552719       -15.0402
  12   2.0000      -0.508113       -13.8265
  13   2.0000      -0.407362       -11.0849
  14   2.0000      -0.368217       -10.0197
  15   0.0000       0.123164         3.3515
  16   0.0000       0.312139         8.4937
  17   0.0000       0.524642        14.2762
  18   0.0000       0.558735        15.2040
  19   0.0000       0.647361        17.6156

MULLIKEN ATOMIC CHARGES
-----------------------
   0 C :    0.155756
   1 O :   -0.371178
   2 C :   -0.197227
   3 C :   -0.168554
   4 H :    0.130989
   5 H :    0.144841
   6 H :    0.160406
   7 H :    0.144967
Sum of atomic charges:   -0.0000000

LOEWDIN ATOMIC CHARGES
----------------------
   0 C :    0.136060
   1 O :   -0.270012
   2 C :   -0.165638
   3 C :   -0.075000
   4 H :    0.065385
   5 H :    0.097516
   6 H :    0.115120
   7 H :    0.096568

  Mayer bond orders larger than 0.100000
B(  0-C ,  1-O ) :   1.8733 B(  0-C ,  2-C ) :   1.0628 B(  0-C ,  4-H ) :   0.9252
B(  2-C ,  3-C ) :   1.8921 B(  2-C ,  5-H ) :   0.9577 B(  3-C ,  6-H ) :   0.9549
B(  3-C ,  7-H ) :   0.9651

-----------------------------------------------------------------------------
         ABSORPTION SPECTRUM VIA TRANSITION ELECTRIC DIPOLE MOMENTS
-----------------------------------------------------------------------------
State   Energy    Wavelength  fosc         T2        TX        TY        TZ
        (cm-1)      (nm)                 (au**2)    (au)      (au)      (au)
-----------------------------------------------------------------------------
   1   33568.8    297.9   0.000434239   0.00426   0.06269   0.00265   0.01792

Dispersion correction           -0.025768050
FINAL SINGLE POINT ENERGY      -189.302907580946

DIPOLE MOMENT
-------------
                                X             Y             Z
Electronic contribution:     -1.75245      -1.48089      -0.36651
Nuclear contribution   :      2.28866       2.32850       0.58043
                        -----------------------------------------
Total Dipole Moment    :      0.53620       0.84761       0.21392
                        -----------------------------------------
Magnitude (a.u.)       :      1.02554
Magnitude (Debye)      :      2.60670

Rotational constants in cm-1:     0.739191     0.218622     0.169835
Rotational constants in MHz : 22160.384471  6554.132201  5091.512060

                             ****ORCA TERMINATED NORMALLY****
TOTAL RUN TIME: 0 days 0 hours 0 minutes 16 seconds 120 msec
