                         Program Version 5.0.3 -  RELEASE  -
|  1> ! HF-3c
|  2> !TightSCF
|  3> %scf
|  4>  ConvForced true
|  5>  convergence tight
|  6>  MaxIter 500
|  7> end
|  8>
|  9> %tddft
| 10>  nroots 1
| 11> end
| 12>
| 13> # 	8848
| 14> * xyz 0 1
| 15> 		C   -1.171961  -0.360009   0.069683
| 16> 		O   -1.620635  -1.179862   0.799288
| 17> 		C    0.005475   0.445986   0.211912
| 18> 		C    1.197423   0.043299  -0.125471
| 19> 		H   -1.772433  -0.257808  -0.988498
| 20> 		H   -0.000083   1.489113   0.593851
| 21> 		H    1.326815  -0.958177  -0.523010
| 22> 		H    2.033933   0.773194  -0.056652
| 23> *
| 24>
| 25>                          ****END OF INPUT****

CARTESIAN COORDINATES (ANGSTROEM)
---------------------------------
  C     -1.171961   -0.360009    0.069683
  O     -1.620635   -1.179862    0.799288
  C      0.005475    0.445986    0.211912
  C      1.197423    0.043299   -0.125471
  H     -1.772433   -0.257808   -0.988498
  H     -0.000083    1.489113    0.593851
  H      1.326815   -0.958177   -0.523010
  H      2.033933    0.773194   -0.056652

 Total Charge           Charge          ....    0
 Multiplicity           Mult            ....    1
 Number of Electrons    NEL             ....   30
 Basis Dimension        Dim             ....   24

ORBITAL ENERGIES
----------------

  NO   OCC          E(Eh)            E(eV)
   0   2.0000     -20.380013      -554.5684
   1   2.0000     -11.305885      -307.6488
   2   2.0000     -11.194888      -304.6284
   3   2.0000     -11.184063      -304.3338
   4   2.0000      -1.423583       -38.7377
   5   2.0000      -1.098814       -29.9002
   6   2.0000      -0.883588       -24.0436
   7   2.0000      -0.746087       -20.3020
   8   2.0000      -0.695530       -18.9263
   9   2.0000      -0.634171       -17.2567
  10   2.0000      -0.609791       -16.5933
  11   2.0000      -0.549397       -14.9499
  12   2.0000      -0.505847       -13.7648
  13   2.0000      -0.421727       -11.4758
  14   2.0000      -0.395730       -10.7684
  15   0.0000       0.198938         5.4134
  16   0.0000       0.215930         5.8758
  17   0.0000       0.540299        14.7023
  18   0.0000       0.609200        16.5772
  19   0.0000       0.643224        17.5030

MULLIKEN ATOMIC CHARGES
-----------------------
   0 C :    0.185630
   1 O :   -0.347920
   2 C :   -0.182306
   3 C :   -0.233772
   4 H :    0.129804
   5 H :    0.159914
   6 H :    0.142132
   7 H :    0.146517
Sum of atomic charges:    0.0000000

LOEWDIN ATOMIC CHARGES
----------------------
   0 C :    0.152272
   1 O :   -0.244810
   2 C :   -0.135310
   3 C :   -0.144763
   4 H :    0.075022
   5 H :    0.108346
   6 H :    0.091463
   7 H :    0.097780

  Mayer bond orders larger than 0.100000
B(  0-C ,  1-O ) :   1.9460 B(  0-C ,  2-C ) :   1.0067 B(  0-C ,  4-H ) :   0.8995
B(  2-C ,  3-C ) :   1.9871 B(  2-C ,  5-H ) :   0.9417 B(  3-C ,  6-H ) :   0.9643
B(  3-C ,  7-H ) :   0.9618

-----------------------------------------------------------------------------
         ABSORPTION SPECTRUM VIA TRANSITION ELECTRIC DIPOLE MOMENTS
-----------------------------------------------------------------------------
State   Energy    Wavelength  fosc         T2        TX        TY        TZ
        (cm-1)      (nm)                 (au**2)    (au)      (au)      (au)
-----------------------------------------------------------------------------
   1   35541.2    281.4   0.000039838   0.00037   0.01389  -0.00273  -0.01299

Dispersion correction           -0.025406809
FINAL SINGLE POINT ENERGY      -189.305407044402

DIPOLE MOMENT
-------------
                                X             Y             Z
Electronic contribution:     -2.54438      -1.34991       1.22280
Nuclear contribution   :      3.07592       2.05747      -1.82161
                        -----------------------------------------
Total Dipole Moment    :      0.53154       0.70756      -0.59881
                        -----------------------------------------
Magnitude (a.u.)       :      1.06853
Magnitude (Debye)      :      2.71598

Rotational constants in cm-1:     1.045357     0.171845     0.161656
Rotational constants in MHz : 31339.024080  5151.793349  4846.320454

                             ****ORCA TERMINATED NORMALLY****
TOTAL RUN TIME: 0 days 0 hours 0 minutes 16 seconds 120 msec
