                         Program Version 5.0.3 -  RELEASE  -
|  1> ! B3LYP cc-pVDZ
|  2> !TightSCF
|  3> %scf
|  4>  ConvForced true
|  5>  convergence tight
|  6>  MaxIter 500
|  7> end
|  8>
|  9> %tddft
| 10>  nroots 1
| 11> end
| 12>
| 13> # 	6474
| 14> * xyz 0 1
| 15> 		C   -1.181240  -0.296170  -0.080385
| 16> 		O   -1.801132  -0.822475  -0.987004
| 17> 		C   -0.019868   0.448536  -0.249860
| 18> 		C    1.139207   0.044434   0.172940
| 19> 		H   -1.368285  -0.550661   0.856572
| 20> 		H   -0.156052   1.375824  -0.728378
| 21> 		H    1.237940  -0.901906   0.832786
| 22> 		H    2.145447   0.713409   0.178988
| 23> *
| 24>
| 25>                          ****END OF INPUT****

CARTESIAN COORDINATES (ANGSTROEM)
---------------------------------
  C     -1.181240   -0.296170   -0.080385
  O     -1.801132   -0.822475   -0.987004
  C     -0.019868    0.448536   -0.249860
  C      1.139207    0.044434    0.172940
  H     -1.368285   -0.550661    0.856572
  H     -0.156052    1.375824   -0.728378
  H      1.237940   -0.901906    0.832786
  H      2.145447    0.713409    0.178988

 Total Charge           Charge          ....    0
 Multiplicity           Mult            ....    1
 Number of Electrons    NEL             ....   30
 Basis Dimension        Dim             ....   76

ORBITAL ENERGIES
----------------

  NO   OCC          E(Eh)            E(eV)
   0   2.0000     -19.138434      -520.7833
   1   2.0000     -10.261587      -279.2320
   2   2.0000     -10.220333      -278.1094
   3   2.0000     -10.194650      -277.4105
   4   2.0000      -1.045262       -28.4430
   5   2.0000      -0.818182       -22.2639
   6   2.0000      -0.660734       -17.9795
   7   2.0000      -0.581798       -15.8315
   8   2.0000      -0.493346       -13.4246
   9   2.0000      -0.469566       -12.7775
  10   2.0000      -0.439401       -11.9567
  11   2.0000      -0.380294       -10.3483
  12   2.0000      -0.368084       -10.0161
  13   2.0000      -0.293580        -7.9887
  14   2.0000      -0.255606        -6.9554
  15   0.0000      -0.053779        -1.4634
  16   0.0000       0.015367         0.4182
  17   0.0000       0.070163         1.9092
  18   0.0000       0.083833         2.2812
  19   0.0000       0.122665         3.3379

MULLIKEN ATOMIC CHARGES
-----------------------
   0 C :    0.222898
   1 O :   -0.200805
   2 C :   -0.004513
   3 C :   -0.054353
   4 H :   -0.051425
   5 H :   -0.001715
   6 H :    0.034329
   7 H :    0.055584
Sum of atomic charges:    0.0000000

LOEWDIN ATOMIC CHARGES
----------------------
   0 C :   -0.018485
   1 O :    0.007766
   2 C :   -0.058878
   3 C :   -0.033617
   4 H :   -0.021593
   5 H :    0.034347
   6 H :    0.037843
   7 H :    0.052617

  Mayer bond orders larger than 0.100000
B(  0-C ,  1-O ) :   2.2050 B(  0-C ,  2-C ) :   1.0501 B(  0-C ,  4-H ) :   0.9397
B(  2-C ,  3-C ) :   2.0072 B(  2-C ,  5-H ) :   0.9329 B(  3-C ,  6-H ) :   0.9377
B(  3-C ,  7-H ) :   0.9360

-----------------------------------------------------------------------------
         ABSORPTION SPECTRUM VIA TRANSITION ELECTRIC DIPOLE MOMENTS
-----------------------------------------------------------------------------
State   Energy    Wavelength  fosc         T2        TX        TY        TZ
        (cm-1)      (nm)                 (au**2)    (au)      (au)      (au)
-----------------------------------------------------------------------------
   1   30096.3    332.3   0.000239246   0.00262  -0.03440   0.01490  -0.03481

FINAL SINGLE POINT ENERGY      -191.627144789407

DIPOLE MOMENT
-------------
                                X             Y             Z
Electronic contribution:     -2.95256      -0.76311      -1.47916
Nuclear contribution   :      3.57797       1.26744       2.16580
                        -----------------------------------------
Total Dipole Moment    :      0.62541       0.50433       0.68664
                        -----------------------------------------
Magnitude (a.u.)       :      1.05687
Magnitude (Debye)      :      2.68634

Rotational constants in cm-1:     1.224398     0.168171     0.163344
Rotational constants in MHz : 36706.535843  5041.650703  4896.933364

                             ****ORCA TERMINATED NORMALLY****
TOTAL RUN TIME: 0 days 0 hours 3 minutes 22 seconds 859 msec
