                         Program Version 5.0.3 -  RELEASE  -
|  1> ! HF-3c
|  2> !TightSCF
|  3> %scf
|  4>  ConvForced true
|  5>  convergence tight
|  6>  MaxIter 500
|  7> end
|  8>
|  9> %tddft
| 10>  nroots 1
| 11> end
| 12>
| 13> # 	22875
| 14> * xyz 0 1
| 15> 		C   -0.577980  -0.410888  -0.036156
| 16> 		O   -0.572127  -1.625299   0.032644
| 17> 		C    0.601876   0.398876   0.041162
| 18> 		C    1.839087  -0.122650  -0.017007
| 19> 		H   -1.514676  -0.012550  -0.338862
| 20> 		H    0.551383   1.535359   0.206624
| 21> 		H    2.019828  -1.262468  -0.166577
| 22> 		H    2.791673   0.390999  -0.062788
| 23> *
| 24>
| 25>                          ****END OF INPUT****

CARTESIAN COORDINATES (ANGSTROEM)
---------------------------------
  C     -0.577980   -0.410888   -0.036156
  O     -0.572127   -1.625299    0.032644
  C      0.601876    0.398876    0.041162
  C      1.839087   -0.122650   -0.017007
  H     -1.514676   -0.012550   -0.338862
  H      0.551383    1.535359    0.206624
  H      2.019828   -1.262468   -0.166577
  H      2.791673    0.390999   -0.062788

 Total Charge           Charge          ....    0
 Multiplicity           Mult            ....    1
 Number of Electrons    NEL             ....   30
 Basis Dimension        Dim             ....   24

ORBITAL ENERGIES
----------------

  NO   OCC          E(Eh)            E(eV)
   0   2.0000     -20.354660      -553.8785
   1   2.0000     -11.293633      -307.3154
   2   2.0000     -11.190855      -304.5186
   3   2.0000     -11.188838      -304.4638
   4   2.0000      -1.396780       -38.0083
   5   2.0000      -1.072473       -29.1835
   6   2.0000      -0.893494       -24.3132
   7   2.0000      -0.754954       -20.5433
   8   2.0000      -0.695914       -18.9368
   9   2.0000      -0.616160       -16.7666
  10   2.0000      -0.588435       -16.0121
  11   2.0000      -0.537169       -14.6171
  12   2.0000      -0.504416       -13.7259
  13   2.0000      -0.418233       -11.3807
  14   2.0000      -0.386648       -10.5212
  15   0.0000       0.128589         3.4991
  16   0.0000       0.307147         8.3579
  17   0.0000       0.525580        14.3018
  18   0.0000       0.607541        16.5320
  19   0.0000       0.623311        16.9612

MULLIKEN ATOMIC CHARGES
-----------------------
   0 C :    0.141367
   1 O :   -0.349126
   2 C :   -0.182364
   3 C :   -0.196250
   4 H :    0.142646
   5 H :    0.147641
   6 H :    0.152985
   7 H :    0.143102
Sum of atomic charges:   -0.0000000

LOEWDIN ATOMIC CHARGES
----------------------
   0 C :    0.132921
   1 O :   -0.259496
   2 C :   -0.143382
   3 C :   -0.101996
   4 H :    0.075027
   5 H :    0.100221
   6 H :    0.104895
   7 H :    0.091810

  Mayer bond orders larger than 0.100000
B(  0-C ,  1-O ) :   1.8856 B(  0-C ,  2-C ) :   1.0526 B(  0-C ,  4-H ) :   0.9334
B(  2-C ,  3-C ) :   1.9283 B(  2-C ,  5-H ) :   0.9533 B(  3-C ,  6-H ) :   0.9582
B(  3-C ,  7-H ) :   0.9665

-----------------------------------------------------------------------------
         ABSORPTION SPECTRUM VIA TRANSITION ELECTRIC DIPOLE MOMENTS
-----------------------------------------------------------------------------
State   Energy    Wavelength  fosc         T2        TX        TY        TZ
        (cm-1)      (nm)                 (au**2)    (au)      (au)      (au)
-----------------------------------------------------------------------------
   1   31275.8    319.7   0.000064256   0.00068   0.02185   0.00116   0.01406

Dispersion correction           -0.025544229
FINAL SINGLE POINT ENERGY      -189.334027476015

DIPOLE MOMENT
-------------
                                X             Y             Z
Electronic contribution:     -2.03688      -1.50783       0.23704
Nuclear contribution   :      2.45260       2.39902      -0.33968
                        -----------------------------------------
Total Dipole Moment    :      0.41572       0.89119      -0.10265
                        -----------------------------------------
Magnitude (a.u.)       :      0.98872
Magnitude (Debye)      :      2.51313

Rotational constants in cm-1:     0.760731     0.212098     0.166666
Rotational constants in MHz : 22806.146434  6358.533335  4996.527795

                             ****ORCA TERMINATED NORMALLY****
TOTAL RUN TIME: 0 days 0 hours 0 minutes 12 seconds 252 msec
