                         Program Version 5.0.3 -  RELEASE  -
|  1> ! B3LYP cc-pVDZ
|  2> !TightSCF
|  3> %scf
|  4>  ConvForced true
|  5>  convergence tight
|  6>  MaxIter 500
|  7> end
|  8>
|  9> %tddft
| 10>  nroots 1
| 11> end
| 12>
| 13> # 	30766
| 14> * xyz 0 1
| 15> 		C   -0.598347  -0.445589   0.056889
| 16> 		O   -0.604425  -1.652826  -0.031124
| 17> 		C    0.660201   0.409690  -0.057627
| 18> 		C    1.862330  -0.092125   0.018663
| 19> 		H   -1.595962   0.083766   0.202183
| 20> 		H    0.444461   1.516040  -0.130440
| 21> 		H    2.006970  -1.125686   0.077182
| 22> 		H    2.775110   0.536562   0.127923
| 23> *
| 24>
| 25>                          ****END OF INPUT****

CARTESIAN COORDINATES (ANGSTROEM)
---------------------------------
  C     -0.598347   -0.445589    0.056889
  O     -0.604425   -1.652826   -0.031124
  C      0.660201    0.409690   -0.057627
  C      1.862330   -0.092125    0.018663
  H     -1.595962    0.083766    0.202183
  H      0.444461    1.516040   -0.130440
  H      2.006970   -1.125686    0.077182
  H      2.775110    0.536562    0.127923

 Total Charge           Charge          ....    0
 Multiplicity           Mult            ....    1
 Number of Electrons    NEL             ....   30
 Basis Dimension        Dim             ....   76

ORBITAL ENERGIES
----------------

  NO   OCC          E(Eh)            E(eV)
   0   2.0000     -19.140485      -520.8391
   1   2.0000     -10.280521      -279.7472
   2   2.0000     -10.208099      -277.7765
   3   2.0000     -10.205935      -277.7176
   4   2.0000      -1.047503       -28.5040
   5   2.0000      -0.796266       -21.6675
   6   2.0000      -0.649369       -17.6702
   7   2.0000      -0.542744       -14.7688
   8   2.0000      -0.502484       -13.6733
   9   2.0000      -0.450611       -12.2617
  10   2.0000      -0.428692       -11.6653
  11   2.0000      -0.397862       -10.8264
  12   2.0000      -0.378125       -10.2893
  13   2.0000      -0.292852        -7.9689
  14   2.0000      -0.255349        -6.9484
  15   0.0000      -0.063889        -1.7385
  16   0.0000       0.052827         1.4375
  17   0.0000       0.066652         1.8137
  18   0.0000       0.094984         2.5847
  19   0.0000       0.116773         3.1776

MULLIKEN ATOMIC CHARGES
-----------------------
   0 C :    0.169056
   1 O :   -0.186533
   2 C :   -0.136635
   3 C :    0.108254
   4 H :   -0.009954
   5 H :    0.000787
   6 H :    0.016646
   7 H :    0.038378
Sum of atomic charges:   -0.0000000

LOEWDIN ATOMIC CHARGES
----------------------
   0 C :   -0.027687
   1 O :   -0.004468
   2 C :   -0.082701
   3 C :    0.020157
   4 H :   -0.001525
   5 H :    0.033581
   6 H :    0.021716
   7 H :    0.040926

  Mayer bond orders larger than 0.100000
B(  0-C ,  1-O ) :   2.1982 B(  0-C ,  2-C ) :   1.0172 B(  0-C ,  4-H ) :   0.9111
B(  2-C ,  3-C ) :   1.9945 B(  2-C ,  5-H ) :   0.9395 B(  3-C ,  6-H ) :   0.9275
B(  3-C ,  7-H ) :   0.9421

-----------------------------------------------------------------------------
         ABSORPTION SPECTRUM VIA TRANSITION ELECTRIC DIPOLE MOMENTS
-----------------------------------------------------------------------------
State   Energy    Wavelength  fosc         T2        TX        TY        TZ
        (cm-1)      (nm)                 (au**2)    (au)      (au)      (au)
-----------------------------------------------------------------------------
   1   28898.0    346.0   0.000081374   0.00093   0.01451   0.00430   0.02642

FINAL SINGLE POINT ENERGY      -191.672198486880

DIPOLE MOMENT
-------------
                                X             Y             Z
Electronic contribution:     -1.87901      -1.87592      -0.17353
Nuclear contribution   :      2.24801       2.73563       0.25951
                        -----------------------------------------
Total Dipole Moment    :      0.36901       0.85971       0.08599
                        -----------------------------------------
Magnitude (a.u.)       :      0.93950
Magnitude (Debye)      :      2.38801

Rotational constants in cm-1:     0.784899     0.199674     0.159720
Rotational constants in MHz : 23530.683535  5986.062905  4788.287548

                             ****ORCA TERMINATED NORMALLY****
TOTAL RUN TIME: 0 days 0 hours 3 minutes 12 seconds 333 msec
