                         Program Version 5.0.3 -  RELEASE  -
|  1> ! HF-3c
|  2> !TightSCF
|  3> %scf
|  4>  ConvForced true
|  5>  convergence tight
|  6>  MaxIter 500
|  7> end
|  8>
|  9> %tddft
| 10>  nroots 1
| 11> end
| 12>
| 13> # 	4341
| 14> * xyz 0 1
| 15> 		C   -1.215785  -0.309615  -0.032733
| 16> 		O   -1.181688  -1.470474  -0.123478
| 17> 		C    0.035107   0.564001  -0.072383
| 18> 		C    1.200413  -0.082052   0.016927
| 19> 		H   -2.191607   0.168460   0.144379
| 20> 		H   -0.103744   1.728846   0.100527
| 21> 		H    1.397321  -1.135847  -0.063424
| 22> 		H    2.074536   0.530235   0.029252
| 23> *
| 24>
| 25>                          ****END OF INPUT****

CARTESIAN COORDINATES (ANGSTROEM)
---------------------------------
  C     -1.215785   -0.309615   -0.032733
  O     -1.181688   -1.470474   -0.123478
  C      0.035107    0.564001   -0.072383
  C      1.200413   -0.082052    0.016927
  H     -2.191607    0.168460    0.144379
  H     -0.103744    1.728846    0.100527
  H      1.397321   -1.135847   -0.063424
  H      2.074536    0.530235    0.029252

 Total Charge           Charge          ....    0
 Multiplicity           Mult            ....    1
 Number of Electrons    NEL             ....   30
 Basis Dimension        Dim             ....   24

ORBITAL ENERGIES
----------------

  NO   OCC          E(Eh)            E(eV)
   0   2.0000     -20.374786      -554.4261
   1   2.0000     -11.302223      -307.5491
   2   2.0000     -11.184827      -304.3546
   3   2.0000     -11.183491      -304.3183
   4   2.0000      -1.436119       -39.0788
   5   2.0000      -1.067304       -29.0428
   6   2.0000      -0.876267       -23.8444
   7   2.0000      -0.750947       -20.4343
   8   2.0000      -0.697156       -18.9706
   9   2.0000      -0.618488       -16.8299
  10   2.0000      -0.590688       -16.0734
  11   2.0000      -0.556778       -15.1507
  12   2.0000      -0.531637       -14.4666
  13   2.0000      -0.404274       -11.0009
  14   2.0000      -0.394519       -10.7354
  15   0.0000       0.147926         4.0253
  16   0.0000       0.307072         8.3559
  17   0.0000       0.512810        13.9543
  18   0.0000       0.560943        15.2640
  19   0.0000       0.678608        18.4659

MULLIKEN ATOMIC CHARGES
-----------------------
   0 C :    0.178017
   1 O :   -0.364764
   2 C :   -0.156501
   3 C :   -0.235258
   4 H :    0.131307
   5 H :    0.147603
   6 H :    0.160892
   7 H :    0.138704
Sum of atomic charges:    0.0000000

LOEWDIN ATOMIC CHARGES
----------------------
   0 C :    0.146661
   1 O :   -0.253937
   2 C :   -0.122899
   3 C :   -0.132997
   4 H :    0.066597
   5 H :    0.103016
   6 H :    0.105392
   7 H :    0.088167

  Mayer bond orders larger than 0.100000
B(  0-C ,  1-O ) :   1.9243 B(  0-C ,  2-C ) :   0.9907 B(  0-C ,  4-H ) :   0.9219
B(  2-C ,  3-C ) :   1.9634 B(  2-C ,  5-H ) :   0.9562 B(  3-C ,  6-H ) :   0.9594
B(  3-C ,  7-H ) :   0.9657

-----------------------------------------------------------------------------
         ABSORPTION SPECTRUM VIA TRANSITION ELECTRIC DIPOLE MOMENTS
-----------------------------------------------------------------------------
State   Energy    Wavelength  fosc         T2        TX        TY        TZ
        (cm-1)      (nm)                 (au**2)    (au)      (au)      (au)
-----------------------------------------------------------------------------
   1   35475.8    281.9   0.000100505   0.00093  -0.02960  -0.00087  -0.00747

Dispersion correction           -0.025534832
FINAL SINGLE POINT ENERGY      -189.318572129854

DIPOLE MOMENT
-------------
                                X             Y             Z
Electronic contribution:     -2.00916      -1.62643      -0.26363
Nuclear contribution   :      2.26114       2.54445       0.38554
                        -----------------------------------------
Total Dipole Moment    :      0.25198       0.91802       0.12192
                        -----------------------------------------
Magnitude (a.u.)       :      0.95975
Magnitude (Debye)      :      2.43948

Rotational constants in cm-1:     0.737574     0.217139     0.168161
Rotational constants in MHz : 22111.919145  6509.658265  5041.347701

                             ****ORCA TERMINATED NORMALLY****
TOTAL RUN TIME: 0 days 0 hours 0 minutes 12 seconds 986 msec
