                         Program Version 5.0.3 -  RELEASE  -
|  1> ! HF-3c
|  2> !TightSCF
|  3> %scf
|  4>  ConvForced true
|  5>  convergence tight
|  6>  MaxIter 500
|  7> end
|  8>
|  9> %tddft
| 10>  nroots 1
| 11> end
| 12>
| 13> # 	16509
| 14> * xyz 0 1
| 15> 		C   -1.176271  -0.340824   0.016240
| 16> 		O   -1.589879  -1.256684   0.736564
| 17> 		C    0.008172   0.488836   0.245605
| 18> 		C    1.145525   0.101371  -0.170396
| 19> 		H   -1.608606   0.005448  -1.008632
| 20> 		H   -0.156787   1.138140   0.979865
| 21> 		H    1.308915  -0.776350  -0.833322
| 22> 		H    2.066837   0.646414   0.025283
| 23> *
| 24>
| 25>                          ****END OF INPUT****

CARTESIAN COORDINATES (ANGSTROEM)
---------------------------------
  C     -1.176271   -0.340824    0.016240
  O     -1.589879   -1.256684    0.736564
  C      0.008172    0.488836    0.245605
  C      1.145525    0.101371   -0.170396
  H     -1.608606    0.005448   -1.008632
  H     -0.156787    1.138140    0.979865
  H      1.308915   -0.776350   -0.833322
  H      2.066837    0.646414    0.025283

 Total Charge           Charge          ....    0
 Multiplicity           Mult            ....    1
 Number of Electrons    NEL             ....   30
 Basis Dimension        Dim             ....   24

ORBITAL ENERGIES
----------------

  NO   OCC          E(Eh)            E(eV)
   0   2.0000     -20.372557      -554.3655
   1   2.0000     -11.294562      -307.3406
   2   2.0000     -11.198659      -304.7310
   3   2.0000     -11.193877      -304.6009
   4   2.0000      -1.387031       -37.7430
   5   2.0000      -1.112272       -30.2665
   6   2.0000      -0.895461       -24.3667
   7   2.0000      -0.773745       -21.0547
   8   2.0000      -0.679209       -18.4822
   9   2.0000      -0.653076       -17.7711
  10   2.0000      -0.610764       -16.6197
  11   2.0000      -0.546442       -14.8695
  12   2.0000      -0.497291       -13.5320
  13   2.0000      -0.426523       -11.6063
  14   2.0000      -0.404067       -10.9952
  15   0.0000       0.182213         4.9583
  16   0.0000       0.224880         6.1193
  17   0.0000       0.538733        14.6597
  18   0.0000       0.584764        15.9123
  19   0.0000       0.671968        18.2852

MULLIKEN ATOMIC CHARGES
-----------------------
   0 C :    0.186393
   1 O :   -0.341416
   2 C :   -0.204721
   3 C :   -0.226775
   4 H :    0.136620
   5 H :    0.159116
   6 H :    0.145207
   7 H :    0.145574
Sum of atomic charges:   -0.0000000

LOEWDIN ATOMIC CHARGES
----------------------
   0 C :    0.168145
   1 O :   -0.254124
   2 C :   -0.145205
   3 C :   -0.134992
   4 H :    0.078539
   5 H :    0.097898
   6 H :    0.095744
   7 H :    0.093995

  Mayer bond orders larger than 0.100000
B(  0-C ,  1-O ) :   1.9551 B(  0-C ,  2-C ) :   0.9858 B(  0-C ,  4-H ) :   0.9116
B(  2-C ,  3-C ) :   2.0016 B(  2-C ,  5-H ) :   0.9465 B(  3-C ,  6-H ) :   0.9611
B(  3-C ,  7-H ) :   0.9596

-----------------------------------------------------------------------------
         ABSORPTION SPECTRUM VIA TRANSITION ELECTRIC DIPOLE MOMENTS
-----------------------------------------------------------------------------
State   Energy    Wavelength  fosc         T2        TX        TY        TZ
        (cm-1)      (nm)                 (au**2)    (au)      (au)      (au)
-----------------------------------------------------------------------------
   1   33797.8    295.9   0.000010846   0.00011  -0.00361  -0.00539  -0.00798

Dispersion correction           -0.025797858
FINAL SINGLE POINT ENERGY      -189.306482610141

DIPOLE MOMENT
-------------
                                X             Y             Z
Electronic contribution:     -2.58831      -1.34067       0.99883
Nuclear contribution   :      3.10575       2.01355      -1.58321
                        -----------------------------------------
Total Dipole Moment    :      0.51745       0.67288      -0.58438
                        -----------------------------------------
Magnitude (a.u.)       :      1.03054
Magnitude (Debye)      :      2.61943

Rotational constants in cm-1:     0.995564     0.173029     0.164628
Rotational constants in MHz : 29846.257007  5187.275959  4935.421437

                             ****ORCA TERMINATED NORMALLY****
TOTAL RUN TIME: 0 days 0 hours 0 minutes 16 seconds 88 msec
