                         Program Version 5.0.3 -  RELEASE  -
|  1> ! HF-3c
|  2> !TightSCF
|  3> %scf
|  4>  ConvForced true
|  5>  convergence tight
|  6>  MaxIter 500
|  7> end
|  8>
|  9> %tddft
| 10>  nroots 1
| 11> end
| 12>
| 13> # 	685
| 14> * xyz 0 1
| 15> 		C   -1.164985  -0.322113  -0.070160
| 16> 		O   -1.336150  -1.477825  -0.316497
| 17> 		C   -0.009394   0.516362  -0.088243
| 18> 		C    1.209076   0.013941   0.058076
| 19> 		H   -2.081500   0.268381   0.291605
| 20> 		H   -0.212931   1.515421  -0.180062
| 21> 		H    1.438868  -0.990912   0.243796
| 22> 		H    2.194562   0.553450   0.004281
| 23> *
| 24>
| 25>                          ****END OF INPUT****

CARTESIAN COORDINATES (ANGSTROEM)
---------------------------------
  C     -1.164985   -0.322113   -0.070160
  O     -1.336150   -1.477825   -0.316497
  C     -0.009394    0.516362   -0.088243
  C      1.209076    0.013941    0.058076
  H     -2.081500    0.268381    0.291605
  H     -0.212931    1.515421   -0.180062
  H      1.438868   -0.990912    0.243796
  H      2.194562    0.553450    0.004281

 Total Charge           Charge          ....    0
 Multiplicity           Mult            ....    1
 Number of Electrons    NEL             ....   30
 Basis Dimension        Dim             ....   24

ORBITAL ENERGIES
----------------

  NO   OCC          E(Eh)            E(eV)
   0   2.0000     -20.368409      -554.2526
   1   2.0000     -11.297725      -307.4267
   2   2.0000     -11.204766      -304.8972
   3   2.0000     -11.201086      -304.7971
   4   2.0000      -1.410552       -38.3831
   5   2.0000      -1.098517       -29.8922
   6   2.0000      -0.907987       -24.7076
   7   2.0000      -0.757451       -20.6113
   8   2.0000      -0.709582       -19.3087
   9   2.0000      -0.638430       -17.3726
  10   2.0000      -0.601777       -16.3752
  11   2.0000      -0.543928       -14.8010
  12   2.0000      -0.539802       -14.6888
  13   2.0000      -0.412756       -11.2316
  14   2.0000      -0.397163       -10.8074
  15   0.0000       0.130210         3.5432
  16   0.0000       0.308288         8.3889
  17   0.0000       0.538481        14.6528
  18   0.0000       0.654325        17.8051
  19   0.0000       0.679211        18.4823

MULLIKEN ATOMIC CHARGES
-----------------------
   0 C :    0.180019
   1 O :   -0.355373
   2 C :   -0.200386
   3 C :   -0.198475
   4 H :    0.121441
   5 H :    0.151339
   6 H :    0.152124
   7 H :    0.149310
Sum of atomic charges:   -0.0000000

LOEWDIN ATOMIC CHARGES
----------------------
   0 C :    0.153013
   1 O :   -0.256335
   2 C :   -0.149381
   3 C :   -0.096550
   4 H :    0.061896
   5 H :    0.093008
   6 H :    0.094741
   7 H :    0.099607

  Mayer bond orders larger than 0.100000
B(  0-C ,  1-O ) :   1.9058 B(  0-C ,  2-C ) :   1.0385 B(  0-C ,  4-H ) :   0.9164
B(  2-C ,  3-C ) :   1.9356 B(  2-C ,  5-H ) :   0.9560 B(  3-C ,  6-H ) :   0.9638
B(  3-C ,  7-H ) :   0.9629

-----------------------------------------------------------------------------
         ABSORPTION SPECTRUM VIA TRANSITION ELECTRIC DIPOLE MOMENTS
-----------------------------------------------------------------------------
State   Energy    Wavelength  fosc         T2        TX        TY        TZ
        (cm-1)      (nm)                 (au**2)    (au)      (au)      (au)
-----------------------------------------------------------------------------
   1   32793.3    304.9   0.000263085   0.00264   0.05012  -0.00220   0.01117

Dispersion correction           -0.025694309
FINAL SINGLE POINT ENERGY      -189.327291310504

DIPOLE MOMENT
-------------
                                X             Y             Z
Electronic contribution:     -2.00329      -1.67796      -0.48565
Nuclear contribution   :      2.55429       2.57087       0.72960
                        -----------------------------------------
Total Dipole Moment    :      0.55100       0.89291       0.24395
                        -----------------------------------------
Magnitude (a.u.)       :      1.07722
Magnitude (Debye)      :      2.73806

Rotational constants in cm-1:     0.844364     0.198374     0.162424
Rotational constants in MHz : 25313.384729  5947.104331  4869.341769

                             ****ORCA TERMINATED NORMALLY****
TOTAL RUN TIME: 0 days 0 hours 0 minutes 11 seconds 446 msec
