                         Program Version 5.0.3 -  RELEASE  -
|  1> ! HF-3c
|  2> !TightSCF
|  3> %scf
|  4>  ConvForced true
|  5>  convergence tight
|  6>  MaxIter 500
|  7> end
|  8>
|  9> %tddft
| 10>  nroots 1
| 11> end
| 12>
| 13> # 	25366
| 14> * xyz 0 1
| 15> 		C   -0.564339  -0.459590   0.068014
| 16> 		O   -0.611842  -1.656867  -0.041300
| 17> 		C    0.632323   0.415996  -0.054167
| 18> 		C    1.857442  -0.096383   0.047279
| 19> 		H   -1.499540   0.322305   0.185754
| 20> 		H    0.423946   1.563337  -0.224827
| 21> 		H    2.106124  -1.171549   0.021863
| 22> 		H    2.713938   0.542579  -0.073217
| 23> *
| 24>
| 25>                          ****END OF INPUT****

CARTESIAN COORDINATES (ANGSTROEM)
---------------------------------
  C     -0.564339   -0.459590    0.068014
  O     -0.611842   -1.656867   -0.041300
  C      0.632323    0.415996   -0.054167
  C      1.857442   -0.096383    0.047279
  H     -1.499540    0.322305    0.185754
  H      0.423946    1.563337   -0.224827
  H      2.106124   -1.171549    0.021863
  H      2.713938    0.542579   -0.073217

 Total Charge           Charge          ....    0
 Multiplicity           Mult            ....    1
 Number of Electrons    NEL             ....   30
 Basis Dimension        Dim             ....   24

ORBITAL ENERGIES
----------------

  NO   OCC          E(Eh)            E(eV)
   0   2.0000     -20.369667      -554.2868
   1   2.0000     -11.294061      -307.3270
   2   2.0000     -11.186935      -304.4120
   3   2.0000     -11.183568      -304.3204
   4   2.0000      -1.403201       -38.1830
   5   2.0000      -1.071819       -29.1657
   6   2.0000      -0.883272       -24.0351
   7   2.0000      -0.722840       -19.6695
   8   2.0000      -0.683434       -18.5972
   9   2.0000      -0.614751       -16.7282
  10   2.0000      -0.586009       -15.9461
  11   2.0000      -0.541178       -14.7262
  12   2.0000      -0.521515       -14.1912
  13   2.0000      -0.395613       -10.7652
  14   2.0000      -0.393665       -10.7122
  15   0.0000       0.136006         3.7009
  16   0.0000       0.309429         8.4200
  17   0.0000       0.491026        13.3615
  18   0.0000       0.558597        15.2002
  19   0.0000       0.603091        16.4109

MULLIKEN ATOMIC CHARGES
-----------------------
   0 C :    0.189635
   1 O :   -0.361174
   2 C :   -0.167506
   3 C :   -0.224677
   4 H :    0.122632
   5 H :    0.143489
   6 H :    0.158344
   7 H :    0.139258
Sum of atomic charges:    0.0000000

LOEWDIN ATOMIC CHARGES
----------------------
   0 C :    0.157722
   1 O :   -0.261854
   2 C :   -0.133674
   3 C :   -0.125188
   4 H :    0.069719
   5 H :    0.098812
   6 H :    0.105754
   7 H :    0.088707

  Mayer bond orders larger than 0.100000
B(  0-C ,  1-O ) :   1.9207 B(  0-C ,  2-C ) :   1.0140 B(  0-C ,  4-H ) :   0.9054
B(  2-C ,  3-C ) :   1.9503 B(  2-C ,  5-H ) :   0.9557 B(  3-C ,  6-H ) :   0.9587
B(  3-C ,  7-H ) :   0.9652

-----------------------------------------------------------------------------
         ABSORPTION SPECTRUM VIA TRANSITION ELECTRIC DIPOLE MOMENTS
-----------------------------------------------------------------------------
State   Energy    Wavelength  fosc         T2        TX        TY        TZ
        (cm-1)      (nm)                 (au**2)    (au)      (au)      (au)
-----------------------------------------------------------------------------
   1   33247.5    300.8   0.000175303   0.00174   0.04145  -0.00395   0.00134

Dispersion correction           -0.025253525
FINAL SINGLE POINT ENERGY      -189.322343285676

DIPOLE MOMENT
-------------
                                X             Y             Z
Electronic contribution:     -2.02236      -1.95217       0.11058
Nuclear contribution   :      2.35401       2.96368      -0.08426
                        -----------------------------------------
Total Dipole Moment    :      0.33165       1.01151       0.02632
                        -----------------------------------------
Magnitude (a.u.)       :      1.06482
Magnitude (Debye)      :      2.70656

Rotational constants in cm-1:     0.754580     0.202430     0.160329
Rotational constants in MHz : 22621.741580  6068.686257  4806.544679

                             ****ORCA TERMINATED NORMALLY****
TOTAL RUN TIME: 0 days 0 hours 0 minutes 11 seconds 326 msec
