                         Program Version 5.0.3 -  RELEASE  -
|  1> ! B3LYP cc-pVDZ
|  2> !TightSCF
|  3> %scf
|  4>  ConvForced true
|  5>  convergence tight
|  6>  MaxIter 500
|  7> end
|  8>
|  9> %tddft
| 10>  nroots 1
| 11> end
| 12>
| 13> # 	26498
| 14> * xyz 0 1
| 15> 		C   -0.549679  -0.418916   0.011296
| 16> 		O   -0.594895  -1.602043  -0.005725
| 17> 		C    0.622964   0.334066  -0.060444
| 18> 		C    1.822845  -0.095744   0.027210
| 19> 		H   -1.527034   0.114134   0.262568
| 20> 		H    0.574986   1.407484   0.018433
| 21> 		H    1.999352  -1.106212  -0.101211
| 22> 		H    2.747722   0.416705   0.180370
| 23> *
| 24>
| 25>                          ****END OF INPUT****

CARTESIAN COORDINATES (ANGSTROEM)
---------------------------------
  C     -0.549679   -0.418916    0.011296
  O     -0.594895   -1.602043   -0.005725
  C      0.622964    0.334066   -0.060444
  C      1.822845   -0.095744    0.027210
  H     -1.527034    0.114134    0.262568
  H      0.574986    1.407484    0.018433
  H      1.999352   -1.106212   -0.101211
  H      2.747722    0.416705    0.180370

 Total Charge           Charge          ....    0
 Multiplicity           Mult            ....    1
 Number of Electrons    NEL             ....   30
 Basis Dimension        Dim             ....   76

ORBITAL ENERGIES
----------------

  NO   OCC          E(Eh)            E(eV)
   0   2.0000     -19.132302      -520.6164
   1   2.0000     -10.267908      -279.4040
   2   2.0000     -10.200362      -277.5660
   3   2.0000     -10.191199      -277.3166
   4   2.0000      -1.060318       -28.8527
   5   2.0000      -0.817655       -22.2495
   6   2.0000      -0.670479       -18.2447
   7   2.0000      -0.548648       -14.9295
   8   2.0000      -0.522728       -14.2242
   9   2.0000      -0.458668       -12.4810
  10   2.0000      -0.432080       -11.7575
  11   2.0000      -0.411926       -11.2091
  12   2.0000      -0.367547       -10.0015
  13   2.0000      -0.296515        -8.0686
  14   2.0000      -0.253431        -6.8962
  15   0.0000      -0.066864        -1.8195
  16   0.0000       0.062266         1.6944
  17   0.0000       0.082901         2.2559
  18   0.0000       0.100808         2.7431
  19   0.0000       0.129237         3.5167

MULLIKEN ATOMIC CHARGES
-----------------------
   0 C :    0.161288
   1 O :   -0.168393
   2 C :   -0.087839
   3 C :    0.127780
   4 H :   -0.032489
   5 H :   -0.025354
   6 H :    0.002297
   7 H :    0.022711
Sum of atomic charges:   -0.0000000

LOEWDIN ATOMIC CHARGES
----------------------
   0 C :   -0.066187
   1 O :    0.022229
   2 C :   -0.086375
   3 C :    0.050694
   4 H :   -0.003329
   5 H :    0.032397
   6 H :    0.018311
   7 H :    0.032261

  Mayer bond orders larger than 0.100000
B(  0-C ,  1-O ) :   2.2241 B(  0-C ,  2-C ) :   1.0730 B(  0-C ,  4-H ) :   0.9157
B(  2-C ,  3-C ) :   1.9878 B(  2-C ,  5-H ) :   0.9349 B(  3-C ,  6-H ) :   0.9277
B(  3-C ,  7-H ) :   0.9429

-----------------------------------------------------------------------------
         ABSORPTION SPECTRUM VIA TRANSITION ELECTRIC DIPOLE MOMENTS
-----------------------------------------------------------------------------
State   Energy    Wavelength  fosc         T2        TX        TY        TZ
        (cm-1)      (nm)                 (au**2)    (au)      (au)      (au)
-----------------------------------------------------------------------------
   1   27999.2    357.2   0.000364715   0.00429  -0.05411  -0.01094  -0.03522

FINAL SINGLE POINT ENERGY      -191.657398422844

DIPOLE MOMENT
-------------
                                X             Y             Z
Electronic contribution:     -1.88627      -1.72870      -0.28925
Nuclear contribution   :      2.40369       2.56878       0.33727
                        -----------------------------------------
Total Dipole Moment    :      0.51743       0.84008       0.04803
                        -----------------------------------------
Magnitude (a.u.)       :      0.98781
Magnitude (Debye)      :      2.51082

Rotational constants in cm-1:     0.863895     0.213724     0.171922
Rotational constants in MHz : 25898.925631  6407.272548  5154.085833

                             ****ORCA TERMINATED NORMALLY****
TOTAL RUN TIME: 0 days 0 hours 3 minutes 22 seconds 264 msec
