                         Program Version 5.0.3 -  RELEASE  -
|  1> ! HF-3c
|  2> !TightSCF
|  3> %scf
|  4>  ConvForced true
|  5>  convergence tight
|  6>  MaxIter 500
|  7> end
|  8>
|  9> %tddft
| 10>  nroots 1
| 11> end
| 12>
| 13> # 	4313
| 14> * xyz 0 1
| 15> 		C   -1.202352  -0.260601   0.019846
| 16> 		O   -2.044056  -0.614801   0.813003
| 17> 		C    0.059390   0.404581   0.384966
| 18> 		C    1.222695   0.113824  -0.245959
| 19> 		H   -1.341115  -0.790223  -1.029805
| 20> 		H    0.055029   1.147907   1.251486
| 21> 		H    1.208015  -0.441170  -1.138061
| 22> 		H    2.054605   0.476931  -0.050774
| 23> *
| 24>
| 25>                          ****END OF INPUT****

CARTESIAN COORDINATES (ANGSTROEM)
---------------------------------
  C     -1.202352   -0.260601    0.019846
  O     -2.044056   -0.614801    0.813003
  C      0.059390    0.404581    0.384966
  C      1.222695    0.113824   -0.245959
  H     -1.341115   -0.790223   -1.029805
  H      0.055029    1.147907    1.251486
  H      1.208015   -0.441170   -1.138061
  H      2.054605    0.476931   -0.050774

 Total Charge           Charge          ....    0
 Multiplicity           Mult            ....    1
 Number of Electrons    NEL             ....   30
 Basis Dimension        Dim             ....   24

ORBITAL ENERGIES
----------------

  NO   OCC          E(Eh)            E(eV)
   0   2.0000     -20.367714      -554.2337
   1   2.0000     -11.297479      -307.4200
   2   2.0000     -11.208176      -304.9900
   3   2.0000     -11.197326      -304.6947
   4   2.0000      -1.405759       -38.2527
   5   2.0000      -1.088920       -29.6310
   6   2.0000      -0.898192       -24.4411
   7   2.0000      -0.769498       -20.9391
   8   2.0000      -0.676567       -18.4103
   9   2.0000      -0.670510       -18.2455
  10   2.0000      -0.581957       -15.8358
  11   2.0000      -0.562453       -15.3051
  12   2.0000      -0.527927       -14.3656
  13   2.0000      -0.410863       -11.1802
  14   2.0000      -0.398615       -10.8469
  15   0.0000       0.128125         3.4865
  16   0.0000       0.275776         7.5042
  17   0.0000       0.513190        13.9646
  18   0.0000       0.591255        16.0889
  19   0.0000       0.666017        18.1233

MULLIKEN ATOMIC CHARGES
-----------------------
   0 C :    0.163681
   1 O :   -0.347506
   2 C :   -0.137679
   3 C :   -0.268646
   4 H :    0.139117
   5 H :    0.162442
   6 H :    0.146104
   7 H :    0.142487
Sum of atomic charges:    0.0000000

LOEWDIN ATOMIC CHARGES
----------------------
   0 C :    0.137687
   1 O :   -0.252297
   2 C :   -0.092150
   3 C :   -0.159265
   4 H :    0.081734
   5 H :    0.110572
   6 H :    0.093361
   7 H :    0.080357

  Mayer bond orders larger than 0.100000
B(  0-C ,  1-O ) :   1.9099 B(  0-C ,  2-C ) :   1.0253 B(  0-C ,  4-H ) :   0.9178
B(  2-C ,  3-C ) :   1.9527 B(  2-C ,  5-H ) :   0.9506 B(  3-C ,  6-H ) :   0.9653
B(  3-C ,  7-H ) :   0.9704

-----------------------------------------------------------------------------
         ABSORPTION SPECTRUM VIA TRANSITION ELECTRIC DIPOLE MOMENTS
-----------------------------------------------------------------------------
State   Energy    Wavelength  fosc         T2        TX        TY        TZ
        (cm-1)      (nm)                 (au**2)    (au)      (au)      (au)
-----------------------------------------------------------------------------
   1   31810.2    314.4   0.000206307   0.00214  -0.01400  -0.03146  -0.03081

Dispersion correction           -0.025238805
FINAL SINGLE POINT ENERGY      -189.306000482520

DIPOLE MOMENT
-------------
                                X             Y             Z
Electronic contribution:     -3.05321      -0.49804       1.24405
Nuclear contribution   :      3.82349       0.78629      -1.83213
                        -----------------------------------------
Total Dipole Moment    :      0.77028       0.28824      -0.58807
                        -----------------------------------------
Magnitude (a.u.)       :      1.01106
Magnitude (Debye)      :      2.56991

Rotational constants in cm-1:     1.378349     0.156200     0.145049
Rotational constants in MHz : 41321.860453  4682.745357  4348.451065

                             ****ORCA TERMINATED NORMALLY****
TOTAL RUN TIME: 0 days 0 hours 0 minutes 10 seconds 891 msec
