                         Program Version 5.0.3 -  RELEASE  -
|  1> ! B3LYP cc-pVDZ
|  2> !TightSCF
|  3> %scf
|  4>  ConvForced true
|  5>  convergence tight
|  6>  MaxIter 500
|  7> end
|  8>
|  9> %tddft
| 10>  nroots 1
| 11> end
| 12>
| 13> # 	6310
| 14> * xyz 0 1
| 15> 		C   -1.189432  -0.334736  -0.015675
| 16> 		O   -1.636841  -1.029993   0.776888
| 17> 		C    0.027545   0.504740   0.273048
| 18> 		C    1.211915   0.031797  -0.116576
| 19> 		H   -1.627569  -0.327506  -1.073916
| 20> 		H   -0.230251   1.259519   0.856208
| 21> 		H    1.338470  -0.882346  -0.687570
| 22> 		H    2.071198   0.799614   0.005198
| 23> *
| 24>
| 25>                          ****END OF INPUT****

CARTESIAN COORDINATES (ANGSTROEM)
---------------------------------
  C     -1.189432   -0.334736   -0.015675
  O     -1.636841   -1.029993    0.776888
  C      0.027545    0.504740    0.273048
  C      1.211915    0.031797   -0.116576
  H     -1.627569   -0.327506   -1.073916
  H     -0.230251    1.259519    0.856208
  H      1.338470   -0.882346   -0.687570
  H      2.071198    0.799614    0.005198

 Total Charge           Charge          ....    0
 Multiplicity           Mult            ....    1
 Number of Electrons    NEL             ....   30
 Basis Dimension        Dim             ....   76

ORBITAL ENERGIES
----------------

  NO   OCC          E(Eh)            E(eV)
   0   2.0000     -19.142122      -520.8836
   1   2.0000     -10.272816      -279.5375
   2   2.0000     -10.208955      -277.7998
   3   2.0000     -10.194322      -277.4016
   4   2.0000      -1.089266       -29.6404
   5   2.0000      -0.794584       -21.6217
   6   2.0000      -0.638764       -17.3816
   7   2.0000      -0.566930       -15.4270
   8   2.0000      -0.494798       -13.4641
   9   2.0000      -0.462829       -12.5942
  10   2.0000      -0.450303       -12.2534
  11   2.0000      -0.399078       -10.8595
  12   2.0000      -0.390547       -10.6273
  13   2.0000      -0.286592        -7.7986
  14   2.0000      -0.246369        -6.7040
  15   0.0000      -0.028571        -0.7775
  16   0.0000       0.006451         0.1755
  17   0.0000       0.082320         2.2400
  18   0.0000       0.097681         2.6580
  19   0.0000       0.102006         2.7757

MULLIKEN ATOMIC CHARGES
-----------------------
   0 C :    0.112703
   1 O :   -0.124965
   2 C :   -0.002667
   3 C :    0.005892
   4 H :   -0.029513
   5 H :   -0.031698
   6 H :    0.026920
   7 H :    0.043327
Sum of atomic charges:   -0.0000000

LOEWDIN ATOMIC CHARGES
----------------------
   0 C :   -0.061789
   1 O :    0.070045
   2 C :   -0.035441
   3 C :   -0.032153
   4 H :   -0.015849
   5 H :    0.002245
   6 H :    0.027303
   7 H :    0.045639

  Mayer bond orders larger than 0.100000
B(  0-C ,  1-O ) :   2.2913 B(  0-C ,  2-C ) :   0.9725 B(  0-C ,  4-H ) :   0.8997
B(  2-C ,  3-C ) :   2.0287 B(  2-C ,  5-H ) :   0.9482 B(  3-C ,  6-H ) :   0.9425
B(  3-C ,  7-H ) :   0.9420

-----------------------------------------------------------------------------
         ABSORPTION SPECTRUM VIA TRANSITION ELECTRIC DIPOLE MOMENTS
-----------------------------------------------------------------------------
State   Energy    Wavelength  fosc         T2        TX        TY        TZ
        (cm-1)      (nm)                 (au**2)    (au)      (au)      (au)
-----------------------------------------------------------------------------
   1   34707.3    288.1   0.000996811   0.00946  -0.05823   0.03720   0.06842

FINAL SINGLE POINT ENERGY      -191.612853562454

DIPOLE MOMENT
-------------
                                X             Y             Z
Electronic contribution:     -2.63835      -1.14853       1.28473
Nuclear contribution   :      3.04602       1.66851      -1.72087
                        -----------------------------------------
Total Dipole Moment    :      0.40767       0.51998      -0.43615
                        -----------------------------------------
Magnitude (a.u.)       :      0.79171
Magnitude (Debye)      :      2.01236

Rotational constants in cm-1:     1.014603     0.173055     0.167051
Rotational constants in MHz : 30417.018529  5188.047582  5008.071257

                             ****ORCA TERMINATED NORMALLY****
TOTAL RUN TIME: 0 days 0 hours 3 minutes 4 seconds 2 msec
