                         Program Version 5.0.3 -  RELEASE  -
|  1> ! B3LYP cc-pVDZ
|  2> !TightSCF
|  3> %scf
|  4>  ConvForced true
|  5>  convergence tight
|  6>  MaxIter 500
|  7> end
|  8>
|  9> %tddft
| 10>  nroots 1
| 11> end
| 12>
| 13> # 	23761
| 14> * xyz 0 1
| 15> 		C   -0.601699  -0.408456  -0.003971
| 16> 		O   -0.554757  -1.623884  -0.003254
| 17> 		C    0.640554   0.421621   0.024375
| 18> 		C    1.815263  -0.174145   0.008445
| 19> 		H   -1.612083   0.151702  -0.012039
| 20> 		H    0.380674   1.412655  -0.140622
| 21> 		H    2.133606  -1.165676  -0.050257
| 22> 		H    2.757213   0.588722  -0.099664
| 23> *
| 24>
| 25>                          ****END OF INPUT****

CARTESIAN COORDINATES (ANGSTROEM)
---------------------------------
  C     -0.601699   -0.408456   -0.003971
  O     -0.554757   -1.623884   -0.003254
  C      0.640554    0.421621    0.024375
  C      1.815263   -0.174145    0.008445
  H     -1.612083    0.151702   -0.012039
  H      0.380674    1.412655   -0.140622
  H      2.133606   -1.165676   -0.050257
  H      2.757213    0.588722   -0.099664

 Total Charge           Charge          ....    0
 Multiplicity           Mult            ....    1
 Number of Electrons    NEL             ....   30
 Basis Dimension        Dim             ....   76

ORBITAL ENERGIES
----------------

  NO   OCC          E(Eh)            E(eV)
   0   2.0000     -19.136262      -520.7242
   1   2.0000     -10.275219      -279.6029
   2   2.0000     -10.219963      -278.0993
   3   2.0000     -10.201803      -277.6052
   4   2.0000      -1.041507       -28.3408
   5   2.0000      -0.797377       -21.6977
   6   2.0000      -0.655430       -17.8352
   7   2.0000      -0.546330       -14.8664
   8   2.0000      -0.498270       -13.5586
   9   2.0000      -0.465528       -12.6677
  10   2.0000      -0.419131       -11.4051
  11   2.0000      -0.395960       -10.7746
  12   2.0000      -0.366940        -9.9850
  13   2.0000      -0.290965        -7.9176
  14   2.0000      -0.252225        -6.8634
  15   0.0000      -0.068836        -1.8731
  16   0.0000       0.055988         1.5235
  17   0.0000       0.058804         1.6002
  18   0.0000       0.087008         2.3676
  19   0.0000       0.120329         3.2743

MULLIKEN ATOMIC CHARGES
-----------------------
   0 C :    0.148222
   1 O :   -0.193812
   2 C :   -0.043768
   3 C :    0.060472
   4 H :   -0.016182
   5 H :   -0.023903
   6 H :    0.028754
   7 H :    0.040217
Sum of atomic charges:    0.0000000

LOEWDIN ATOMIC CHARGES
----------------------
   0 C :   -0.031127
   1 O :   -0.012376
   2 C :   -0.076503
   3 C :    0.034030
   4 H :   -0.002869
   5 H :    0.017218
   6 H :    0.021604
   7 H :    0.050024

  Mayer bond orders larger than 0.100000
B(  0-C ,  1-O ) :   2.1953 B(  0-C ,  2-C ) :   1.0575 B(  0-C ,  4-H ) :   0.9062
B(  2-C ,  3-C ) :   1.9503 B(  2-C ,  5-H ) :   0.9459 B(  3-C ,  6-H ) :   0.9496
B(  3-C ,  7-H ) :   0.9408

-----------------------------------------------------------------------------
         ABSORPTION SPECTRUM VIA TRANSITION ELECTRIC DIPOLE MOMENTS
-----------------------------------------------------------------------------
State   Energy    Wavelength  fosc         T2        TX        TY        TZ
        (cm-1)      (nm)                 (au**2)    (au)      (au)      (au)
-----------------------------------------------------------------------------
   1   27325.8    366.0   0.000224587   0.00271   0.03799   0.01197  -0.03345

FINAL SINGLE POINT ENERGY      -191.663232091007

DIPOLE MOMENT
-------------
                                X             Y             Z
Electronic contribution:     -1.91728      -1.86665       0.21423
Nuclear contribution   :      2.27700       2.71128      -0.28321
                        -----------------------------------------
Total Dipole Moment    :      0.35972       0.84463      -0.06899
                        -----------------------------------------
Magnitude (a.u.)       :      0.92062
Magnitude (Debye)      :      2.34004

Rotational constants in cm-1:     0.736152     0.215310     0.166722
Rotational constants in MHz : 22069.280001  6454.821282  4998.185148

                             ****ORCA TERMINATED NORMALLY****
TOTAL RUN TIME: 0 days 0 hours 2 minutes 59 seconds 626 msec
