                         Program Version 5.0.3 -  RELEASE  -
|  1> ! B3LYP cc-pVDZ
|  2> !TightSCF
|  3> %scf
|  4>  ConvForced true
|  5>  convergence tight
|  6>  MaxIter 500
|  7> end
|  8>
|  9> %tddft
| 10>  nroots 1
| 11> end
| 12>
| 13> # 	5690
| 14> * xyz 0 1
| 15> 		C   -1.238312  -0.284516   0.110196
| 16> 		O   -1.391089  -1.312823   0.751653
| 17> 		C   -0.016896   0.482207   0.217834
| 18> 		C    1.224978   0.065905  -0.189509
| 19> 		H   -1.937714  -0.064781  -0.772948
| 20> 		H   -0.120811   1.485344   0.614886
| 21> 		H    1.289049  -1.029179  -0.585076
| 22> 		H    2.208586   0.610830  -0.131248
| 23> *
| 24>
| 25>                          ****END OF INPUT****

CARTESIAN COORDINATES (ANGSTROEM)
---------------------------------
  C     -1.238312   -0.284516    0.110196
  O     -1.391089   -1.312823    0.751653
  C     -0.016896    0.482207    0.217834
  C      1.224978    0.065905   -0.189509
  H     -1.937714   -0.064781   -0.772948
  H     -0.120811    1.485344    0.614886
  H      1.289049   -1.029179   -0.585076
  H      2.208586    0.610830   -0.131248

 Total Charge           Charge          ....    0
 Multiplicity           Mult            ....    1
 Number of Electrons    NEL             ....   30
 Basis Dimension        Dim             ....   76

ORBITAL ENERGIES
----------------

  NO   OCC          E(Eh)            E(eV)
   0   2.0000     -19.144288      -520.9426
   1   2.0000     -10.283344      -279.8240
   2   2.0000     -10.222129      -278.1583
   3   2.0000     -10.210430      -277.8399
   4   2.0000      -1.046622       -28.4800
   5   2.0000      -0.789290       -21.4777
   6   2.0000      -0.653617       -17.7858
   7   2.0000      -0.548987       -14.9387
   8   2.0000      -0.494716       -13.4619
   9   2.0000      -0.457936       -12.4611
  10   2.0000      -0.439715       -11.9653
  11   2.0000      -0.384185       -10.4542
  12   2.0000      -0.365557        -9.9473
  13   2.0000      -0.282889        -7.6978
  14   2.0000      -0.256262        -6.9732
  15   0.0000      -0.047528        -1.2933
  16   0.0000      -0.010445        -0.2842
  17   0.0000       0.077084         2.0975
  18   0.0000       0.087934         2.3928
  19   0.0000       0.097835         2.6622

MULLIKEN ATOMIC CHARGES
-----------------------
   0 C :    0.148914
   1 O :   -0.187950
   2 C :   -0.050048
   3 C :   -0.022822
   4 H :    0.004790
   5 H :    0.012560
   6 H :    0.043868
   7 H :    0.050688
Sum of atomic charges:   -0.0000000

LOEWDIN ATOMIC CHARGES
----------------------
   0 C :   -0.028298
   1 O :    0.000755
   2 C :   -0.063740
   3 C :   -0.026557
   4 H :    0.005726
   5 H :    0.032410
   6 H :    0.040887
   7 H :    0.038816

  Mayer bond orders larger than 0.100000
B(  0-C ,  1-O ) :   2.2030 B(  0-C ,  2-C ) :   1.0025 B(  0-C ,  4-H ) :   0.9134
B(  2-C ,  3-C ) :   2.0064 B(  2-C ,  5-H ) :   0.9335 B(  3-C ,  6-H ) :   0.9418
B(  3-C ,  7-H ) :   0.9483

-----------------------------------------------------------------------------
         ABSORPTION SPECTRUM VIA TRANSITION ELECTRIC DIPOLE MOMENTS
-----------------------------------------------------------------------------
State   Energy    Wavelength  fosc         T2        TX        TY        TZ
        (cm-1)      (nm)                 (au**2)    (au)      (au)      (au)
-----------------------------------------------------------------------------
   1   31148.1    321.0   0.000714403   0.00755  -0.08080  -0.01164  -0.02977

FINAL SINGLE POINT ENERGY      -191.646297424651

DIPOLE MOMENT
-------------
                                X             Y             Z
Electronic contribution:     -2.38146      -1.28487       1.23135
Nuclear contribution   :      2.75209       2.05165      -1.66991
                        -----------------------------------------
Total Dipole Moment    :      0.37063       0.76678      -0.43856
                        -----------------------------------------
Magnitude (a.u.)       :      0.95795
Magnitude (Debye)      :      2.43490

Rotational constants in cm-1:     0.848677     0.181909     0.161611
Rotational constants in MHz : 25442.686030  5453.502139  4844.972801

                             ****ORCA TERMINATED NORMALLY****
TOTAL RUN TIME: 0 days 0 hours 3 minutes 20 seconds 616 msec
