                         Program Version 5.0.3 -  RELEASE  -
|  1> ! HF-3c
|  2> !TightSCF
|  3> %scf
|  4>  ConvForced true
|  5>  convergence tight
|  6>  MaxIter 500
|  7> end
|  8>
|  9> %tddft
| 10>  nroots 1
| 11> end
| 12>
| 13> # 	30576
| 14> * xyz 0 1
| 15> 		C   -0.575714  -0.422461  -0.015749
| 16> 		O   -0.516457  -1.599894   0.011611
| 17> 		C    0.575740   0.459614  -0.011486
| 18> 		C    1.816772  -0.205229   0.014476
| 19> 		H   -1.591454   0.155919   0.013068
| 20> 		H    0.650299   1.461710   0.091159
| 21> 		H    1.824094  -1.352731  -0.141058
| 22> 		H    2.627685   0.383296   0.011136
| 23> *
| 24>
| 25>                          ****END OF INPUT****

CARTESIAN COORDINATES (ANGSTROEM)
---------------------------------
  C     -0.575714   -0.422461   -0.015749
  O     -0.516457   -1.599894    0.011611
  C      0.575740    0.459614   -0.011486
  C      1.816772   -0.205229    0.014476
  H     -1.591454    0.155919    0.013068
  H      0.650299    1.461710    0.091159
  H      1.824094   -1.352731   -0.141058
  H      2.627685    0.383296    0.011136

 Total Charge           Charge          ....    0
 Multiplicity           Mult            ....    1
 Number of Electrons    NEL             ....   30
 Basis Dimension        Dim             ....   24

ORBITAL ENERGIES
----------------

  NO   OCC          E(Eh)            E(eV)
   0   2.0000     -20.364795      -554.1542
   1   2.0000     -11.302904      -307.5677
   2   2.0000     -11.190751      -304.5158
   3   2.0000     -11.177035      -304.1426
   4   2.0000      -1.422912       -38.7194
   5   2.0000      -1.071312       -29.1519
   6   2.0000      -0.888254       -24.1706
   7   2.0000      -0.746575       -20.3154
   8   2.0000      -0.721134       -19.6230
   9   2.0000      -0.610224       -16.6050
  10   2.0000      -0.585301       -15.9268
  11   2.0000      -0.555764       -15.1231
  12   2.0000      -0.543923       -14.8009
  13   2.0000      -0.405718       -11.0401
  14   2.0000      -0.377273       -10.2661
  15   0.0000       0.122537         3.3344
  16   0.0000       0.307536         8.3685
  17   0.0000       0.564180        15.3521
  18   0.0000       0.595528        16.2051
  19   0.0000       0.639076        17.3901

MULLIKEN ATOMIC CHARGES
-----------------------
   0 C :    0.185987
   1 O :   -0.373653
   2 C :   -0.200051
   3 C :   -0.196048
   4 H :    0.127101
   5 H :    0.144672
   6 H :    0.173079
   7 H :    0.138912
Sum of atomic charges:    0.0000000

LOEWDIN ATOMIC CHARGES
----------------------
   0 C :    0.156554
   1 O :   -0.270391
   2 C :   -0.155713
   3 C :   -0.090429
   4 H :    0.067943
   5 H :    0.087289
   6 H :    0.122202
   7 H :    0.082545

  Mayer bond orders larger than 0.100000
B(  0-C ,  1-O ) :   1.8955 B(  0-C ,  2-C ) :   1.0433 B(  0-C ,  4-H ) :   0.9122
B(  2-C ,  3-C ) :   1.9065 B(  2-C ,  5-H ) :   0.9664 B(  3-C ,  6-H ) :   0.9557
B(  3-C ,  7-H ) :   0.9722

-----------------------------------------------------------------------------
         ABSORPTION SPECTRUM VIA TRANSITION ELECTRIC DIPOLE MOMENTS
-----------------------------------------------------------------------------
State   Energy    Wavelength  fosc         T2        TX        TY        TZ
        (cm-1)      (nm)                 (au**2)    (au)      (au)      (au)
-----------------------------------------------------------------------------
   1   34504.8    289.8   0.000094041   0.00090  -0.02297  -0.00158  -0.01916

Dispersion correction           -0.026363116
FINAL SINGLE POINT ENERGY      -189.302286625614

DIPOLE MOMENT
-------------
                                X             Y             Z
Electronic contribution:     -1.78021      -1.56531       0.00332
Nuclear contribution   :      2.13700       2.39631      -0.02438
                        -----------------------------------------
Total Dipole Moment    :      0.35679       0.83100      -0.02106
                        -----------------------------------------
Magnitude (a.u.)       :      0.90460
Magnitude (Debye)      :      2.29931

Rotational constants in cm-1:     0.711751     0.228773     0.173261
Rotational constants in MHz : 21337.750889  6858.436329  5194.236286

                             ****ORCA TERMINATED NORMALLY****
TOTAL RUN TIME: 0 days 0 hours 0 minutes 10 seconds 747 msec
