                         Program Version 5.0.3 -  RELEASE  -
|  1> ! B3LYP cc-pVDZ
|  2> !TightSCF
|  3> %scf
|  4>  ConvForced true
|  5>  convergence tight
|  6>  MaxIter 500
|  7> end
|  8>
|  9> %tddft
| 10>  nroots 1
| 11> end
| 12>
| 13> # 	15020
| 14> * xyz 0 1
| 15> 		C   -1.253369  -0.304396  -0.065047
| 16> 		O   -1.096574  -1.448962   0.014908
| 17> 		C    0.054963   0.596135  -0.024539
| 18> 		C    1.261639  -0.031700   0.022529
| 19> 		H   -2.221231   0.223966   0.035323
| 20> 		H   -0.272416   1.625183   0.199288
| 21> 		H    1.393072  -1.279826  -0.240101
| 22> 		H    2.155318   0.603499   0.011999
| 23> *
| 24>
| 25>                          ****END OF INPUT****

CARTESIAN COORDINATES (ANGSTROEM)
---------------------------------
  C     -1.253369   -0.304396   -0.065047
  O     -1.096574   -1.448962    0.014908
  C      0.054963    0.596135   -0.024539
  C      1.261639   -0.031700    0.022529
  H     -2.221231    0.223966    0.035323
  H     -0.272416    1.625183    0.199288
  H      1.393072   -1.279826   -0.240101
  H      2.155318    0.603499    0.011999

 Total Charge           Charge          ....    0
 Multiplicity           Mult            ....    1
 Number of Electrons    NEL             ....   30
 Basis Dimension        Dim             ....   76

ORBITAL ENERGIES
----------------

  NO   OCC          E(Eh)            E(eV)
   0   2.0000     -19.141774      -520.8742
   1   2.0000     -10.275250      -279.6038
   2   2.0000     -10.221777      -278.1487
   3   2.0000     -10.205812      -277.7142
   4   2.0000      -1.079798       -29.3828
   5   2.0000      -0.767782       -20.8924
   6   2.0000      -0.636429       -17.3181
   7   2.0000      -0.538774       -14.6608
   8   2.0000      -0.489688       -13.3251
   9   2.0000      -0.445102       -12.1119
  10   2.0000      -0.426548       -11.6070
  11   2.0000      -0.413476       -11.2513
  12   2.0000      -0.364557        -9.9201
  13   2.0000      -0.279931        -7.6173
  14   2.0000      -0.249690        -6.7944
  15   0.0000      -0.057111        -1.5541
  16   0.0000       0.045492         1.2379
  17   0.0000       0.058087         1.5806
  18   0.0000       0.081161         2.2085
  19   0.0000       0.116245         3.1632

MULLIKEN ATOMIC CHARGES
-----------------------
   0 C :    0.160915
   1 O :   -0.136630
   2 C :   -0.119445
   3 C :   -0.010869
   4 H :   -0.017787
   5 H :   -0.001441
   6 H :    0.084597
   7 H :    0.040659
Sum of atomic charges:   -0.0000000

LOEWDIN ATOMIC CHARGES
----------------------
   0 C :   -0.052407
   1 O :    0.053906
   2 C :   -0.087959
   3 C :   -0.024457
   4 H :   -0.009080
   5 H :    0.021783
   6 H :    0.069219
   7 H :    0.028994

  Mayer bond orders larger than 0.100000
B(  0-C ,  1-O ) :   2.2591 B(  0-C ,  2-C ) :   0.9891 B(  0-C ,  4-H ) :   0.9055
B(  2-C ,  3-C ) :   1.9684 B(  2-C ,  5-H ) :   0.9472 B(  3-C ,  6-H ) :   0.9204
B(  3-C ,  7-H ) :   0.9387

-----------------------------------------------------------------------------
         ABSORPTION SPECTRUM VIA TRANSITION ELECTRIC DIPOLE MOMENTS
-----------------------------------------------------------------------------
State   Energy    Wavelength  fosc         T2        TX        TY        TZ
        (cm-1)      (nm)                 (au**2)    (au)      (au)      (au)
-----------------------------------------------------------------------------
   1   29794.1    335.6   0.000301374   0.00333   0.05461   0.00309   0.01838

FINAL SINGLE POINT ENERGY      -191.636297451394

DIPOLE MOMENT
-------------
                                X             Y             Z
Electronic contribution:     -1.93216      -1.62888      -0.08090
Nuclear contribution   :      2.02979       2.34738       0.04398
                        -----------------------------------------
Total Dipole Moment    :      0.09764       0.71849      -0.03691
                        -----------------------------------------
Magnitude (a.u.)       :      0.72604
Magnitude (Debye)      :      1.84544

Rotational constants in cm-1:     0.695743     0.216154     0.165431
Rotational constants in MHz : 20857.848425  6480.137133  4959.491990

                             ****ORCA TERMINATED NORMALLY****
TOTAL RUN TIME: 0 days 0 hours 3 minutes 8 seconds 997 msec
