                         Program Version 5.0.3 -  RELEASE  -
|  1> ! HF-3c
|  2> !TightSCF
|  3> %scf
|  4>  ConvForced true
|  5>  convergence tight
|  6>  MaxIter 500
|  7> end
|  8>
|  9> %tddft
| 10>  nroots 1
| 11> end
| 12>
| 13> # 	20817
| 14> * xyz 0 1
| 15> 		C   -0.582501  -0.416557  -0.021643
| 16> 		O   -0.572605  -1.624887   0.004902
| 17> 		C    0.632985   0.419243  -0.018945
| 18> 		C    1.834629  -0.137001   0.005932
| 19> 		H   -1.478338   0.089830   0.114072
| 20> 		H    0.435504   1.375569   0.195436
| 21> 		H    1.995967  -1.263828   0.137291
| 22> 		H    2.620895   0.447030  -0.112863
| 23> *
| 24>
| 25>                          ****END OF INPUT****

CARTESIAN COORDINATES (ANGSTROEM)
---------------------------------
  C     -0.582501   -0.416557   -0.021643
  O     -0.572605   -1.624887    0.004902
  C      0.632985    0.419243   -0.018945
  C      1.834629   -0.137001    0.005932
  H     -1.478338    0.089830    0.114072
  H      0.435504    1.375569    0.195436
  H      1.995967   -1.263828    0.137291
  H      2.620895    0.447030   -0.112863

 Total Charge           Charge          ....    0
 Multiplicity           Mult            ....    1
 Number of Electrons    NEL             ....   30
 Basis Dimension        Dim             ....   24

ORBITAL ENERGIES
----------------

  NO   OCC          E(Eh)            E(eV)
   0   2.0000     -20.366363      -554.1969
   1   2.0000     -11.295408      -307.3637
   2   2.0000     -11.200417      -304.7788
   3   2.0000     -11.192410      -304.5610
   4   2.0000      -1.405008       -38.2322
   5   2.0000      -1.093238       -29.7485
   6   2.0000      -0.912428       -24.8284
   7   2.0000      -0.770053       -20.9542
   8   2.0000      -0.720287       -19.6000
   9   2.0000      -0.625898       -17.0316
  10   2.0000      -0.606268       -16.4974
  11   2.0000      -0.557747       -15.1771
  12   2.0000      -0.537247       -14.6192
  13   2.0000      -0.422149       -11.4873
  14   2.0000      -0.394024       -10.7219
  15   0.0000       0.124580         3.3900
  16   0.0000       0.299236         8.1426
  17   0.0000       0.554714        15.0945
  18   0.0000       0.666414        18.1340
  19   0.0000       0.724979        19.7277

MULLIKEN ATOMIC CHARGES
-----------------------
   0 C :    0.157534
   1 O :   -0.349070
   2 C :   -0.188551
   3 C :   -0.216632
   4 H :    0.136299
   5 H :    0.144937
   6 H :    0.171696
   7 H :    0.143786
Sum of atomic charges:    0.0000000

LOEWDIN ATOMIC CHARGES
----------------------
   0 C :    0.144265
   1 O :   -0.254196
   2 C :   -0.137829
   3 C :   -0.110923
   4 H :    0.067194
   5 H :    0.086014
   6 H :    0.120233
   7 H :    0.085242

  Mayer bond orders larger than 0.100000
B(  0-C ,  1-O ) :   1.9044 B(  0-C ,  2-C ) :   1.0254 B(  0-C ,  4-H ) :   0.9342
B(  2-C ,  3-C ) :   1.9436 B(  2-C ,  5-H ) :   0.9626 B(  3-C ,  6-H ) :   0.9548
B(  3-C ,  7-H ) :   0.9681

-----------------------------------------------------------------------------
         ABSORPTION SPECTRUM VIA TRANSITION ELECTRIC DIPOLE MOMENTS
-----------------------------------------------------------------------------
State   Energy    Wavelength  fosc         T2        TX        TY        TZ
        (cm-1)      (nm)                 (au**2)    (au)      (au)      (au)
-----------------------------------------------------------------------------
   1   31854.0    313.9   0.000031097   0.00032  -0.01553  -0.00160  -0.00881

Dispersion correction           -0.026254960
FINAL SINGLE POINT ENERGY      -189.319730909542

DIPOLE MOMENT
-------------
                                X             Y             Z
Electronic contribution:     -1.87917      -1.58325      -0.24142
Nuclear contribution   :      2.19658       2.39591       0.31345
                        -----------------------------------------
Total Dipole Moment    :      0.31742       0.81266       0.07203
                        -----------------------------------------
Magnitude (a.u.)       :      0.87542
Magnitude (Debye)      :      2.22515

Rotational constants in cm-1:     0.770329     0.214960     0.168378
Rotational constants in MHz : 23093.890619  6444.339003  5047.846838

                             ****ORCA TERMINATED NORMALLY****
TOTAL RUN TIME: 0 days 0 hours 0 minutes 15 seconds 916 msec
