                         Program Version 5.0.3 -  RELEASE  -
|  1> ! HF-3c
|  2> !TightSCF
|  3> %scf
|  4>  ConvForced true
|  5>  convergence tight
|  6>  MaxIter 500
|  7> end
|  8>
|  9> %tddft
| 10>  nroots 1
| 11> end
| 12>
| 13> # 	16215
| 14> * xyz 0 1
| 15> 		C   -1.171136  -0.359078  -0.019123
| 16> 		O   -2.132349  -0.551963  -0.819070
| 17> 		C    0.048478   0.329372  -0.363560
| 18> 		C    1.189993   0.090773   0.241104
| 19> 		H   -1.213064  -0.663157   1.062491
| 20> 		H   -0.073431   0.961681  -1.105118
| 21> 		H    1.332645  -0.444348   0.962222
| 22> 		H    2.018857   0.627771   0.024915
| 23> *
| 24>
| 25>                          ****END OF INPUT****

CARTESIAN COORDINATES (ANGSTROEM)
---------------------------------
  C     -1.171136   -0.359078   -0.019123
  O     -2.132349   -0.551963   -0.819070
  C      0.048478    0.329372   -0.363560
  C      1.189993    0.090773    0.241104
  H     -1.213064   -0.663157    1.062491
  H     -0.073431    0.961681   -1.105118
  H      1.332645   -0.444348    0.962222
  H      2.018857    0.627771    0.024915

 Total Charge           Charge          ....    0
 Multiplicity           Mult            ....    1
 Number of Electrons    NEL             ....   30
 Basis Dimension        Dim             ....   24

ORBITAL ENERGIES
----------------

  NO   OCC          E(Eh)            E(eV)
   0   2.0000     -20.364254      -554.1395
   1   2.0000     -11.291948      -307.2695
   2   2.0000     -11.219957      -305.3106
   3   2.0000     -11.214888      -305.1726
   4   2.0000      -1.370115       -37.2827
   5   2.0000      -1.123808       -30.5804
   6   2.0000      -0.928552       -25.2672
   7   2.0000      -0.812104       -22.0985
   8   2.0000      -0.693580       -18.8733
   9   2.0000      -0.680076       -18.5058
  10   2.0000      -0.597765       -16.2660
  11   2.0000      -0.576042       -15.6749
  12   2.0000      -0.521664       -14.1952
  13   2.0000      -0.424189       -11.5428
  14   2.0000      -0.412391       -11.2217
  15   0.0000       0.111424         3.0320
  16   0.0000       0.278305         7.5731
  17   0.0000       0.583057        15.8658
  18   0.0000       0.641826        17.4650
  19   0.0000       0.756513        20.5858

MULLIKEN ATOMIC CHARGES
-----------------------
   0 C :    0.159289
   1 O :   -0.332285
   2 C :   -0.166441
   3 C :   -0.268300
   4 H :    0.141596
   5 H :    0.163067
   6 H :    0.145179
   7 H :    0.157893
Sum of atomic charges:   -0.0000000

LOEWDIN ATOMIC CHARGES
----------------------
   0 C :    0.149750
   1 O :   -0.253873
   2 C :   -0.101852
   3 C :   -0.150599
   4 H :    0.080243
   5 H :    0.096633
   6 H :    0.080789
   7 H :    0.098908

  Mayer bond orders larger than 0.100000
B(  0-C ,  1-O ) :   1.9063 B(  0-C ,  2-C ) :   1.0402 B(  0-C ,  4-H ) :   0.9263
B(  2-C ,  3-C ) :   1.9468 B(  2-C ,  5-H ) :   0.9547 B(  3-C ,  6-H ) :   0.9690
B(  3-C ,  7-H ) :   0.9622

-----------------------------------------------------------------------------
         ABSORPTION SPECTRUM VIA TRANSITION ELECTRIC DIPOLE MOMENTS
-----------------------------------------------------------------------------
State   Energy    Wavelength  fosc         T2        TX        TY        TZ
        (cm-1)      (nm)                 (au**2)    (au)      (au)      (au)
-----------------------------------------------------------------------------
   1   29521.8    338.7   0.000014466   0.00016  -0.01089   0.00287  -0.00588

Dispersion correction           -0.026098656
FINAL SINGLE POINT ENERGY      -189.300541701810

DIPOLE MOMENT
-------------
                                X             Y             Z
Electronic contribution:     -3.11602      -0.71618      -1.18610
Nuclear contribution   :      4.00413       0.95549       1.80491
                        -----------------------------------------
Total Dipole Moment    :      0.88812       0.23931       0.61881
                        -----------------------------------------
Magnitude (a.u.)       :      1.10858
Magnitude (Debye)      :      2.81778

Rotational constants in cm-1:     1.640776     0.154924     0.144387
Rotational constants in MHz : 49189.232449  4644.497085  4328.625204

                             ****ORCA TERMINATED NORMALLY****
TOTAL RUN TIME: 0 days 0 hours 0 minutes 11 seconds 887 msec
