                         Program Version 5.0.3 -  RELEASE  -
|  1> ! HF-3c
|  2> !TightSCF
|  3> %scf
|  4>  ConvForced true
|  5>  convergence tight
|  6>  MaxIter 500
|  7> end
|  8>
|  9> %tddft
| 10>  nroots 1
| 11> end
| 12>
| 13> # 	22748
| 14> * xyz 0 1
| 15> 		C   -0.593433  -0.475923   0.045367
| 16> 		O   -0.555480  -1.603587  -0.028412
| 17> 		C    0.602454   0.482792  -0.064359
| 18> 		C    1.838813  -0.163334  -0.027821
| 19> 		H   -1.466124   0.020231   0.303932
| 20> 		H    0.527510   1.409003   0.019796
| 21> 		H    1.775817  -1.279028   0.399693
| 22> 		H    2.902852   0.378050   0.290930
| 23> *
| 24>
| 25>                          ****END OF INPUT****

CARTESIAN COORDINATES (ANGSTROEM)
---------------------------------
  C     -0.593433   -0.475923    0.045367
  O     -0.555480   -1.603587   -0.028412
  C      0.602454    0.482792   -0.064359
  C      1.838813   -0.163334   -0.027821
  H     -1.466124    0.020231    0.303932
  H      0.527510    1.409003    0.019796
  H      1.775817   -1.279028    0.399693
  H      2.902852    0.378050    0.290930

 Total Charge           Charge          ....    0
 Multiplicity           Mult            ....    1
 Number of Electrons    NEL             ....   30
 Basis Dimension        Dim             ....   24

ORBITAL ENERGIES
----------------

  NO   OCC          E(Eh)            E(eV)
   0   2.0000     -20.392524      -554.9088
   1   2.0000     -11.321182      -308.0650
   2   2.0000     -11.181179      -304.2553
   3   2.0000     -11.172026      -304.0063
   4   2.0000      -1.468903       -39.9709
   5   2.0000      -1.055783       -28.7293
   6   2.0000      -0.872551       -23.7433
   7   2.0000      -0.764527       -20.8038
   8   2.0000      -0.723012       -19.6742
   9   2.0000      -0.624126       -16.9833
  10   2.0000      -0.581693       -15.8287
  11   2.0000      -0.577965       -15.7272
  12   2.0000      -0.509563       -13.8659
  13   2.0000      -0.407002       -11.0751
  14   2.0000      -0.378424       -10.2974
  15   0.0000       0.135475         3.6865
  16   0.0000       0.290057         7.8928
  17   0.0000       0.493313        13.4237
  18   0.0000       0.552896        15.0451
  19   0.0000       0.646969        17.6049

MULLIKEN ATOMIC CHARGES
-----------------------
   0 C :    0.196299
   1 O :   -0.372753
   2 C :   -0.216186
   3 C :   -0.171028
   4 H :    0.130676
   5 H :    0.135279
   6 H :    0.153905
   7 H :    0.143808
Sum of atomic charges:   -0.0000000

LOEWDIN ATOMIC CHARGES
----------------------
   0 C :    0.161547
   1 O :   -0.248523
   2 C :   -0.169906
   3 C :   -0.089605
   4 H :    0.058406
   5 H :    0.074379
   6 H :    0.109396
   7 H :    0.104306

  Mayer bond orders larger than 0.100000
B(  0-C ,  1-O ) :   1.9260 B(  0-C ,  2-C ) :   0.9857 B(  0-C ,  4-H ) :   0.9202
B(  2-C ,  3-C ) :   1.9301 B(  2-C ,  5-H ) :   0.9704 B(  3-C ,  6-H ) :   0.9541
B(  3-C ,  7-H ) :   0.9582

-----------------------------------------------------------------------------
         ABSORPTION SPECTRUM VIA TRANSITION ELECTRIC DIPOLE MOMENTS
-----------------------------------------------------------------------------
State   Energy    Wavelength  fosc         T2        TX        TY        TZ
        (cm-1)      (nm)                 (au**2)    (au)      (au)      (au)
-----------------------------------------------------------------------------
   1   38116.2    262.4   0.000011487   0.00010   0.00991   0.00000   0.00104

Dispersion correction           -0.025978406
FINAL SINGLE POINT ENERGY      -189.234792389220

DIPOLE MOMENT
-------------
                                X             Y             Z
Electronic contribution:     -1.94458      -1.55061      -0.67081
Nuclear contribution   :      2.35303       2.28645       0.95084
                        -----------------------------------------
Total Dipole Moment    :      0.40846       0.73585       0.28003
                        -----------------------------------------
Magnitude (a.u.)       :      0.88697
Magnitude (Debye)      :      2.25451

Rotational constants in cm-1:     0.746732     0.213055     0.167191
Rotational constants in MHz : 22386.469431  6387.238656  5012.262454

                             ****ORCA TERMINATED NORMALLY****
TOTAL RUN TIME: 0 days 0 hours 0 minutes 11 seconds 435 msec
