                         Program Version 5.0.3 -  RELEASE  -
|  1> ! B3LYP cc-pVDZ
|  2> !TightSCF
|  3> %scf
|  4>  ConvForced true
|  5>  convergence tight
|  6>  MaxIter 500
|  7> end
|  8>
|  9> %tddft
| 10>  nroots 1
| 11> end
| 12>
| 13> # 	31227
| 14> * xyz 0 1
| 15> 		C   -0.524222  -0.407383  -0.009970
| 16> 		O   -0.601657  -1.638667  -0.005720
| 17> 		C    0.630328   0.366954   0.028496
| 18> 		C    1.826904  -0.131562   0.017369
| 19> 		H   -1.354094   0.304492   0.062991
| 20> 		H    0.410774   1.500207  -0.211127
| 21> 		H    1.869547  -1.189116  -0.066876
| 22> 		H    2.572251   0.716051  -0.138373
| 23> *
| 24>
| 25>                          ****END OF INPUT****

CARTESIAN COORDINATES (ANGSTROEM)
---------------------------------
  C     -0.524222   -0.407383   -0.009970
  O     -0.601657   -1.638667   -0.005720
  C      0.630328    0.366954    0.028496
  C      1.826904   -0.131562    0.017369
  H     -1.354094    0.304492    0.062991
  H      0.410774    1.500207   -0.211127
  H      1.869547   -1.189116   -0.066876
  H      2.572251    0.716051   -0.138373

 Total Charge           Charge          ....    0
 Multiplicity           Mult            ....    1
 Number of Electrons    NEL             ....   30
 Basis Dimension        Dim             ....   76

ORBITAL ENERGIES
----------------

  NO   OCC          E(Eh)            E(eV)
   0   2.0000     -19.138541      -520.7862
   1   2.0000     -10.265284      -279.3326
   2   2.0000     -10.214130      -277.9406
   3   2.0000     -10.198706      -277.5209
   4   2.0000      -1.033192       -28.1146
   5   2.0000      -0.818446       -22.2711
   6   2.0000      -0.680427       -18.5153
   7   2.0000      -0.526925       -14.3384
   8   2.0000      -0.514396       -13.9974
   9   2.0000      -0.450393       -12.2558
  10   2.0000      -0.412813       -11.2332
  11   2.0000      -0.399414       -10.8686
  12   2.0000      -0.375462       -10.2169
  13   2.0000      -0.295218        -8.0333
  14   2.0000      -0.256373        -6.9763
  15   0.0000      -0.078704        -2.1417
  16   0.0000       0.044364         1.2072
  17   0.0000       0.070937         1.9303
  18   0.0000       0.090221         2.4550
  19   0.0000       0.132728         3.6117

MULLIKEN ATOMIC CHARGES
-----------------------
   0 C :    0.202369
   1 O :   -0.216156
   2 C :   -0.155029
   3 C :    0.117731
   4 H :   -0.031466
   5 H :    0.007984
   6 H :    0.027913
   7 H :    0.046655
Sum of atomic charges:   -0.0000000

LOEWDIN ATOMIC CHARGES
----------------------
   0 C :   -0.043082
   1 O :   -0.024004
   2 C :   -0.100615
   3 C :    0.038301
   4 H :   -0.004497
   5 H :    0.045297
   6 H :    0.033055
   7 H :    0.055547

  Mayer bond orders larger than 0.100000
B(  0-C ,  1-O ) :   2.1609 B(  0-C ,  2-C ) :   1.1340 B(  0-C ,  4-H ) :   0.9130
B(  1-O ,  3-C ) :   0.1032 B(  2-C ,  3-C ) :   1.9378 B(  2-C ,  5-H ) :   0.9346
B(  3-C ,  6-H ) :   0.9210 B(  3-C ,  7-H ) :   0.9296

-----------------------------------------------------------------------------
         ABSORPTION SPECTRUM VIA TRANSITION ELECTRIC DIPOLE MOMENTS
-----------------------------------------------------------------------------
State   Energy    Wavelength  fosc         T2        TX        TY        TZ
        (cm-1)      (nm)                 (au**2)    (au)      (au)      (au)
-----------------------------------------------------------------------------
   1   26033.5    384.1   0.000229411   0.00290  -0.00545  -0.00525   0.05333

FINAL SINGLE POINT ENERGY      -191.659058697390

DIPOLE MOMENT
-------------
                                X             Y             Z
Electronic contribution:     -1.62060      -2.09652       0.23718
Nuclear contribution   :      2.12297       3.03547      -0.33051
                        -----------------------------------------
Total Dipole Moment    :      0.50237       0.93896      -0.09332
                        -----------------------------------------
Magnitude (a.u.)       :      1.06898
Magnitude (Debye)      :      2.71714

Rotational constants in cm-1:     0.803434     0.215384     0.170151
Rotational constants in MHz : 24086.359717  6457.052523  5101.003527

                             ****ORCA TERMINATED NORMALLY****
TOTAL RUN TIME: 0 days 0 hours 3 minutes 22 seconds 240 msec
