                         Program Version 5.0.3 -  RELEASE  -
|  1> ! B3LYP cc-pVDZ
|  2> !TightSCF
|  3> %scf
|  4>  ConvForced true
|  5>  convergence tight
|  6>  MaxIter 500
|  7> end
|  8>
|  9> %tddft
| 10>  nroots 1
| 11> end
| 12>
| 13> # 	7630
| 14> * xyz 0 1
| 15> 		C   -1.225446  -0.384406   0.061149
| 16> 		O   -1.682937  -1.059723   0.941911
| 17> 		C   -0.003915   0.445709   0.237050
| 18> 		C    1.236839   0.075120  -0.176647
| 19> 		H   -1.705799  -0.383266  -0.946959
| 20> 		H    0.045570   1.465852   0.699094
| 21> 		H    1.344923  -0.828932  -0.757709
| 22> 		H    2.041949   0.688894  -0.027550
| 23> *
| 24>
| 25>                          ****END OF INPUT****

CARTESIAN COORDINATES (ANGSTROEM)
---------------------------------
  C     -1.225446   -0.384406    0.061149
  O     -1.682937   -1.059723    0.941911
  C     -0.003915    0.445709    0.237050
  C      1.236839    0.075120   -0.176647
  H     -1.705799   -0.383266   -0.946959
  H      0.045570    1.465852    0.699094
  H      1.344923   -0.828932   -0.757709
  H      2.041949    0.688894   -0.027550

 Total Charge           Charge          ....    0
 Multiplicity           Mult            ....    1
 Number of Electrons    NEL             ....   30
 Basis Dimension        Dim             ....   76

ORBITAL ENERGIES
----------------

  NO   OCC          E(Eh)            E(eV)
   0   2.0000     -19.147650      -521.0340
   1   2.0000     -10.285800      -279.8908
   2   2.0000     -10.209475      -277.8139
   3   2.0000     -10.198587      -277.5177
   4   2.0000      -1.060074       -28.8461
   5   2.0000      -0.791370       -21.5343
   6   2.0000      -0.652369       -17.7519
   7   2.0000      -0.559322       -15.2199
   8   2.0000      -0.498683       -13.5699
   9   2.0000      -0.463705       -12.6180
  10   2.0000      -0.440179       -11.9779
  11   2.0000      -0.400914       -10.9094
  12   2.0000      -0.369618       -10.0578
  13   2.0000      -0.281482        -7.6595
  14   2.0000      -0.260462        -7.0875
  15   0.0000      -0.040740        -1.1086
  16   0.0000      -0.009437        -0.2568
  17   0.0000       0.084826         2.3082
  18   0.0000       0.094071         2.5598
  19   0.0000       0.106748         2.9048

MULLIKEN ATOMIC CHARGES
-----------------------
   0 C :    0.183789
   1 O :   -0.166846
   2 C :   -0.116220
   3 C :    0.060683
   4 H :   -0.003370
   5 H :    0.024439
   6 H :    0.011681
   7 H :    0.005844
Sum of atomic charges:   -0.0000000

LOEWDIN ATOMIC CHARGES
----------------------
   0 C :   -0.028669
   1 O :    0.024783
   2 C :   -0.058585
   3 C :   -0.014110
   4 H :   -0.002420
   5 H :    0.045736
   6 H :    0.021342
   7 H :    0.011922

  Mayer bond orders larger than 0.100000
B(  0-C ,  1-O ) :   2.2399 B(  0-C ,  2-C ) :   0.9558 B(  0-C ,  4-H ) :   0.9171
B(  2-C ,  3-C ) :   2.0524 B(  2-C ,  5-H ) :   0.9349 B(  3-C ,  6-H ) :   0.9544
B(  3-C ,  7-H ) :   0.9425

-----------------------------------------------------------------------------
         ABSORPTION SPECTRUM VIA TRANSITION ELECTRIC DIPOLE MOMENTS
-----------------------------------------------------------------------------
State   Energy    Wavelength  fosc         T2        TX        TY        TZ
        (cm-1)      (nm)                 (au**2)    (au)      (au)      (au)
-----------------------------------------------------------------------------
   1   33085.4    302.2   0.000666046   0.00663  -0.07697  -0.01482   0.02200

FINAL SINGLE POINT ENERGY      -191.638804919309

DIPOLE MOMENT
-------------
                                X             Y             Z
Electronic contribution:     -2.79046      -1.26706       1.40759
Nuclear contribution   :      3.28139       1.83399      -1.99613
                        -----------------------------------------
Total Dipole Moment    :      0.49093       0.56693      -0.58854
                        -----------------------------------------
Magnitude (a.u.)       :      0.95331
Magnitude (Debye)      :      2.42311

Rotational constants in cm-1:     1.057858     0.160307     0.156402
Rotational constants in MHz : 31713.795314  4805.877405  4688.809888

                             ****ORCA TERMINATED NORMALLY****
TOTAL RUN TIME: 0 days 0 hours 3 minutes 27 seconds 950 msec
