                         Program Version 5.0.3 -  RELEASE  -
|  1> ! B3LYP cc-pVDZ
|  2> !TightSCF
|  3> %scf
|  4>  ConvForced true
|  5>  convergence tight
|  6>  MaxIter 500
|  7> end
|  8>
|  9> %tddft
| 10>  nroots 1
| 11> end
| 12>
| 13> # 	13741
| 14> * xyz 0 1
| 15> 		C   -1.175863  -0.311821   0.045372
| 16> 		O   -1.175411  -1.474939  -0.153647
| 17> 		C    0.014839   0.555674  -0.126473
| 18> 		C    1.268404  -0.011898   0.023378
| 19> 		H   -2.129923   0.220362   0.245809
| 20> 		H   -0.263872   1.682859  -0.108365
| 21> 		H    1.281615  -1.177144  -0.036294
| 22> 		H    2.231997   0.530911   0.181120
| 23> *
| 24>
| 25>                          ****END OF INPUT****

CARTESIAN COORDINATES (ANGSTROEM)
---------------------------------
  C     -1.175863   -0.311821    0.045372
  O     -1.175411   -1.474939   -0.153647
  C      0.014839    0.555674   -0.126473
  C      1.268404   -0.011898    0.023378
  H     -2.129923    0.220362    0.245809
  H     -0.263872    1.682859   -0.108365
  H      1.281615   -1.177144   -0.036294
  H      2.231997    0.530911    0.181120

 Total Charge           Charge          ....    0
 Multiplicity           Mult            ....    1
 Number of Electrons    NEL             ....   30
 Basis Dimension        Dim             ....   76

ORBITAL ENERGIES
----------------

  NO   OCC          E(Eh)            E(eV)
   0   2.0000     -19.135531      -520.7043
   1   2.0000     -10.270991      -279.4879
   2   2.0000     -10.228660      -278.3360
   3   2.0000     -10.214771      -277.9580
   4   2.0000      -1.062870       -28.9222
   5   2.0000      -0.780958       -21.2509
   6   2.0000      -0.650475       -17.7003
   7   2.0000      -0.535865       -14.5816
   8   2.0000      -0.496379       -13.5072
   9   2.0000      -0.444510       -12.0957
  10   2.0000      -0.428691       -11.6653
  11   2.0000      -0.404675       -11.0118
  12   2.0000      -0.374688       -10.1958
  13   2.0000      -0.280510        -7.6331
  14   2.0000      -0.253988        -6.9114
  15   0.0000      -0.067904        -1.8478
  16   0.0000       0.048526         1.3205
  17   0.0000       0.064312         1.7500
  18   0.0000       0.081445         2.2162
  19   0.0000       0.121933         3.3180

MULLIKEN ATOMIC CHARGES
-----------------------
   0 C :    0.178968
   1 O :   -0.170826
   2 C :   -0.128609
   3 C :    0.014088
   4 H :   -0.026827
   5 H :    0.013481
   6 H :    0.067746
   7 H :    0.051978
Sum of atomic charges:   -0.0000000

LOEWDIN ATOMIC CHARGES
----------------------
   0 C :   -0.061624
   1 O :    0.022743
   2 C :   -0.087798
   3 C :    0.011159
   4 H :   -0.007288
   5 H :    0.036459
   6 H :    0.050886
   7 H :    0.035463

  Mayer bond orders larger than 0.100000
B(  0-C ,  1-O ) :   2.2084 B(  0-C ,  2-C ) :   1.0496 B(  0-C ,  4-H ) :   0.9133
B(  2-C ,  3-C ) :   1.9255 B(  2-C ,  5-H ) :   0.9408 B(  3-C ,  6-H ) :   0.9251
B(  3-C ,  7-H ) :   0.9513

-----------------------------------------------------------------------------
         ABSORPTION SPECTRUM VIA TRANSITION ELECTRIC DIPOLE MOMENTS
-----------------------------------------------------------------------------
State   Energy    Wavelength  fosc         T2        TX        TY        TZ
        (cm-1)      (nm)                 (au**2)    (au)      (au)      (au)
-----------------------------------------------------------------------------
   1   28623.4    349.4   0.000363096   0.00418  -0.06142  -0.01468  -0.01374

FINAL SINGLE POINT ENERGY      -191.663993543134

DIPOLE MOMENT
-------------
                                X             Y             Z
Electronic contribution:     -1.75728      -1.66858      -0.29060
Nuclear contribution   :      2.13440       2.47085       0.45521
                        -----------------------------------------
Total Dipole Moment    :      0.37712       0.80227       0.16461
                        -----------------------------------------
Magnitude (a.u.)       :      0.90164
Magnitude (Debye)      :      2.29179

Rotational constants in cm-1:     0.733422     0.210498     0.165111
Rotational constants in MHz : 21987.452783  6310.573005  4949.895858

                             ****ORCA TERMINATED NORMALLY****
TOTAL RUN TIME: 0 days 0 hours 3 minutes 10 seconds 810 msec
