                         Program Version 5.0.3 -  RELEASE  -
|  1> ! HF-3c
|  2> !TightSCF
|  3> %scf
|  4>  ConvForced true
|  5>  convergence tight
|  6>  MaxIter 500
|  7> end
|  8>
|  9> %tddft
| 10>  nroots 1
| 11> end
| 12>
| 13> # 	14064
| 14> * xyz 0 1
| 15> 		C   -1.197907  -0.335377  -0.037091
| 16> 		O   -1.340445  -1.387203  -0.484009
| 17> 		C   -0.033588   0.571563  -0.141477
| 18> 		C    1.174982  -0.068443   0.141762
| 19> 		H   -1.941550  -0.005558   0.737350
| 20> 		H   -0.017886   1.676505  -0.463855
| 21> 		H    1.161132  -1.042618   0.250515
| 22> 		H    2.183010   0.591788   0.038275
| 23> *
| 24>
| 25>                          ****END OF INPUT****

CARTESIAN COORDINATES (ANGSTROEM)
---------------------------------
  C     -1.197907   -0.335377   -0.037091
  O     -1.340445   -1.387203   -0.484009
  C     -0.033588    0.571563   -0.141477
  C      1.174982   -0.068443    0.141762
  H     -1.941550   -0.005558    0.737350
  H     -0.017886    1.676505   -0.463855
  H      1.161132   -1.042618    0.250515
  H      2.183010    0.591788    0.038275

 Total Charge           Charge          ....    0
 Multiplicity           Mult            ....    1
 Number of Electrons    NEL             ....   30
 Basis Dimension        Dim             ....   24

ORBITAL ENERGIES
----------------

  NO   OCC          E(Eh)            E(eV)
   0   2.0000     -20.388803      -554.8075
   1   2.0000     -11.313355      -307.8521
   2   2.0000     -11.181368      -304.2605
   3   2.0000     -11.176533      -304.1289
   4   2.0000      -1.451582       -39.4995
   5   2.0000      -1.064768       -28.9738
   6   2.0000      -0.875358       -23.8197
   7   2.0000      -0.752910       -20.4877
   8   2.0000      -0.703909       -19.1543
   9   2.0000      -0.624839       -17.0027
  10   2.0000      -0.597928       -16.2705
  11   2.0000      -0.550571       -14.9818
  12   2.0000      -0.527596       -14.3566
  13   2.0000      -0.405496       -11.0341
  14   2.0000      -0.379970       -10.3395
  15   0.0000       0.161085         4.3834
  16   0.0000       0.251029         6.8309
  17   0.0000       0.532651        14.4942
  18   0.0000       0.555641        15.1197
  19   0.0000       0.660998        17.9867

MULLIKEN ATOMIC CHARGES
-----------------------
   0 C :    0.186352
   1 O :   -0.359641
   2 C :   -0.162433
   3 C :   -0.233867
   4 H :    0.125815
   5 H :    0.154706
   6 H :    0.141128
   7 H :    0.147940
Sum of atomic charges:   -0.0000000

LOEWDIN ATOMIC CHARGES
----------------------
   0 C :    0.152364
   1 O :   -0.244537
   2 C :   -0.126578
   3 C :   -0.140055
   4 H :    0.062103
   5 H :    0.107323
   6 H :    0.082377
   7 H :    0.107002

  Mayer bond orders larger than 0.100000
B(  0-C ,  1-O ) :   1.9358 B(  0-C ,  2-C ) :   0.9979 B(  0-C ,  4-H ) :   0.9087
B(  2-C ,  3-C ) :   1.9605 B(  2-C ,  5-H ) :   0.9549 B(  3-C ,  6-H ) :   0.9696
B(  3-C ,  7-H ) :   0.9626

-----------------------------------------------------------------------------
         ABSORPTION SPECTRUM VIA TRANSITION ELECTRIC DIPOLE MOMENTS
-----------------------------------------------------------------------------
State   Energy    Wavelength  fosc         T2        TX        TY        TZ
        (cm-1)      (nm)                 (au**2)    (au)      (au)      (au)
-----------------------------------------------------------------------------
   1   37244.8    268.5   0.000047768   0.00042  -0.00679   0.01188  -0.01533

Dispersion correction           -0.025621098
FINAL SINGLE POINT ENERGY      -189.272495221285

DIPOLE MOMENT
-------------
                                X             Y             Z
Electronic contribution:     -2.27015      -1.49545      -0.71347
Nuclear contribution   :      2.67225       2.39755       1.03236
                        -----------------------------------------
Total Dipole Moment    :      0.40210       0.90210       0.31888
                        -----------------------------------------
Magnitude (a.u.)       :      1.03786
Magnitude (Debye)      :      2.63804

Rotational constants in cm-1:     0.791094     0.200572     0.167790
Rotational constants in MHz : 23716.404865  6012.989094  5030.209362

                             ****ORCA TERMINATED NORMALLY****
TOTAL RUN TIME: 0 days 0 hours 0 minutes 11 seconds 617 msec
