                         Program Version 5.0.3 -  RELEASE  -
|  1> ! B3LYP cc-pVDZ
|  2> !TightSCF
|  3> %scf
|  4>  ConvForced true
|  5>  convergence tight
|  6>  MaxIter 500
|  7> end
|  8>
|  9> %tddft
| 10>  nroots 1
| 11> end
| 12>
| 13> # 	19136
| 14> * xyz 0 1
| 15> 		C   -1.207114  -0.372516  -0.084335
| 16> 		O   -2.095597  -0.445129  -0.795778
| 17> 		C    0.006829   0.462733  -0.388122
| 18> 		C    1.209327   0.125947   0.286470
| 19> 		H   -1.276139  -1.018302   0.910931
| 20> 		H    0.009879   1.237557  -1.203594
| 21> 		H    1.145941  -0.722655   1.134261
| 22> 		H    2.185026   0.670180   0.116689
| 23> *
| 24>
| 25>                          ****END OF INPUT****

CARTESIAN COORDINATES (ANGSTROEM)
---------------------------------
  C     -1.207114   -0.372516   -0.084335
  O     -2.095597   -0.445129   -0.795778
  C      0.006829    0.462733   -0.388122
  C      1.209327    0.125947    0.286470
  H     -1.276139   -1.018302    0.910931
  H      0.009879    1.237557   -1.203594
  H      1.145941   -0.722655    1.134261
  H      2.185026    0.670180    0.116689

 Total Charge           Charge          ....    0
 Multiplicity           Mult            ....    1
 Number of Electrons    NEL             ....   30
 Basis Dimension        Dim             ....   76

ORBITAL ENERGIES
----------------

  NO   OCC          E(Eh)            E(eV)
   0   2.0000     -19.136720      -520.7366
   1   2.0000     -10.277215      -279.6572
   2   2.0000     -10.236702      -278.5548
   3   2.0000     -10.220350      -278.1099
   4   2.0000      -1.088644       -29.6235
   5   2.0000      -0.776609       -21.1326
   6   2.0000      -0.625085       -17.0094
   7   2.0000      -0.556245       -15.1362
   8   2.0000      -0.474455       -12.9106
   9   2.0000      -0.466325       -12.6894
  10   2.0000      -0.425624       -11.5818
  11   2.0000      -0.410767       -11.1775
  12   2.0000      -0.386553       -10.5186
  13   2.0000      -0.281773        -7.6674
  14   2.0000      -0.252447        -6.8694
  15   0.0000      -0.059654        -1.6233
  16   0.0000       0.044559         1.2125
  17   0.0000       0.060061         1.6344
  18   0.0000       0.073028         1.9872
  19   0.0000       0.107674         2.9300

MULLIKEN ATOMIC CHARGES
-----------------------
   0 C :    0.141696
   1 O :   -0.127845
   2 C :   -0.085641
   3 C :   -0.040181
   4 H :   -0.030824
   5 H :    0.027646
   6 H :    0.059271
   7 H :    0.055877
Sum of atomic charges:   -0.0000000

LOEWDIN ATOMIC CHARGES
----------------------
   0 C :   -0.094852
   1 O :    0.065141
   2 C :   -0.064826
   3 C :   -0.019171
   4 H :   -0.009231
   5 H :    0.039267
   6 H :    0.047062
   7 H :    0.036611

  Mayer bond orders larger than 0.100000
B(  0-C ,  1-O ) :   2.2479 B(  0-C ,  2-C ) :   1.0152 B(  0-C ,  4-H ) :   0.8973
B(  2-C ,  3-C ) :   1.9064 B(  2-C ,  5-H ) :   0.9478 B(  3-C ,  6-H ) :   0.9394
B(  3-C ,  7-H ) :   0.9452

-----------------------------------------------------------------------------
         ABSORPTION SPECTRUM VIA TRANSITION ELECTRIC DIPOLE MOMENTS
-----------------------------------------------------------------------------
State   Energy    Wavelength  fosc         T2        TX        TY        TZ
        (cm-1)      (nm)                 (au**2)    (au)      (au)      (au)
-----------------------------------------------------------------------------
   1   30679.3    326.0   0.000553343   0.00594  -0.07611  -0.00284  -0.01169

FINAL SINGLE POINT ENERGY      -191.643898559438

DIPOLE MOMENT
-------------
                                X             Y             Z
Electronic contribution:     -3.14310      -0.24634      -1.44572
Nuclear contribution   :      4.01195       0.44269       1.82804
                        -----------------------------------------
Total Dipole Moment    :      0.86885       0.19635       0.38233
                        -----------------------------------------
Magnitude (a.u.)       :      0.96935
Magnitude (Debye)      :      2.46388

Rotational constants in cm-1:     1.338640     0.156592     0.141856
Rotational constants in MHz : 40131.412208  4694.500120  4252.747830

                             ****ORCA TERMINATED NORMALLY****
TOTAL RUN TIME: 0 days 0 hours 3 minutes 26 seconds 458 msec
