                         Program Version 5.0.3 -  RELEASE  -
|  1> ! HF-3c
|  2> !TightSCF
|  3> %scf
|  4>  ConvForced true
|  5>  convergence tight
|  6>  MaxIter 500
|  7> end
|  8>
|  9> %tddft
| 10>  nroots 1
| 11> end
| 12>
| 13> # 	20819
| 14> * xyz 0 1
| 15> 		C   -0.531479  -0.405894  -0.014437
| 16> 		O   -0.560549  -1.608738   0.016608
| 17> 		C    0.632887   0.378283  -0.001366
| 18> 		C    1.799020  -0.140884   0.003456
| 19> 		H   -1.620073   0.186931  -0.087791
| 20> 		H    0.369449   1.499679   0.099248
| 21> 		H    1.739555  -1.324452  -0.181781
| 22> 		H    2.712540   0.437459   0.065839
| 23> *
| 24>
| 25>                          ****END OF INPUT****

CARTESIAN COORDINATES (ANGSTROEM)
---------------------------------
  C     -0.531479   -0.405894   -0.014437
  O     -0.560549   -1.608738    0.016608
  C      0.632887    0.378283   -0.001366
  C      1.799020   -0.140884    0.003456
  H     -1.620073    0.186931   -0.087791
  H      0.369449    1.499679    0.099248
  H      1.739555   -1.324452   -0.181781
  H      2.712540    0.437459    0.065839

 Total Charge           Charge          ....    0
 Multiplicity           Mult            ....    1
 Number of Electrons    NEL             ....   30
 Basis Dimension        Dim             ....   24

ORBITAL ENERGIES
----------------

  NO   OCC          E(Eh)            E(eV)
   0   2.0000     -20.351895      -553.8032
   1   2.0000     -11.288218      -307.1680
   2   2.0000     -11.194208      -304.6099
   3   2.0000     -11.188025      -304.4416
   4   2.0000      -1.401826       -38.1456
   5   2.0000      -1.101550       -29.9747
   6   2.0000      -0.890492       -24.2315
   7   2.0000      -0.710538       -19.3347
   8   2.0000      -0.698352       -19.0031
   9   2.0000      -0.616819       -16.7845
  10   2.0000      -0.585847       -15.9417
  11   2.0000      -0.549333       -14.9481
  12   2.0000      -0.499200       -13.5839
  13   2.0000      -0.403623       -10.9831
  14   2.0000      -0.401143       -10.9157
  15   0.0000       0.137692         3.7468
  16   0.0000       0.344882         9.3847
  17   0.0000       0.472249        12.8505
  18   0.0000       0.543185        14.7808
  19   0.0000       0.611671        16.6444

MULLIKEN ATOMIC CHARGES
-----------------------
   0 C :    0.178967
   1 O :   -0.369969
   2 C :   -0.194675
   3 C :   -0.210295
   4 H :    0.125235
   5 H :    0.142734
   6 H :    0.175557
   7 H :    0.152447
Sum of atomic charges:   -0.0000000

LOEWDIN ATOMIC CHARGES
----------------------
   0 C :    0.146983
   1 O :   -0.274513
   2 C :   -0.152540
   3 C :   -0.116716
   4 H :    0.073205
   5 H :    0.095433
   6 H :    0.128043
   7 H :    0.100105

  Mayer bond orders larger than 0.100000
B(  0-C ,  1-O ) :   1.8873 B(  0-C ,  2-C ) :   1.0501 B(  0-C ,  4-H ) :   0.9121
B(  2-C ,  3-C ) :   1.9392 B(  2-C ,  5-H ) :   0.9489 B(  3-C ,  6-H ) :   0.9402
B(  3-C ,  7-H ) :   0.9610

-----------------------------------------------------------------------------
         ABSORPTION SPECTRUM VIA TRANSITION ELECTRIC DIPOLE MOMENTS
-----------------------------------------------------------------------------
State   Energy    Wavelength  fosc         T2        TX        TY        TZ
        (cm-1)      (nm)                 (au**2)    (au)      (au)      (au)
-----------------------------------------------------------------------------
   1   32783.1    305.0   0.000114582   0.00115  -0.01660   0.00104  -0.02956

Dispersion correction           -0.026482907
FINAL SINGLE POINT ENERGY      -189.306918099388

DIPOLE MOMENT
-------------
                                X             Y             Z
Electronic contribution:     -1.51082      -1.62607       0.05915
Nuclear contribution   :      1.84715       2.53783      -0.09859
                        -----------------------------------------
Total Dipole Moment    :      0.33633       0.91176      -0.03944
                        -----------------------------------------
Magnitude (a.u.)       :      0.97262
Magnitude (Debye)      :      2.47220

Rotational constants in cm-1:     0.781749     0.223714     0.174162
Rotational constants in MHz : 23436.243283  6706.787555  5221.258955

                             ****ORCA TERMINATED NORMALLY****
TOTAL RUN TIME: 0 days 0 hours 0 minutes 12 seconds 665 msec
