                         Program Version 5.0.3 -  RELEASE  -
|  1> ! B3LYP cc-pVDZ
|  2> !TightSCF
|  3> %scf
|  4>  ConvForced true
|  5>  convergence tight
|  6>  MaxIter 500
|  7> end
|  8>
|  9> %tddft
| 10>  nroots 1
| 11> end
| 12>
| 13> # 	28560
| 14> * xyz 0 1
| 15> 		C   -0.623147  -0.419341   0.012008
| 16> 		O   -0.531527  -1.618279  -0.012976
| 17> 		C    0.607800   0.440058   0.006593
| 18> 		C    1.843775  -0.171221  -0.013839
| 19> 		H   -1.655567   0.051711   0.067337
| 20> 		H    0.610379   1.552788  -0.104944
| 21> 		H    2.025341  -1.299694   0.166849
| 22> 		H    2.641253   0.439919   0.012527
| 23> *
| 24>
| 25>                          ****END OF INPUT****

CARTESIAN COORDINATES (ANGSTROEM)
---------------------------------
  C     -0.623147   -0.419341    0.012008
  O     -0.531527   -1.618279   -0.012976
  C      0.607800    0.440058    0.006593
  C      1.843775   -0.171221   -0.013839
  H     -1.655567    0.051711    0.067337
  H      0.610379    1.552788   -0.104944
  H      2.025341   -1.299694    0.166849
  H      2.641253    0.439919    0.012527

 Total Charge           Charge          ....    0
 Multiplicity           Mult            ....    1
 Number of Electrons    NEL             ....   30
 Basis Dimension        Dim             ....   76

ORBITAL ENERGIES
----------------

  NO   OCC          E(Eh)            E(eV)
   0   2.0000     -19.136547      -520.7319
   1   2.0000     -10.278016      -279.6790
   2   2.0000     -10.212123      -277.8860
   3   2.0000     -10.211470      -277.8682
   4   2.0000      -1.050825       -28.5944
   5   2.0000      -0.782555       -21.2944
   6   2.0000      -0.649712       -17.6796
   7   2.0000      -0.542252       -14.7554
   8   2.0000      -0.505580       -13.7575
   9   2.0000      -0.441200       -12.0057
  10   2.0000      -0.419400       -11.4125
  11   2.0000      -0.399233       -10.8637
  12   2.0000      -0.382234       -10.4011
  13   2.0000      -0.280329        -7.6281
  14   2.0000      -0.255802        -6.9607
  15   0.0000      -0.070313        -1.9133
  16   0.0000       0.054170         1.4740
  17   0.0000       0.072622         1.9761
  18   0.0000       0.089554         2.4369
  19   0.0000       0.109687         2.9847

MULLIKEN ATOMIC CHARGES
-----------------------
   0 C :    0.184335
   1 O :   -0.183438
   2 C :   -0.140318
   3 C :    0.082528
   4 H :   -0.012966
   5 H :    0.006020
   6 H :    0.061332
   7 H :    0.002507
Sum of atomic charges:   -0.0000000

LOEWDIN ATOMIC CHARGES
----------------------
   0 C :   -0.039804
   1 O :    0.001790
   2 C :   -0.081391
   3 C :    0.036292
   4 H :   -0.002667
   5 H :    0.032870
   6 H :    0.049326
   7 H :    0.003582

  Mayer bond orders larger than 0.100000
B(  0-C ,  1-O ) :   2.1942 B(  0-C ,  2-C ) :   1.0170 B(  0-C ,  4-H ) :   0.9205
B(  2-C ,  3-C ) :   1.9613 B(  2-C ,  5-H ) :   0.9418 B(  3-C ,  6-H ) :   0.9451
B(  3-C ,  7-H ) :   0.9391

-----------------------------------------------------------------------------
         ABSORPTION SPECTRUM VIA TRANSITION ELECTRIC DIPOLE MOMENTS
-----------------------------------------------------------------------------
State   Energy    Wavelength  fosc         T2        TX        TY        TZ
        (cm-1)      (nm)                 (au**2)    (au)      (au)      (au)
-----------------------------------------------------------------------------
   1   28017.9    356.9   0.000248904   0.00292   0.04753   0.00197  -0.02573

FINAL SINGLE POINT ENERGY      -191.667488934025

DIPOLE MOMENT
-------------
                                X             Y             Z
Electronic contribution:     -1.89643      -1.63706      -0.09841
Nuclear contribution   :      2.24002       2.48564       0.13332
                        -----------------------------------------
Total Dipole Moment    :      0.34359       0.84858       0.03491
                        -----------------------------------------
Magnitude (a.u.)       :      0.91617
Magnitude (Debye)      :      2.32872

Rotational constants in cm-1:     0.709957     0.216229     0.165914
Rotational constants in MHz : 21283.988555  6482.379221  4973.990574

                             ****ORCA TERMINATED NORMALLY****
TOTAL RUN TIME: 0 days 0 hours 3 minutes 27 seconds 963 msec
