                         Program Version 5.0.3 -  RELEASE  -
|  1> ! B3LYP cc-pVDZ
|  2> !TightSCF
|  3> %scf
|  4>  ConvForced true
|  5>  convergence tight
|  6>  MaxIter 500
|  7> end
|  8>
|  9> %tddft
| 10>  nroots 1
| 11> end
| 12>
| 13> # 	1428
| 14> * xyz 0 1
| 15> 		C   -1.252850  -0.367686  -0.045351
| 16> 		O   -1.714555  -1.081773   0.829017
| 17> 		C   -0.012225   0.497487   0.160411
| 18> 		C    1.205004   0.119938  -0.177170
| 19> 		H   -1.726925  -0.285546  -0.946353
| 20> 		H    0.095110   1.433066   0.860699
| 21> 		H    1.356800  -0.791330  -0.700585
| 22> 		H    2.075679   0.517092   0.017447
| 23> *
| 24>
| 25>                          ****END OF INPUT****

CARTESIAN COORDINATES (ANGSTROEM)
---------------------------------
  C     -1.252850   -0.367686   -0.045351
  O     -1.714555   -1.081773    0.829017
  C     -0.012225    0.497487    0.160411
  C      1.205004    0.119938   -0.177170
  H     -1.726925   -0.285546   -0.946353
  H      0.095110    1.433066    0.860699
  H      1.356800   -0.791330   -0.700585
  H      2.075679    0.517092    0.017447

 Total Charge           Charge          ....    0
 Multiplicity           Mult            ....    1
 Number of Electrons    NEL             ....   30
 Basis Dimension        Dim             ....   76

ORBITAL ENERGIES
----------------

  NO   OCC          E(Eh)            E(eV)
   0   2.0000     -19.149062      -521.0725
   1   2.0000     -10.283842      -279.8376
   2   2.0000     -10.210393      -277.8389
   3   2.0000     -10.187077      -277.2044
   4   2.0000      -1.049622       -28.5617
   5   2.0000      -0.795317       -21.6417
   6   2.0000      -0.660480       -17.9726
   7   2.0000      -0.574866       -15.6429
   8   2.0000      -0.495125       -13.4730
   9   2.0000      -0.470967       -12.8157
  10   2.0000      -0.441679       -12.0187
  11   2.0000      -0.388760       -10.5787
  12   2.0000      -0.359730        -9.7888
  13   2.0000      -0.289459        -7.8766
  14   2.0000      -0.261509        -7.1160
  15   0.0000      -0.046722        -1.2714
  16   0.0000      -0.001690        -0.0460
  17   0.0000       0.083409         2.2697
  18   0.0000       0.098948         2.6925
  19   0.0000       0.110626         3.0103

MULLIKEN ATOMIC CHARGES
-----------------------
   0 C :    0.235319
   1 O :   -0.185373
   2 C :   -0.158046
   3 C :    0.106661
   4 H :   -0.013016
   5 H :    0.037697
   6 H :   -0.002440
   7 H :   -0.020803
Sum of atomic charges:    0.0000000

LOEWDIN ATOMIC CHARGES
----------------------
   0 C :    0.009515
   1 O :    0.009588
   2 C :   -0.066530
   3 C :   -0.009623
   4 H :   -0.015162
   5 H :    0.057470
   6 H :    0.018107
   7 H :   -0.003364

  Mayer bond orders larger than 0.100000
B(  0-C ,  1-O ) :   2.2255 B(  0-C ,  2-C ) :   0.9491 B(  0-C ,  4-H ) :   0.9335
B(  2-C ,  3-C ) :   2.0507 B(  2-C ,  5-H ) :   0.9256 B(  3-C ,  6-H ) :   0.9549
B(  3-C ,  7-H ) :   0.9506

-----------------------------------------------------------------------------
         ABSORPTION SPECTRUM VIA TRANSITION ELECTRIC DIPOLE MOMENTS
-----------------------------------------------------------------------------
State   Energy    Wavelength  fosc         T2        TX        TY        TZ
        (cm-1)      (nm)                 (au**2)    (au)      (au)      (au)
-----------------------------------------------------------------------------
   1   31919.3    313.3   0.001817693   0.01875   0.12419   0.05738   0.00565

FINAL SINGLE POINT ENERGY      -191.621402991951

DIPOLE MOMENT
-------------
                                X             Y             Z
Electronic contribution:     -2.92672      -1.18814       0.95698
Nuclear contribution   :      3.43387       1.70561      -1.49810
                        -----------------------------------------
Total Dipole Moment    :      0.50715       0.51747      -0.54112
                        -----------------------------------------
Magnitude (a.u.)       :      0.90432
Magnitude (Debye)      :      2.29859

Rotational constants in cm-1:     1.037009     0.160116     0.155747
Rotational constants in MHz : 31088.748958  4800.155970  4669.177444

                             ****ORCA TERMINATED NORMALLY****
TOTAL RUN TIME: 0 days 0 hours 3 minutes 18 seconds 305 msec
