                         Program Version 5.0.3 -  RELEASE  -
|  1> ! B3LYP cc-pVDZ
|  2> !TightSCF
|  3> %scf
|  4>  ConvForced true
|  5>  convergence tight
|  6>  MaxIter 500
|  7> end
|  8>
|  9> %tddft
| 10>  nroots 1
| 11> end
| 12>
| 13> # 	577
| 14> * xyz 0 1
| 15> 		C   -1.189287  -0.321696  -0.063811
| 16> 		O   -2.139644  -0.525205  -0.816561
| 17> 		C    0.043505   0.399223  -0.334072
| 18> 		C    1.129184   0.157366   0.325114
| 19> 		H   -1.294958  -0.829241   0.951150
| 20> 		H   -0.133449   0.996099  -1.095547
| 21> 		H    1.264893  -0.451662   1.099647
| 22> 		H    2.203919   0.550540  -0.030599
| 23> *
| 24>
| 25>                          ****END OF INPUT****

CARTESIAN COORDINATES (ANGSTROEM)
---------------------------------
  C     -1.189287   -0.321696   -0.063811
  O     -2.139644   -0.525205   -0.816561
  C      0.043505    0.399223   -0.334072
  C      1.129184    0.157366    0.325114
  H     -1.294958   -0.829241    0.951150
  H     -0.133449    0.996099   -1.095547
  H      1.264893   -0.451662    1.099647
  H      2.203919    0.550540   -0.030599

 Total Charge           Charge          ....    0
 Multiplicity           Mult            ....    1
 Number of Electrons    NEL             ....   30
 Basis Dimension        Dim             ....   76

ORBITAL ENERGIES
----------------

  NO   OCC          E(Eh)            E(eV)
   0   2.0000     -19.137332      -520.7533
   1   2.0000     -10.273771      -279.5635
   2   2.0000     -10.220404      -278.1113
   3   2.0000     -10.201123      -277.5867
   4   2.0000      -1.035124       -28.1671
   5   2.0000      -0.822060       -22.3694
   6   2.0000      -0.660721       -17.9791
   7   2.0000      -0.580457       -15.7950
   8   2.0000      -0.500160       -13.6100
   9   2.0000      -0.470369       -12.7994
  10   2.0000      -0.424090       -11.5401
  11   2.0000      -0.393516       -10.7081
  12   2.0000      -0.382404       -10.4058
  13   2.0000      -0.302669        -8.2360
  14   2.0000      -0.250427        -6.8145
  15   0.0000      -0.065221        -1.7748
  16   0.0000       0.040208         1.0941
  17   0.0000       0.070368         1.9148
  18   0.0000       0.091262         2.4834
  19   0.0000       0.121359         3.3023

MULLIKEN ATOMIC CHARGES
-----------------------
   0 C :    0.131207
   1 O :   -0.209931
   2 C :    0.048869
   3 C :    0.075376
   4 H :   -0.032922
   5 H :   -0.056978
   6 H :   -0.007839
   7 H :    0.052218
Sum of atomic charges:   -0.0000000

LOEWDIN ATOMIC CHARGES
----------------------
   0 C :   -0.022182
   1 O :   -0.021646
   2 C :   -0.042012
   3 C :    0.027591
   4 H :   -0.008628
   5 H :    0.007249
   6 H :    0.004017
   7 H :    0.055611

  Mayer bond orders larger than 0.100000
B(  0-C ,  1-O ) :   2.1474 B(  0-C ,  2-C ) :   1.0838 B(  0-C ,  4-H ) :   0.9243
B(  2-C ,  3-C ) :   1.9431 B(  2-C ,  5-H ) :   0.9460 B(  3-C ,  6-H ) :   0.9397
B(  3-C ,  7-H ) :   0.9415

-----------------------------------------------------------------------------
         ABSORPTION SPECTRUM VIA TRANSITION ELECTRIC DIPOLE MOMENTS
-----------------------------------------------------------------------------
State   Energy    Wavelength  fosc         T2        TX        TY        TZ
        (cm-1)      (nm)                 (au**2)    (au)      (au)      (au)
-----------------------------------------------------------------------------
   1   27745.3    360.4   0.000111525   0.00132   0.02372  -0.02642  -0.00793

FINAL SINGLE POINT ENERGY      -191.649970708232

DIPOLE MOMENT
-------------
                                X             Y             Z
Electronic contribution:     -2.99966      -0.35673      -1.22994
Nuclear contribution   :      4.05820       0.59861       1.72942
                        -----------------------------------------
Total Dipole Moment    :      1.05854       0.24188       0.49948
                        -----------------------------------------
Magnitude (a.u.)       :      1.19520
Magnitude (Debye)      :      3.03795

Rotational constants in cm-1:     1.645718     0.154637     0.143632
Rotational constants in MHz : 49337.379539  4635.912050  4305.979715

                             ****ORCA TERMINATED NORMALLY****
TOTAL RUN TIME: 0 days 0 hours 3 minutes 23 seconds 594 msec
