                         Program Version 5.0.3 -  RELEASE  -
|  1> ! B3LYP cc-pVDZ
|  2> !TightSCF
|  3> %scf
|  4>  ConvForced true
|  5>  convergence tight
|  6>  MaxIter 500
|  7> end
|  8>
|  9> %tddft
| 10>  nroots 1
| 11> end
| 12>
| 13> # 	16587
| 14> * xyz 0 1
| 15> 		C   -1.251091  -0.328894  -0.009814
| 16> 		O   -1.480130  -1.358877   0.641024
| 17> 		C    0.029840   0.479144   0.221213
| 18> 		C    1.226332   0.042613  -0.155269
| 19> 		H   -1.897012   0.176014  -0.707979
| 20> 		H   -0.219871   1.374046   0.553880
| 21> 		H    1.444956  -0.982036  -0.544454
| 22> 		H    2.130559   0.642600  -0.029650
| 23> *
| 24>
| 25>                          ****END OF INPUT****

CARTESIAN COORDINATES (ANGSTROEM)
---------------------------------
  C     -1.251091   -0.328894   -0.009814
  O     -1.480130   -1.358877    0.641024
  C      0.029840    0.479144    0.221213
  C      1.226332    0.042613   -0.155269
  H     -1.897012    0.176014   -0.707979
  H     -0.219871    1.374046    0.553880
  H      1.444956   -0.982036   -0.544454
  H      2.130559    0.642600   -0.029650

 Total Charge           Charge          ....    0
 Multiplicity           Mult            ....    1
 Number of Electrons    NEL             ....   30
 Basis Dimension        Dim             ....   76

ORBITAL ENERGIES
----------------

  NO   OCC          E(Eh)            E(eV)
   0   2.0000     -19.146715      -521.0086
   1   2.0000     -10.282541      -279.8022
   2   2.0000     -10.207246      -277.7533
   3   2.0000     -10.197350      -277.4840
   4   2.0000      -1.034399       -28.1474
   5   2.0000      -0.792806       -21.5734
   6   2.0000      -0.659534       -17.9468
   7   2.0000      -0.565091       -15.3769
   8   2.0000      -0.495449       -13.4819
   9   2.0000      -0.455762       -12.4019
  10   2.0000      -0.440980       -11.9997
  11   2.0000      -0.382772       -10.4157
  12   2.0000      -0.373766       -10.1707
  13   2.0000      -0.287542        -7.8244
  14   2.0000      -0.253407        -6.8955
  15   0.0000      -0.045030        -1.2253
  16   0.0000       0.001660         0.0452
  17   0.0000       0.080197         2.1823
  18   0.0000       0.090549         2.4640
  19   0.0000       0.113958         3.1010

MULLIKEN ATOMIC CHARGES
-----------------------
   0 C :    0.174537
   1 O :   -0.204675
   2 C :   -0.016604
   3 C :    0.020029
   4 H :   -0.000208
   5 H :   -0.038510
   6 H :    0.036142
   7 H :    0.029289
Sum of atomic charges:    0.0000000

LOEWDIN ATOMIC CHARGES
----------------------
   0 C :    0.013765
   1 O :   -0.017309
   2 C :   -0.040192
   3 C :   -0.019106
   4 H :   -0.005230
   5 H :    0.001917
   6 H :    0.036757
   7 H :    0.029399

  Mayer bond orders larger than 0.100000
B(  0-C ,  1-O ) :   2.1951 B(  0-C ,  2-C ) :   1.0000 B(  0-C ,  4-H ) :   0.9135
B(  2-C ,  3-C ) :   2.0282 B(  2-C ,  5-H ) :   0.9419 B(  3-C ,  6-H ) :   0.9447
B(  3-C ,  7-H ) :   0.9481

-----------------------------------------------------------------------------
         ABSORPTION SPECTRUM VIA TRANSITION ELECTRIC DIPOLE MOMENTS
-----------------------------------------------------------------------------
State   Energy    Wavelength  fosc         T2        TX        TY        TZ
        (cm-1)      (nm)                 (au**2)    (au)      (au)      (au)
-----------------------------------------------------------------------------
   1   30822.9    324.4   0.000029443   0.00031  -0.00792  -0.01578   0.00166

FINAL SINGLE POINT ENERGY      -191.643073887529

DIPOLE MOMENT
-------------
                                X             Y             Z
Electronic contribution:     -2.49113      -1.53251       0.90474
Nuclear contribution   :      2.83499       2.33898      -1.35887
                        -----------------------------------------
Total Dipole Moment    :      0.34387       0.80647      -0.45413
                        -----------------------------------------
Magnitude (a.u.)       :      0.98736
Magnitude (Debye)      :      2.50966

Rotational constants in cm-1:     0.864944     0.176293     0.156904
Rotational constants in MHz : 25930.359835  5285.136077  4703.858303

                             ****ORCA TERMINATED NORMALLY****
TOTAL RUN TIME: 0 days 0 hours 3 minutes 14 seconds 626 msec
