                         Program Version 5.0.3 -  RELEASE  -
|  1> ! B3LYP cc-pVDZ
|  2> !TightSCF
|  3> %scf
|  4>  ConvForced true
|  5>  convergence tight
|  6>  MaxIter 500
|  7> end
|  8>
|  9> %tddft
| 10>  nroots 1
| 11> end
| 12>
| 13> # 	27521
| 14> * xyz 0 1
| 15> 		C   -0.593599  -0.441030   0.082883
| 16> 		O   -0.587979  -1.677512  -0.034891
| 17> 		C    0.661149   0.461075  -0.093953
| 18> 		C    1.822279  -0.094484   0.034980
| 19> 		H   -1.561764   0.151071   0.117689
| 20> 		H    0.557882   1.468155   0.014087
| 21> 		H    1.993735  -1.261780   0.042883
| 22> 		H    2.807863   0.409296   0.096721
| 23> *
| 24>
| 25>                          ****END OF INPUT****

CARTESIAN COORDINATES (ANGSTROEM)
---------------------------------
  C     -0.593599   -0.441030    0.082883
  O     -0.587979   -1.677512   -0.034891
  C      0.661149    0.461075   -0.093953
  C      1.822279   -0.094484    0.034980
  H     -1.561764    0.151071    0.117689
  H      0.557882    1.468155    0.014087
  H      1.993735   -1.261780    0.042883
  H      2.807863    0.409296    0.096721

 Total Charge           Charge          ....    0
 Multiplicity           Mult            ....    1
 Number of Electrons    NEL             ....   30
 Basis Dimension        Dim             ....   76

ORBITAL ENERGIES
----------------

  NO   OCC          E(Eh)            E(eV)
   0   2.0000     -19.144588      -520.9507
   1   2.0000     -10.286612      -279.9129
   2   2.0000     -10.214435      -277.9489
   3   2.0000     -10.198696      -277.5206
   4   2.0000      -1.031095       -28.0575
   5   2.0000      -0.799070       -21.7438
   6   2.0000      -0.643708       -17.5162
   7   2.0000      -0.549223       -14.9451
   8   2.0000      -0.503300       -13.6955
   9   2.0000      -0.444670       -12.1001
  10   2.0000      -0.425713       -11.5842
  11   2.0000      -0.389442       -10.5973
  12   2.0000      -0.364816        -9.9272
  13   2.0000      -0.294489        -8.0135
  14   2.0000      -0.257899        -7.0178
  15   0.0000      -0.066963        -1.8222
  16   0.0000       0.045392         1.2352
  17   0.0000       0.070104         1.9076
  18   0.0000       0.082955         2.2573
  19   0.0000       0.120677         3.2838

MULLIKEN ATOMIC CHARGES
-----------------------
   0 C :    0.174269
   1 O :   -0.208894
   2 C :   -0.050139
   3 C :    0.023531
   4 H :    0.002989
   5 H :   -0.031019
   6 H :    0.056613
   7 H :    0.032649
Sum of atomic charges:    0.0000000

LOEWDIN ATOMIC CHARGES
----------------------
   0 C :    0.004724
   1 O :   -0.030149
   2 C :   -0.081633
   3 C :    0.014535
   4 H :    0.000554
   5 H :    0.011298
   6 H :    0.048755
   7 H :    0.031916

  Mayer bond orders larger than 0.100000
B(  0-C ,  1-O ) :   2.1615 B(  0-C ,  2-C ) :   1.0127 B(  0-C ,  4-H ) :   0.9125
B(  2-C ,  3-C ) :   1.9777 B(  2-C ,  5-H ) :   0.9417 B(  3-C ,  6-H ) :   0.9320
B(  3-C ,  7-H ) :   0.9466

-----------------------------------------------------------------------------
         ABSORPTION SPECTRUM VIA TRANSITION ELECTRIC DIPOLE MOMENTS
-----------------------------------------------------------------------------
State   Energy    Wavelength  fosc         T2        TX        TY        TZ
        (cm-1)      (nm)                 (au**2)    (au)      (au)      (au)
-----------------------------------------------------------------------------
   1   28519.7    350.6   0.000724133   0.00836   0.08933   0.00669   0.01827

FINAL SINGLE POINT ENERGY      -191.659440612980

DIPOLE MOMENT
-------------
                                X             Y             Z
Electronic contribution:     -2.03035      -1.58271      -0.13750
Nuclear contribution   :      2.40379       2.50622       0.25392
                        -----------------------------------------
Total Dipole Moment    :      0.37344       0.92351       0.11642
                        -----------------------------------------
Magnitude (a.u.)       :      1.00294
Magnitude (Debye)      :      2.54927

Rotational constants in cm-1:     0.744154     0.202460     0.159908
Rotational constants in MHz : 22309.175056  6069.611478  4793.909754

                             ****ORCA TERMINATED NORMALLY****
TOTAL RUN TIME: 0 days 0 hours 3 minutes 6 seconds 236 msec
