                         Program Version 5.0.3 -  RELEASE  -
|  1> ! B3LYP cc-pVDZ
|  2> !TightSCF
|  3> %scf
|  4>  ConvForced true
|  5>  convergence tight
|  6>  MaxIter 500
|  7> end
|  8>
|  9> %tddft
| 10>  nroots 1
| 11> end
| 12>
| 13> # 	16110
| 14> * xyz 0 1
| 15> 		C   -1.160935  -0.373694  -0.031539
| 16> 		O   -1.529380  -1.337102   0.628365
| 17> 		C    0.010446   0.459089   0.153403
| 18> 		C    1.237338   0.014452  -0.199482
| 19> 		H   -1.814186   0.051614  -0.780297
| 20> 		H   -0.228373   1.379664   0.473974
| 21> 		H    1.553527  -0.890071  -0.371151
| 22> 		H    1.987098   0.684247   0.111394
| 23> *
| 24>
| 25>                          ****END OF INPUT****

CARTESIAN COORDINATES (ANGSTROEM)
---------------------------------
  C     -1.160935   -0.373694   -0.031539
  O     -1.529380   -1.337102    0.628365
  C      0.010446    0.459089    0.153403
  C      1.237338    0.014452   -0.199482
  H     -1.814186    0.051614   -0.780297
  H     -0.228373    1.379664    0.473974
  H      1.553527   -0.890071   -0.371151
  H      1.987098    0.684247    0.111394

 Total Charge           Charge          ....    0
 Multiplicity           Mult            ....    1
 Number of Electrons    NEL             ....   30
 Basis Dimension        Dim             ....   76

ORBITAL ENERGIES
----------------

  NO   OCC          E(Eh)            E(eV)
   0   2.0000     -19.142059      -520.8819
   1   2.0000     -10.273065      -279.5443
   2   2.0000     -10.203505      -277.6515
   3   2.0000     -10.195366      -277.4300
   4   2.0000      -1.040093       -28.3024
   5   2.0000      -0.807313       -21.9681
   6   2.0000      -0.676965       -18.4211
   7   2.0000      -0.568476       -15.4690
   8   2.0000      -0.505305       -13.7500
   9   2.0000      -0.468937       -12.7604
  10   2.0000      -0.444488       -12.0951
  11   2.0000      -0.397206       -10.8085
  12   2.0000      -0.372012       -10.1230
  13   2.0000      -0.286674        -7.8008
  14   2.0000      -0.252819        -6.8795
  15   0.0000      -0.045380        -1.2349
  16   0.0000      -0.006730        -0.1831
  17   0.0000       0.080598         2.1932
  18   0.0000       0.107692         2.9305
  19   0.0000       0.117555         3.1988

MULLIKEN ATOMIC CHARGES
-----------------------
   0 C :    0.178979
   1 O :   -0.197821
   2 C :   -0.050304
   3 C :    0.111659
   4 H :   -0.021811
   5 H :   -0.018792
   6 H :   -0.017400
   7 H :    0.015490
Sum of atomic charges:    0.0000000

LOEWDIN ATOMIC CHARGES
----------------------
   0 C :   -0.015298
   1 O :   -0.006626
   2 C :   -0.025562
   3 C :    0.014552
   4 H :   -0.008557
   5 H :    0.016963
   6 H :   -0.003929
   7 H :    0.028457

  Mayer bond orders larger than 0.100000
B(  0-C ,  1-O ) :   2.2188 B(  0-C ,  2-C ) :   1.0317 B(  0-C ,  4-H ) :   0.9118
B(  2-C ,  3-C ) :   2.0180 B(  2-C ,  5-H ) :   0.9358 B(  3-C ,  6-H ) :   0.9562
B(  3-C ,  7-H ) :   0.9484

-----------------------------------------------------------------------------
         ABSORPTION SPECTRUM VIA TRANSITION ELECTRIC DIPOLE MOMENTS
-----------------------------------------------------------------------------
State   Energy    Wavelength  fosc         T2        TX        TY        TZ
        (cm-1)      (nm)                 (au**2)    (au)      (au)      (au)
-----------------------------------------------------------------------------
   1   31322.9    319.3   0.000906591   0.00953   0.09613  -0.01628  -0.00475

FINAL SINGLE POINT ENERGY      -191.625022831679

DIPOLE MOMENT
-------------
                                X             Y             Z
Electronic contribution:     -2.36795      -1.62917       0.73983
Nuclear contribution   :      2.85554       2.40388      -1.09637
                        -----------------------------------------
Total Dipole Moment    :      0.48759       0.77470      -0.35654
                        -----------------------------------------
Magnitude (a.u.)       :      0.98236
Magnitude (Debye)      :      2.49695

Rotational constants in cm-1:     0.947232     0.176755     0.159019
Rotational constants in MHz : 28397.296445  5298.980327  4767.275715

                             ****ORCA TERMINATED NORMALLY****
TOTAL RUN TIME: 0 days 0 hours 3 minutes 22 seconds 888 msec
