                         Program Version 5.0.3 -  RELEASE  -
|  1> ! B3LYP cc-pVDZ
|  2> !TightSCF
|  3> %scf
|  4>  ConvForced true
|  5>  convergence tight
|  6>  MaxIter 500
|  7> end
|  8>
|  9> %tddft
| 10>  nroots 1
| 11> end
| 12>
| 13> # 	15731
| 14> * xyz 0 1
| 15> 		C   -1.261660  -0.303869  -0.035281
| 16> 		O   -1.704687  -1.101871   0.830066
| 17> 		C   -0.012663   0.520164   0.153616
| 18> 		C    1.154728   0.078634  -0.169918
| 19> 		H   -1.638807  -0.242975  -0.935287
| 20> 		H   -0.054538   1.462793   0.673551
| 21> 		H    1.373673  -0.945243  -0.550693
| 22> 		H    2.160438   0.512034   0.000146
| 23> *
| 24>
| 25>                          ****END OF INPUT****

CARTESIAN COORDINATES (ANGSTROEM)
---------------------------------
  C     -1.261660   -0.303869   -0.035281
  O     -1.704687   -1.101871    0.830066
  C     -0.012663    0.520164    0.153616
  C      1.154728    0.078634   -0.169918
  H     -1.638807   -0.242975   -0.935287
  H     -0.054538    1.462793    0.673551
  H      1.373673   -0.945243   -0.550693
  H      2.160438    0.512034    0.000146

 Total Charge           Charge          ....    0
 Multiplicity           Mult            ....    1
 Number of Electrons    NEL             ....   30
 Basis Dimension        Dim             ....   76

ORBITAL ENERGIES
----------------

  NO   OCC          E(Eh)            E(eV)
   0   2.0000     -19.148531      -521.0580
   1   2.0000     -10.279021      -279.7064
   2   2.0000     -10.202506      -277.6243
   3   2.0000     -10.201305      -277.5916
   4   2.0000      -1.027506       -27.9599
   5   2.0000      -0.802730       -21.8434
   6   2.0000      -0.664202       -18.0739
   7   2.0000      -0.576231       -15.6800
   8   2.0000      -0.492841       -13.4109
   9   2.0000      -0.469920       -12.7872
  10   2.0000      -0.438677       -11.9370
  11   2.0000      -0.370318       -10.0769
  12   2.0000      -0.363067        -9.8796
  13   2.0000      -0.294569        -8.0156
  14   2.0000      -0.259104        -7.0506
  15   0.0000      -0.049531        -1.3478
  16   0.0000      -0.000866        -0.0236
  17   0.0000       0.083514         2.2725
  18   0.0000       0.094010         2.5581
  19   0.0000       0.111640         3.0379

MULLIKEN ATOMIC CHARGES
-----------------------
   0 C :    0.250941
   1 O :   -0.217733
   2 C :   -0.070852
   3 C :    0.001389
   4 H :   -0.021892
   5 H :    0.012025
   6 H :    0.018258
   7 H :    0.027864
Sum of atomic charges:    0.0000000

LOEWDIN ATOMIC CHARGES
----------------------
   0 C :    0.045140
   1 O :   -0.024495
   2 C :   -0.060889
   3 C :   -0.035843
   4 H :   -0.024662
   5 H :    0.037458
   6 H :    0.029379
   7 H :    0.033911

  Mayer bond orders larger than 0.100000
B(  0-C ,  1-O ) :   2.1968 B(  0-C ,  2-C ) :   0.9723 B(  0-C ,  4-H ) :   0.9404
B(  2-C ,  3-C ) :   2.0543 B(  2-C ,  5-H ) :   0.9312 B(  3-C ,  6-H ) :   0.9506
B(  3-C ,  7-H ) :   0.9504

-----------------------------------------------------------------------------
         ABSORPTION SPECTRUM VIA TRANSITION ELECTRIC DIPOLE MOMENTS
-----------------------------------------------------------------------------
State   Energy    Wavelength  fosc         T2        TX        TY        TZ
        (cm-1)      (nm)                 (au**2)    (au)      (au)      (au)
-----------------------------------------------------------------------------
   1   30160.9    331.6   0.000028168   0.00031  -0.00247  -0.01242   0.01213

FINAL SINGLE POINT ENERGY      -191.634321581531

DIPOLE MOMENT
-------------
                                X             Y             Z
Electronic contribution:     -3.00714      -1.00786       0.97442
Nuclear contribution   :      3.50635       1.61501      -1.54556
                        -----------------------------------------
Total Dipole Moment    :      0.49921       0.60715      -0.57114
                        -----------------------------------------
Magnitude (a.u.)       :      0.97162
Magnitude (Debye)      :      2.46966

Rotational constants in cm-1:     0.982891     0.165892     0.157262
Rotational constants in MHz : 29466.335494  4973.328346  4714.583111

                             ****ORCA TERMINATED NORMALLY****
TOTAL RUN TIME: 0 days 0 hours 2 minutes 42 seconds 534 msec
