                         Program Version 5.0.3 -  RELEASE  -
|  1> ! B3LYP cc-pVDZ
|  2> !TightSCF
|  3> %scf
|  4>  ConvForced true
|  5>  convergence tight
|  6>  MaxIter 500
|  7> end
|  8>
|  9> %tddft
| 10>  nroots 1
| 11> end
| 12>
| 13> # 	1463
| 14> * xyz 0 1
| 15> 		C   -1.214595  -0.403861   0.084365
| 16> 		O   -1.351452  -1.516594  -0.277482
| 17> 		C    0.004307   0.451365  -0.137495
| 18> 		C    1.178748   0.016170   0.115594
| 19> 		H   -2.053302   0.280044   0.351332
| 20> 		H   -0.081476   1.501512  -0.355386
| 21> 		H    1.277265  -1.065159   0.295743
| 22> 		H    2.166577   0.712405  -0.075265
| 23> *
| 24>
| 25>                          ****END OF INPUT****

CARTESIAN COORDINATES (ANGSTROEM)
---------------------------------
  C     -1.214595   -0.403861    0.084365
  O     -1.351452   -1.516594   -0.277482
  C      0.004307    0.451365   -0.137495
  C      1.178748    0.016170    0.115594
  H     -2.053302    0.280044    0.351332
  H     -0.081476    1.501512   -0.355386
  H      1.277265   -1.065159    0.295743
  H      2.166577    0.712405   -0.075265

 Total Charge           Charge          ....    0
 Multiplicity           Mult            ....    1
 Number of Electrons    NEL             ....   30
 Basis Dimension        Dim             ....   76

ORBITAL ENERGIES
----------------

  NO   OCC          E(Eh)            E(eV)
   0   2.0000     -19.148295      -521.0516
   1   2.0000     -10.279551      -279.7208
   2   2.0000     -10.209371      -277.8111
   3   2.0000     -10.192418      -277.3498
   4   2.0000      -1.071454       -29.1557
   5   2.0000      -0.804636       -21.8953
   6   2.0000      -0.647563       -17.6211
   7   2.0000      -0.540264       -14.7013
   8   2.0000      -0.506763       -13.7897
   9   2.0000      -0.453260       -12.3338
  10   2.0000      -0.432012       -11.7557
  11   2.0000      -0.401799       -10.9335
  12   2.0000      -0.373941       -10.1754
  13   2.0000      -0.297438        -8.0937
  14   2.0000      -0.257479        -7.0064
  15   0.0000      -0.051954        -1.4137
  16   0.0000       0.039852         1.0844
  17   0.0000       0.056724         1.5435
  18   0.0000       0.090050         2.4504
  19   0.0000       0.124686         3.3929

MULLIKEN ATOMIC CHARGES
-----------------------
   0 C :    0.180397
   1 O :   -0.154740
   2 C :   -0.070475
   3 C :   -0.000250
   4 H :   -0.023711
   5 H :   -0.011296
   6 H :    0.030867
   7 H :    0.049206
Sum of atomic charges:   -0.0000000

LOEWDIN ATOMIC CHARGES
----------------------
   0 C :   -0.043445
   1 O :    0.040726
   2 C :   -0.085630
   3 C :   -0.017153
   4 H :   -0.009596
   5 H :    0.030360
   6 H :    0.031709
   7 H :    0.053029

  Mayer bond orders larger than 0.100000
B(  0-C ,  1-O ) :   2.2379 B(  0-C ,  2-C ) :   1.0082 B(  0-C ,  4-H ) :   0.9026
B(  2-C ,  3-C ) :   2.0149 B(  2-C ,  5-H ) :   0.9314 B(  3-C ,  6-H ) :   0.9291
B(  3-C ,  7-H ) :   0.9340

-----------------------------------------------------------------------------
         ABSORPTION SPECTRUM VIA TRANSITION ELECTRIC DIPOLE MOMENTS
-----------------------------------------------------------------------------
State   Energy    Wavelength  fosc         T2        TX        TY        TZ
        (cm-1)      (nm)                 (au**2)    (au)      (au)      (au)
-----------------------------------------------------------------------------
   1   31645.9    316.0   0.000827809   0.00861   0.09071  -0.01071   0.01638

FINAL SINGLE POINT ENERGY      -191.638669340772

DIPOLE MOMENT
-------------
                                X             Y             Z
Electronic contribution:     -2.25105      -1.99654      -0.25343
Nuclear contribution   :      2.59792       2.80040       0.43219
                        -----------------------------------------
Total Dipole Moment    :      0.34687       0.80386       0.17877
                        -----------------------------------------
Magnitude (a.u.)       :      0.89357
Magnitude (Debye)      :      2.27126

Rotational constants in cm-1:     0.877401     0.193279     0.162759
Rotational constants in MHz : 26303.816866  5794.349334  4879.390451

                             ****ORCA TERMINATED NORMALLY****
TOTAL RUN TIME: 0 days 0 hours 3 minutes 27 seconds 851 msec
