                         Program Version 5.0.3 -  RELEASE  -
|  1> ! HF-3c
|  2> !TightSCF
|  3> %scf
|  4>  ConvForced true
|  5>  convergence tight
|  6>  MaxIter 500
|  7> end
|  8>
|  9> %tddft
| 10>  nroots 1
| 11> end
| 12>
| 13> # 	12709
| 14> * xyz 0 1
| 15> 		C   -1.240730  -0.362895   0.056956
| 16> 		O   -1.420162  -1.334502   0.668389
| 17> 		C    0.052999   0.502464   0.255488
| 18> 		C    1.248190  -0.048931  -0.173553
| 19> 		H   -1.947998   0.208875  -0.766075
| 20> 		H   -0.003141   1.621362   0.562891
| 21> 		H    1.298496  -1.170921  -0.581535
| 22> 		H    2.041154   0.556838  -0.054670
| 23> *
| 24>
| 25>                          ****END OF INPUT****

CARTESIAN COORDINATES (ANGSTROEM)
---------------------------------
  C     -1.240730   -0.362895    0.056956
  O     -1.420162   -1.334502    0.668389
  C      0.052999    0.502464    0.255488
  C      1.248190   -0.048931   -0.173553
  H     -1.947998    0.208875   -0.766075
  H     -0.003141    1.621362    0.562891
  H      1.298496   -1.170921   -0.581535
  H      2.041154    0.556838   -0.054670

 Total Charge           Charge          ....    0
 Multiplicity           Mult            ....    1
 Number of Electrons    NEL             ....   30
 Basis Dimension        Dim             ....   24

ORBITAL ENERGIES
----------------

  NO   OCC          E(Eh)            E(eV)
   0   2.0000     -20.394827      -554.9715
   1   2.0000     -11.311195      -307.7933
   2   2.0000     -11.169104      -303.9268
   3   2.0000     -11.163607      -303.7772
   4   2.0000      -1.444140       -39.2971
   5   2.0000      -1.042645       -28.3718
   6   2.0000      -0.856929       -23.3182
   7   2.0000      -0.728519       -19.8240
   8   2.0000      -0.676836       -18.4176
   9   2.0000      -0.623832       -16.9753
  10   2.0000      -0.597658       -16.2631
  11   2.0000      -0.545240       -14.8367
  12   2.0000      -0.520421       -14.1614
  13   2.0000      -0.391621       -10.6565
  14   2.0000      -0.375499       -10.2178
  15   0.0000       0.180857         4.9214
  16   0.0000       0.244587         6.6556
  17   0.0000       0.485602        13.2139
  18   0.0000       0.535230        14.5644
  19   0.0000       0.559587        15.2271

MULLIKEN ATOMIC CHARGES
-----------------------
   0 C :    0.207074
   1 O :   -0.360354
   2 C :   -0.150231
   3 C :   -0.256121
   4 H :    0.135123
   5 H :    0.142693
   6 H :    0.149221
   7 H :    0.132596
Sum of atomic charges:   -0.0000000

LOEWDIN ATOMIC CHARGES
----------------------
   0 C :    0.162432
   1 O :   -0.243585
   2 C :   -0.117593
   3 C :   -0.166105
   4 H :    0.080034
   5 H :    0.098368
   6 H :    0.107412
   7 H :    0.079036

  Mayer bond orders larger than 0.100000
B(  0-C ,  1-O ) :   1.9660 B(  0-C ,  2-C ) :   0.9582 B(  0-C ,  4-H ) :   0.8926
B(  2-C ,  3-C ) :   1.9867 B(  2-C ,  5-H ) :   0.9546 B(  3-C ,  6-H ) :   0.9618
B(  3-C ,  7-H ) :   0.9698

-----------------------------------------------------------------------------
         ABSORPTION SPECTRUM VIA TRANSITION ELECTRIC DIPOLE MOMENTS
-----------------------------------------------------------------------------
State   Energy    Wavelength  fosc         T2        TX        TY        TZ
        (cm-1)      (nm)                 (au**2)    (au)      (au)      (au)
-----------------------------------------------------------------------------
   1   37770.8    264.8   0.000315684   0.00275   0.04955   0.00764   0.01542

Dispersion correction           -0.024600251
FINAL SINGLE POINT ENERGY      -189.274510064158

DIPOLE MOMENT
-------------
                                X             Y             Z
Electronic contribution:     -2.47560      -1.60975       0.99751
Nuclear contribution   :      2.66567       2.40046      -1.55146
                        -----------------------------------------
Total Dipole Moment    :      0.19008       0.79071      -0.55395
                        -----------------------------------------
Magnitude (a.u.)       :      0.98398
Magnitude (Debye)      :      2.50108

Rotational constants in cm-1:     0.787433     0.181745     0.159446
Rotational constants in MHz : 23606.652496  5448.569226  4780.064898

                             ****ORCA TERMINATED NORMALLY****
TOTAL RUN TIME: 0 days 0 hours 0 minutes 13 seconds 892 msec
