                         Program Version 5.0.3 -  RELEASE  -
|  1> ! B3LYP cc-pVDZ
|  2> !TightSCF
|  3> %scf
|  4>  ConvForced true
|  5>  convergence tight
|  6>  MaxIter 500
|  7> end
|  8>
|  9> %tddft
| 10>  nroots 1
| 11> end
| 12>
| 13> # 	29180
| 14> * xyz 0 1
| 15> 		C   -0.619382  -0.458192  -0.002579
| 16> 		O   -0.544646  -1.617003   0.004752
| 17> 		C    0.604389   0.457778   0.016288
| 18> 		C    1.846442  -0.177478  -0.047779
| 19> 		H   -1.529847   0.062289  -0.070337
| 20> 		H    0.713309   1.632436   0.061346
| 21> 		H    1.911895  -1.118714   0.189474
| 22> 		H    2.708677   0.451388   0.159681
| 23> *
| 24>
| 25>                          ****END OF INPUT****

CARTESIAN COORDINATES (ANGSTROEM)
---------------------------------
  C     -0.619382   -0.458192   -0.002579
  O     -0.544646   -1.617003    0.004752
  C      0.604389    0.457778    0.016288
  C      1.846442   -0.177478   -0.047779
  H     -1.529847    0.062289   -0.070337
  H      0.713309    1.632436    0.061346
  H      1.911895   -1.118714    0.189474
  H      2.708677    0.451388    0.159681

 Total Charge           Charge          ....    0
 Multiplicity           Mult            ....    1
 Number of Electrons    NEL             ....   30
 Basis Dimension        Dim             ....   76

ORBITAL ENERGIES
----------------

  NO   OCC          E(Eh)            E(eV)
   0   2.0000     -19.143409      -520.9186
   1   2.0000     -10.274815      -279.5919
   2   2.0000     -10.213933      -277.9352
   3   2.0000     -10.198139      -277.5055
   4   2.0000      -1.079835       -29.3838
   5   2.0000      -0.777871       -21.1669
   6   2.0000      -0.653532       -17.7835
   7   2.0000      -0.552784       -15.0420
   8   2.0000      -0.510295       -13.8858
   9   2.0000      -0.455112       -12.3842
  10   2.0000      -0.417493       -11.3606
  11   2.0000      -0.406201       -11.0533
  12   2.0000      -0.385735       -10.4964
  13   2.0000      -0.277424        -7.5491
  14   2.0000      -0.260664        -7.0930
  15   0.0000      -0.069376        -1.8878
  16   0.0000       0.052950         1.4408
  17   0.0000       0.063749         1.7347
  18   0.0000       0.105168         2.8618
  19   0.0000       0.119802         3.2600

MULLIKEN ATOMIC CHARGES
-----------------------
   0 C :    0.232727
   1 O :   -0.147464
   2 C :   -0.203639
   3 C :    0.110387
   4 H :   -0.034259
   5 H :    0.023443
   6 H :   -0.007412
   7 H :    0.026218
Sum of atomic charges:    0.0000000

LOEWDIN ATOMIC CHARGES
----------------------
   0 C :   -0.053550
   1 O :    0.052445
   2 C :   -0.078249
   3 C :    0.034955
   4 H :   -0.018490
   5 H :    0.043639
   6 H :   -0.011532
   7 H :    0.030782

  Mayer bond orders larger than 0.100000
B(  0-C ,  1-O ) :   2.2477 B(  0-C ,  2-C ) :   0.9837 B(  0-C ,  4-H ) :   0.9298
B(  2-C ,  3-C ) :   1.9563 B(  2-C ,  5-H ) :   0.9405 B(  3-C ,  6-H ) :   0.9524
B(  3-C ,  7-H ) :   0.9538

-----------------------------------------------------------------------------
         ABSORPTION SPECTRUM VIA TRANSITION ELECTRIC DIPOLE MOMENTS
-----------------------------------------------------------------------------
State   Energy    Wavelength  fosc         T2        TX        TY        TZ
        (cm-1)      (nm)                 (au**2)    (au)      (au)      (au)
-----------------------------------------------------------------------------
   1   29643.0    337.3   0.000080509   0.00089  -0.02590   0.01063   0.01050

FINAL SINGLE POINT ENERGY      -191.635426424217

DIPOLE MOMENT
-------------
                                X             Y             Z
Electronic contribution:     -2.18501      -1.96256      -0.22502
Nuclear contribution   :      2.41046       2.75245       0.31855
                        -----------------------------------------
Total Dipole Moment    :      0.22545       0.78989       0.09353
                        -----------------------------------------
Magnitude (a.u.)       :      0.82674
Magnitude (Debye)      :      2.10141

Rotational constants in cm-1:     0.738363     0.212796     0.165519
Rotational constants in MHz : 22135.557732  6379.476990  4962.122917

                             ****ORCA TERMINATED NORMALLY****
TOTAL RUN TIME: 0 days 0 hours 3 minutes 15 seconds 412 msec
