                         Program Version 5.0.3 -  RELEASE  -
|  1> ! B3LYP cc-pVDZ
|  2> !TightSCF
|  3> %scf
|  4>  ConvForced true
|  5>  convergence tight
|  6>  MaxIter 500
|  7> end
|  8>
|  9> %tddft
| 10>  nroots 1
| 11> end
| 12>
| 13> # 	3333
| 14> * xyz 0 1
| 15> 		C   -1.183777  -0.312948  -0.022123
| 16> 		O   -1.817246  -0.899156  -0.867456
| 17> 		C    0.068657   0.411170  -0.252626
| 18> 		C    1.172485   0.057928   0.190982
| 19> 		H   -1.522099  -0.309355   1.075036
| 20> 		H   -0.044510   1.132390  -0.853932
| 21> 		H    1.212625  -0.714861   0.845031
| 22> 		H    2.138177   0.645816  -0.048262
| 23> *
| 24>
| 25>                          ****END OF INPUT****

CARTESIAN COORDINATES (ANGSTROEM)
---------------------------------
  C     -1.183777   -0.312948   -0.022123
  O     -1.817246   -0.899156   -0.867456
  C      0.068657    0.411170   -0.252626
  C      1.172485    0.057928    0.190982
  H     -1.522099   -0.309355    1.075036
  H     -0.044510    1.132390   -0.853932
  H      1.212625   -0.714861    0.845031
  H      2.138177    0.645816   -0.048262

 Total Charge           Charge          ....    0
 Multiplicity           Mult            ....    1
 Number of Electrons    NEL             ....   30
 Basis Dimension        Dim             ....   76

ORBITAL ENERGIES
----------------

  NO   OCC          E(Eh)            E(eV)
   0   2.0000     -19.146389      -520.9997
   1   2.0000     -10.280771      -279.7540
   2   2.0000     -10.193887      -277.3898
   3   2.0000     -10.179580      -277.0005
   4   2.0000      -1.053538       -28.6682
   5   2.0000      -0.826399       -22.4875
   6   2.0000      -0.653799       -17.7908
   7   2.0000      -0.581474       -15.8227
   8   2.0000      -0.493247       -13.4219
   9   2.0000      -0.473090       -12.8734
  10   2.0000      -0.445545       -12.1239
  11   2.0000      -0.393118       -10.6973
  12   2.0000      -0.379890       -10.3373
  13   2.0000      -0.304336        -8.2814
  14   2.0000      -0.255849        -6.9620
  15   0.0000      -0.042330        -1.1519
  16   0.0000       0.022112         0.6017
  17   0.0000       0.079346         2.1591
  18   0.0000       0.098085         2.6690
  19   0.0000       0.119026         3.2389

MULLIKEN ATOMIC CHARGES
-----------------------
   0 C :    0.135336
   1 O :   -0.178928
   2 C :    0.025244
   3 C :    0.088672
   4 H :   -0.014541
   5 H :   -0.068743
   6 H :   -0.022946
   7 H :    0.035907
Sum of atomic charges:    0.0000000

LOEWDIN ATOMIC CHARGES
----------------------
   0 C :   -0.012988
   1 O :    0.012002
   2 C :   -0.045752
   3 C :   -0.004490
   4 H :   -0.006202
   5 H :   -0.002335
   6 H :    0.009757
   7 H :    0.050008

  Mayer bond orders larger than 0.100000
B(  0-C ,  1-O ) :   2.2253 B(  0-C ,  2-C ) :   0.9992 B(  0-C ,  4-H ) :   0.9047
B(  2-C ,  3-C ) :   2.0681 B(  2-C ,  5-H ) :   0.9362 B(  3-C ,  6-H ) :   0.9215
B(  3-C ,  7-H ) :   0.9300

-----------------------------------------------------------------------------
         ABSORPTION SPECTRUM VIA TRANSITION ELECTRIC DIPOLE MOMENTS
-----------------------------------------------------------------------------
State   Energy    Wavelength  fosc         T2        TX        TY        TZ
        (cm-1)      (nm)                 (au**2)    (au)      (au)      (au)
-----------------------------------------------------------------------------
   1   32357.2    309.1   0.000338723   0.00345   0.03319  -0.03098   0.03722

FINAL SINGLE POINT ENERGY      -191.612339056343

DIPOLE MOMENT
-------------
                                X             Y             Z
Electronic contribution:     -2.78391      -0.97712      -1.36760
Nuclear contribution   :      3.43363       1.48368       1.87341
                        -----------------------------------------
Total Dipole Moment    :      0.64972       0.50656       0.50581
                        -----------------------------------------
Magnitude (a.u.)       :      0.96673
Magnitude (Debye)      :      2.45724

Rotational constants in cm-1:     1.277378     0.163455     0.160918
Rotational constants in MHz : 38294.843669  4900.271951  4824.213030

                             ****ORCA TERMINATED NORMALLY****
TOTAL RUN TIME: 0 days 0 hours 3 minutes 23 seconds 603 msec
