                         Program Version 5.0.3 -  RELEASE  -
|  1> ! B3LYP cc-pVDZ
|  2> !TightSCF
|  3> %scf
|  4>  ConvForced true
|  5>  convergence tight
|  6>  MaxIter 500
|  7> end
|  8>
|  9> %tddft
| 10>  nroots 1
| 11> end
| 12>
| 13> # 	8489
| 14> * xyz 0 1
| 15> 		C   -1.195891  -0.292689  -0.005480
| 16> 		O   -1.594249  -1.024766  -0.811684
| 17> 		C    0.038286   0.496159  -0.230011
| 18> 		C    1.196482  -0.024535   0.107463
| 19> 		H   -1.708804  -0.165502   0.936899
| 20> 		H   -0.190794   1.495340  -0.675012
| 21> 		H    1.269485  -1.034703   0.647252
| 22> 		H    2.118563   0.563117   0.030797
| 23> *
| 24>
| 25>                          ****END OF INPUT****

CARTESIAN COORDINATES (ANGSTROEM)
---------------------------------
  C     -1.195891   -0.292689   -0.005480
  O     -1.594249   -1.024766   -0.811684
  C      0.038286    0.496159   -0.230011
  C      1.196482   -0.024535    0.107463
  H     -1.708804   -0.165502    0.936899
  H     -0.190794    1.495340   -0.675012
  H      1.269485   -1.034703    0.647252
  H      2.118563    0.563117    0.030797

 Total Charge           Charge          ....    0
 Multiplicity           Mult            ....    1
 Number of Electrons    NEL             ....   30
 Basis Dimension        Dim             ....   76

ORBITAL ENERGIES
----------------

  NO   OCC          E(Eh)            E(eV)
   0   2.0000     -19.139822      -520.8210
   1   2.0000     -10.269472      -279.4465
   2   2.0000     -10.205103      -277.6950
   3   2.0000     -10.201213      -277.5891
   4   2.0000      -1.079333       -29.3701
   5   2.0000      -0.794980       -21.6325
   6   2.0000      -0.644577       -17.5398
   7   2.0000      -0.558098       -15.1866
   8   2.0000      -0.496493       -13.5103
   9   2.0000      -0.463063       -12.6006
  10   2.0000      -0.446548       -12.1512
  11   2.0000      -0.391576       -10.6553
  12   2.0000      -0.381266       -10.3748
  13   2.0000      -0.288326        -7.8457
  14   2.0000      -0.249632        -6.7928
  15   0.0000      -0.017563        -0.4779
  16   0.0000      -0.002363        -0.0643
  17   0.0000       0.079143         2.1536
  18   0.0000       0.087457         2.3798
  19   0.0000       0.106661         2.9024

MULLIKEN ATOMIC CHARGES
-----------------------
   0 C :    0.162408
   1 O :   -0.143692
   2 C :   -0.086243
   3 C :    0.011679
   4 H :   -0.031875
   5 H :    0.022286
   6 H :    0.035857
   7 H :    0.029580
Sum of atomic charges:    0.0000000

LOEWDIN ATOMIC CHARGES
----------------------
   0 C :   -0.051735
   1 O :    0.057722
   2 C :   -0.060293
   3 C :   -0.041038
   4 H :   -0.016325
   5 H :    0.041096
   6 H :    0.040353
   7 H :    0.030220

  Mayer bond orders larger than 0.100000
B(  0-C ,  1-O ) :   2.2816 B(  0-C ,  2-C ) :   0.9834 B(  0-C ,  4-H ) :   0.9161
B(  2-C ,  3-C ) :   2.0379 B(  2-C ,  5-H ) :   0.9348 B(  3-C ,  6-H ) :   0.9392
B(  3-C ,  7-H ) :   0.9441

-----------------------------------------------------------------------------
         ABSORPTION SPECTRUM VIA TRANSITION ELECTRIC DIPOLE MOMENTS
-----------------------------------------------------------------------------
State   Energy    Wavelength  fosc         T2        TX        TY        TZ
        (cm-1)      (nm)                 (au**2)    (au)      (au)      (au)
-----------------------------------------------------------------------------
   1   35565.7    281.2   0.000115246   0.00107  -0.02880   0.00142  -0.01534

FINAL SINGLE POINT ENERGY      -191.624777765655

DIPOLE MOMENT
-------------
                                X             Y             Z
Electronic contribution:     -2.56965      -1.11465      -1.26055
Nuclear contribution   :      2.95467       1.68923       1.78216
                        -----------------------------------------
Total Dipole Moment    :      0.38502       0.57458       0.52161
                        -----------------------------------------
Magnitude (a.u.)       :      0.86629
Magnitude (Debye)      :      2.20193

Rotational constants in cm-1:     0.955130     0.180084     0.169441
Rotational constants in MHz : 28634.088767  5398.772516  5079.713784

                             ****ORCA TERMINATED NORMALLY****
TOTAL RUN TIME: 0 days 0 hours 3 minutes 20 seconds 472 msec
