                         Program Version 5.0.3 -  RELEASE  -
|  1> ! HF-3c
|  2> !TightSCF
|  3> %scf
|  4>  ConvForced true
|  5>  convergence tight
|  6>  MaxIter 500
|  7> end
|  8>
|  9> %tddft
| 10>  nroots 1
| 11> end
| 12>
| 13> # 	17727
| 14> * xyz 0 1
| 15> 		C   -1.232117  -0.352944   0.047966
| 16> 		O   -1.443853  -1.474316   0.623808
| 17> 		C    0.008812   0.442489   0.245933
| 18> 		C    1.176100   0.054272  -0.169168
| 19> 		H   -1.911586   0.105158  -0.722294
| 20> 		H   -0.140289   1.445628   0.562986
| 21> 		H    1.340544  -0.899647  -0.432413
| 22> 		H    2.123653   0.638557  -0.096213
| 23> *
| 24>
| 25>                          ****END OF INPUT****

CARTESIAN COORDINATES (ANGSTROEM)
---------------------------------
  C     -1.232117   -0.352944    0.047966
  O     -1.443853   -1.474316    0.623808
  C      0.008812    0.442489    0.245933
  C      1.176100    0.054272   -0.169168
  H     -1.911586    0.105158   -0.722294
  H     -0.140289    1.445628    0.562986
  H      1.340544   -0.899647   -0.432413
  H      2.123653    0.638557   -0.096213

 Total Charge           Charge          ....    0
 Multiplicity           Mult            ....    1
 Number of Electrons    NEL             ....   30
 Basis Dimension        Dim             ....   24

ORBITAL ENERGIES
----------------

  NO   OCC          E(Eh)            E(eV)
   0   2.0000     -20.361887      -554.0751
   1   2.0000     -11.289862      -307.2128
   2   2.0000     -11.200411      -304.7787
   3   2.0000     -11.189494      -304.4816
   4   2.0000      -1.358699       -36.9721
   5   2.0000      -1.096053       -29.8251
   6   2.0000      -0.899755       -24.4836
   7   2.0000      -0.767351       -20.8807
   8   2.0000      -0.688655       -18.7393
   9   2.0000      -0.632425       -17.2092
  10   2.0000      -0.600812       -16.3489
  11   2.0000      -0.543682       -14.7943
  12   2.0000      -0.483376       -13.1533
  13   2.0000      -0.418742       -11.3945
  14   2.0000      -0.412790       -11.2326
  15   0.0000       0.152956         4.1621
  16   0.0000       0.236445         6.4340
  17   0.0000       0.540199        14.6996
  18   0.0000       0.615359        16.7448
  19   0.0000       0.671164        18.2633

MULLIKEN ATOMIC CHARGES
-----------------------
   0 C :    0.157055
   1 O :   -0.328890
   2 C :   -0.170767
   3 C :   -0.246809
   4 H :    0.146438
   5 H :    0.149589
   6 H :    0.143593
   7 H :    0.149792
Sum of atomic charges:    0.0000000

LOEWDIN ATOMIC CHARGES
----------------------
   0 C :    0.152670
   1 O :   -0.253593
   2 C :   -0.117434
   3 C :   -0.148953
   4 H :    0.085860
   5 H :    0.095057
   6 H :    0.085819
   7 H :    0.100574

  Mayer bond orders larger than 0.100000
B(  0-C ,  1-O ) :   1.9385 B(  0-C ,  2-C ) :   1.0045 B(  0-C ,  4-H ) :   0.9218
B(  2-C ,  3-C ) :   1.9875 B(  2-C ,  5-H ) :   0.9498 B(  3-C ,  6-H ) :   0.9651
B(  3-C ,  7-H ) :   0.9603

-----------------------------------------------------------------------------
         ABSORPTION SPECTRUM VIA TRANSITION ELECTRIC DIPOLE MOMENTS
-----------------------------------------------------------------------------
State   Energy    Wavelength  fosc         T2        TX        TY        TZ
        (cm-1)      (nm)                 (au**2)    (au)      (au)      (au)
-----------------------------------------------------------------------------
   1   30760.1    325.1   0.000008808   0.00009  -0.00714   0.00582  -0.00307

Dispersion correction           -0.025318636
FINAL SINGLE POINT ENERGY      -189.332467610090

DIPOLE MOMENT
-------------
                                X             Y             Z
Electronic contribution:     -2.46756      -1.66130       0.86797
Nuclear contribution   :      2.79842       2.56980      -1.36093
                        -----------------------------------------
Total Dipole Moment    :      0.33086       0.90850      -0.49296
                        -----------------------------------------
Magnitude (a.u.)       :      1.08529
Magnitude (Debye)      :      2.75859

Rotational constants in cm-1:     0.874585     0.178681     0.157893
Rotational constants in MHz : 26219.398312  5356.728373  4733.517114

                             ****ORCA TERMINATED NORMALLY****
TOTAL RUN TIME: 0 days 0 hours 0 minutes 12 seconds 533 msec
