                         Program Version 5.0.3 -  RELEASE  -
|  1> ! B3LYP cc-pVDZ
|  2> !TightSCF
|  3> %scf
|  4>  ConvForced true
|  5>  convergence tight
|  6>  MaxIter 500
|  7> end
|  8>
|  9> %tddft
| 10>  nroots 1
| 11> end
| 12>
| 13> # 	31436
| 14> * xyz 0 1
| 15> 		C   -0.560022  -0.456296   0.044537
| 16> 		O   -0.568358  -1.607150  -0.026413
| 17> 		C    0.604761   0.443027  -0.024198
| 18> 		C    1.836345  -0.144537  -0.002787
| 19> 		H   -1.608649   0.106293   0.062844
| 20> 		H    0.339457   1.475879  -0.074203
| 21> 		H    1.905043  -1.291720   0.217552
| 22> 		H    2.900470   0.350952  -0.004158
| 23> *
| 24>
| 25>                          ****END OF INPUT****

CARTESIAN COORDINATES (ANGSTROEM)
---------------------------------
  C     -0.560022   -0.456296    0.044537
  O     -0.568358   -1.607150   -0.026413
  C      0.604761    0.443027   -0.024198
  C      1.836345   -0.144537   -0.002787
  H     -1.608649    0.106293    0.062844
  H      0.339457    1.475879   -0.074203
  H      1.905043   -1.291720    0.217552
  H      2.900470    0.350952   -0.004158

 Total Charge           Charge          ....    0
 Multiplicity           Mult            ....    1
 Number of Electrons    NEL             ....   30
 Basis Dimension        Dim             ....   76

ORBITAL ENERGIES
----------------

  NO   OCC          E(Eh)            E(eV)
   0   2.0000     -19.137987      -520.7711
   1   2.0000     -10.272788      -279.5368
   2   2.0000     -10.232776      -278.4480
   3   2.0000     -10.208259      -277.7808
   4   2.0000      -1.080021       -29.3889
   5   2.0000      -0.789941       -21.4954
   6   2.0000      -0.645810       -17.5734
   7   2.0000      -0.530034       -14.4230
   8   2.0000      -0.505225       -13.7479
   9   2.0000      -0.453583       -12.3426
  10   2.0000      -0.425285       -11.5726
  11   2.0000      -0.417133       -11.3508
  12   2.0000      -0.374012       -10.1774
  13   2.0000      -0.287867        -7.8333
  14   2.0000      -0.252117        -6.8605
  15   0.0000      -0.066817        -1.8182
  16   0.0000       0.063041         1.7154
  17   0.0000       0.064424         1.7531
  18   0.0000       0.078954         2.1484
  19   0.0000       0.123629         3.3641

MULLIKEN ATOMIC CHARGES
-----------------------
   0 C :    0.138529
   1 O :   -0.135151
   2 C :   -0.065444
   3 C :   -0.006546
   4 H :   -0.043844
   5 H :   -0.012240
   6 H :    0.066095
   7 H :    0.058600
Sum of atomic charges:   -0.0000000

LOEWDIN ATOMIC CHARGES
----------------------
   0 C :   -0.083317
   1 O :    0.052750
   2 C :   -0.081672
   3 C :    0.011842
   4 H :   -0.017049
   5 H :    0.023550
   6 H :    0.049364
   7 H :    0.044533

  Mayer bond orders larger than 0.100000
B(  0-C ,  1-O ) :   2.2605 B(  0-C ,  2-C ) :   1.0437 B(  0-C ,  4-H ) :   0.8929
B(  2-C ,  3-C ) :   1.9157 B(  2-C ,  5-H ) :   0.9567 B(  3-C ,  6-H ) :   0.9283
B(  3-C ,  7-H ) :   0.9506

-----------------------------------------------------------------------------
         ABSORPTION SPECTRUM VIA TRANSITION ELECTRIC DIPOLE MOMENTS
-----------------------------------------------------------------------------
State   Energy    Wavelength  fosc         T2        TX        TY        TZ
        (cm-1)      (nm)                 (au**2)    (au)      (au)      (au)
-----------------------------------------------------------------------------
   1   28637.0    349.2   0.000133150   0.00153  -0.00781  -0.00398  -0.03813

FINAL SINGLE POINT ENERGY      -191.658940844546

DIPOLE MOMENT
-------------
                                X             Y             Z
Electronic contribution:     -1.69084      -1.63777      -0.12041
Nuclear contribution   :      2.16251       2.38980       0.18970
                        -----------------------------------------
Total Dipole Moment    :      0.47167       0.75204       0.06929
                        -----------------------------------------
Magnitude (a.u.)       :      0.89041
Magnitude (Debye)      :      2.26325

Rotational constants in cm-1:     0.746392     0.214493     0.166940
Rotational constants in MHz : 22376.271864  6430.345883  5004.744289

                             ****ORCA TERMINATED NORMALLY****
TOTAL RUN TIME: 0 days 0 hours 3 minutes 18 seconds 866 msec
