                         Program Version 5.0.3 -  RELEASE  -
|  1> ! HF-3c
|  2> !TightSCF
|  3> %scf
|  4>  ConvForced true
|  5>  convergence tight
|  6>  MaxIter 500
|  7> end
|  8>
|  9> %tddft
| 10>  nroots 1
| 11> end
| 12>
| 13> # 	19749
| 14> * xyz 0 1
| 15> 		C   -1.253967  -0.369554   0.021598
| 16> 		O   -1.850687  -0.947506   0.912438
| 17> 		C    0.025075   0.421524   0.325587
| 18> 		C    1.197937   0.127140  -0.192251
| 19> 		H   -1.536606  -0.477183  -1.074919
| 20> 		H   -0.096870   1.328144   0.973744
| 21> 		H    1.307442  -0.764279  -0.886189
| 22> 		H    2.134383   0.646263  -0.083507
| 23> *
| 24>
| 25>                          ****END OF INPUT****

CARTESIAN COORDINATES (ANGSTROEM)
---------------------------------
  C     -1.253967   -0.369554    0.021598
  O     -1.850687   -0.947506    0.912438
  C      0.025075    0.421524    0.325587
  C      1.197937    0.127140   -0.192251
  H     -1.536606   -0.477183   -1.074919
  H     -0.096870    1.328144    0.973744
  H      1.307442   -0.764279   -0.886189
  H      2.134383    0.646263   -0.083507

 Total Charge           Charge          ....    0
 Multiplicity           Mult            ....    1
 Number of Electrons    NEL             ....   30
 Basis Dimension        Dim             ....   24

ORBITAL ENERGIES
----------------

  NO   OCC          E(Eh)            E(eV)
   0   2.0000     -20.376188      -554.4643
   1   2.0000     -11.300057      -307.4902
   2   2.0000     -11.190145      -304.4993
   3   2.0000     -11.179786      -304.2174
   4   2.0000      -1.402033       -38.1513
   5   2.0000      -1.071782       -29.1647
   6   2.0000      -0.868611       -23.6361
   7   2.0000      -0.763411       -20.7735
   8   2.0000      -0.664424       -18.0799
   9   2.0000      -0.646431       -17.5903
  10   2.0000      -0.597074       -16.2472
  11   2.0000      -0.533014       -14.5041
  12   2.0000      -0.504987       -13.7414
  13   2.0000      -0.410379       -11.1670
  14   2.0000      -0.404092       -10.9959
  15   0.0000       0.166051         4.5185
  16   0.0000       0.249630         6.7928
  17   0.0000       0.506611        13.7856
  18   0.0000       0.580042        15.7837
  19   0.0000       0.654920        17.8213

MULLIKEN ATOMIC CHARGES
-----------------------
   0 C :    0.173095
   1 O :   -0.342141
   2 C :   -0.160833
   3 C :   -0.243426
   4 H :    0.144308
   5 H :    0.152402
   6 H :    0.133423
   7 H :    0.143172
Sum of atomic charges:    0.0000000

LOEWDIN ATOMIC CHARGES
----------------------
   0 C :    0.153156
   1 O :   -0.247264
   2 C :   -0.117380
   3 C :   -0.153857
   4 H :    0.082870
   5 H :    0.101985
   6 H :    0.088468
   7 H :    0.092023

  Mayer bond orders larger than 0.100000
B(  0-C ,  1-O ) :   1.9493 B(  0-C ,  2-C ) :   0.9782 B(  0-C ,  4-H ) :   0.9171
B(  2-C ,  3-C ) :   2.0009 B(  2-C ,  5-H ) :   0.9488 B(  3-C ,  6-H ) :   0.9629
B(  3-C ,  7-H ) :   0.9633

-----------------------------------------------------------------------------
         ABSORPTION SPECTRUM VIA TRANSITION ELECTRIC DIPOLE MOMENTS
-----------------------------------------------------------------------------
State   Energy    Wavelength  fosc         T2        TX        TY        TZ
        (cm-1)      (nm)                 (au**2)    (au)      (au)      (au)
-----------------------------------------------------------------------------
   1   33759.5    296.2   0.000052846   0.00052   0.00031  -0.00210   0.02260

Dispersion correction           -0.024695582
FINAL SINGLE POINT ENERGY      -189.332894380766

DIPOLE MOMENT
-------------
                                X             Y             Z
Electronic contribution:     -2.97269      -1.03565       1.29882
Nuclear contribution   :      3.56140       1.49810      -2.02468
                        -----------------------------------------
Total Dipole Moment    :      0.58871       0.46245      -0.72586
                        -----------------------------------------
Magnitude (a.u.)       :      1.04274
Magnitude (Debye)      :      2.65043

Rotational constants in cm-1:     1.145409     0.154846     0.150234
Rotational constants in MHz : 34338.484218  4642.160108  4503.892760

                             ****ORCA TERMINATED NORMALLY****
TOTAL RUN TIME: 0 days 0 hours 0 minutes 11 seconds 925 msec
