                         Program Version 5.0.3 -  RELEASE  -
|  1> ! B3LYP cc-pVDZ
|  2> !TightSCF
|  3> %scf
|  4>  ConvForced true
|  5>  convergence tight
|  6>  MaxIter 500
|  7> end
|  8>
|  9> %tddft
| 10>  nroots 1
| 11> end
| 12>
| 13> # 	27596
| 14> * xyz 0 1
| 15> 		C   -0.509922  -0.414190   0.035780
| 16> 		O   -0.589509  -1.633298  -0.020557
| 17> 		C    0.637201   0.423282  -0.031453
| 18> 		C    1.784378  -0.147820   0.021753
| 19> 		H   -1.433408   0.055414   0.052647
| 20> 		H    0.474389   1.555035  -0.027647
| 21> 		H    1.877182  -1.198004   0.077176
| 22> 		H    2.647144   0.412198  -0.095348
| 23> *
| 24>
| 25>                          ****END OF INPUT****

CARTESIAN COORDINATES (ANGSTROEM)
---------------------------------
  C     -0.509922   -0.414190    0.035780
  O     -0.589509   -1.633298   -0.020557
  C      0.637201    0.423282   -0.031453
  C      1.784378   -0.147820    0.021753
  H     -1.433408    0.055414    0.052647
  H      0.474389    1.555035   -0.027647
  H      1.877182   -1.198004    0.077176
  H      2.647144    0.412198   -0.095348

 Total Charge           Charge          ....    0
 Multiplicity           Mult            ....    1
 Number of Electrons    NEL             ....   30
 Basis Dimension        Dim             ....   76

ORBITAL ENERGIES
----------------

  NO   OCC          E(Eh)            E(eV)
   0   2.0000     -19.129454      -520.5389
   1   2.0000     -10.257931      -279.1325
   2   2.0000     -10.201055      -277.5848
   3   2.0000     -10.199666      -277.5470
   4   2.0000      -1.034448       -28.1488
   5   2.0000      -0.817657       -22.2496
   6   2.0000      -0.670468       -18.2444
   7   2.0000      -0.546784       -14.8787
   8   2.0000      -0.522562       -14.2196
   9   2.0000      -0.451313       -12.2809
  10   2.0000      -0.420774       -11.4498
  11   2.0000      -0.397183       -10.8079
  12   2.0000      -0.383286       -10.4298
  13   2.0000      -0.295991        -8.0543
  14   2.0000      -0.249348        -6.7851
  15   0.0000      -0.068413        -1.8616
  16   0.0000       0.063278         1.7219
  17   0.0000       0.073507         2.0002
  18   0.0000       0.101505         2.7621
  19   0.0000       0.133460         3.6316

MULLIKEN ATOMIC CHARGES
-----------------------
   0 C :    0.227328
   1 O :   -0.213878
   2 C :   -0.165769
   3 C :    0.174388
   4 H :   -0.052405
   5 H :    0.007398
   6 H :    0.019319
   7 H :    0.003620
Sum of atomic charges:    0.0000000

LOEWDIN ATOMIC CHARGES
----------------------
   0 C :   -0.029605
   1 O :   -0.020677
   2 C :   -0.084047
   3 C :    0.055124
   4 H :   -0.016463
   5 H :    0.045783
   6 H :    0.029198
   7 H :    0.020687

  Mayer bond orders larger than 0.100000
B(  0-C ,  1-O ) :   2.1694 B(  0-C ,  2-C ) :   1.0968 B(  0-C ,  4-H ) :   0.9361
B(  2-C ,  3-C ) :   1.9729 B(  2-C ,  5-H ) :   0.9398 B(  3-C ,  6-H ) :   0.9255
B(  3-C ,  7-H ) :   0.9329

-----------------------------------------------------------------------------
         ABSORPTION SPECTRUM VIA TRANSITION ELECTRIC DIPOLE MOMENTS
-----------------------------------------------------------------------------
State   Energy    Wavelength  fosc         T2        TX        TY        TZ
        (cm-1)      (nm)                 (au**2)    (au)      (au)      (au)
-----------------------------------------------------------------------------
   1   26598.5    376.0   0.000135154   0.00167   0.01988   0.00761   0.03493

FINAL SINGLE POINT ENERGY      -191.668140128442

DIPOLE MOMENT
-------------
                                X             Y             Z
Electronic contribution:     -1.68997      -1.61024       0.02069
Nuclear contribution   :      2.18549       2.56163       0.00669
                        -----------------------------------------
Total Dipole Moment    :      0.49553       0.95139       0.02738
                        -----------------------------------------
Magnitude (a.u.)       :      1.07305
Magnitude (Debye)      :      2.72747

Rotational constants in cm-1:     0.799973     0.219576     0.172493
Rotational constants in MHz : 23982.578849  6582.724694  5171.205201

                             ****ORCA TERMINATED NORMALLY****
TOTAL RUN TIME: 0 days 0 hours 3 minutes 27 seconds 972 msec
