                         Program Version 5.0.3 -  RELEASE  -
|  1> ! HF-3c
|  2> !TightSCF
|  3> %scf
|  4>  ConvForced true
|  5>  convergence tight
|  6>  MaxIter 500
|  7> end
|  8>
|  9> %tddft
| 10>  nroots 1
| 11> end
| 12>
| 13> # 	27336
| 14> * xyz 0 1
| 15> 		C   -0.650939  -0.469324   0.002098
| 16> 		O   -0.560417  -1.666728  -0.017369
| 17> 		C    0.680617   0.496064  -0.044235
| 18> 		C    1.849145  -0.148312   0.012530
| 19> 		H   -1.575914   0.097519   0.333678
| 20> 		H    0.673488   1.640991   0.072242
| 21> 		H    1.842129  -1.210001   0.294562
| 22> 		H    2.587544   0.610852  -0.082821
| 23> *
| 24>
| 25>                          ****END OF INPUT****

CARTESIAN COORDINATES (ANGSTROEM)
---------------------------------
  C     -0.650939   -0.469324    0.002098
  O     -0.560417   -1.666728   -0.017369
  C      0.680617    0.496064   -0.044235
  C      1.849145   -0.148312    0.012530
  H     -1.575914    0.097519    0.333678
  H      0.673488    1.640991    0.072242
  H      1.842129   -1.210001    0.294562
  H      2.587544    0.610852   -0.082821

 Total Charge           Charge          ....    0
 Multiplicity           Mult            ....    1
 Number of Electrons    NEL             ....   30
 Basis Dimension        Dim             ....   24

ORBITAL ENERGIES
----------------

  NO   OCC          E(Eh)            E(eV)
   0   2.0000     -20.378079      -554.5157
   1   2.0000     -11.297400      -307.4179
   2   2.0000     -11.169358      -303.9337
   3   2.0000     -11.167562      -303.8848
   4   2.0000      -1.411496       -38.4088
   5   2.0000      -1.060040       -28.8452
   6   2.0000      -0.851656       -23.1747
   7   2.0000      -0.727851       -19.8058
   8   2.0000      -0.695526       -18.9262
   9   2.0000      -0.613141       -16.6844
  10   2.0000      -0.567610       -15.4455
  11   2.0000      -0.541272       -14.7288
  12   2.0000      -0.532336       -14.4856
  13   2.0000      -0.401673       -10.9301
  14   2.0000      -0.381353       -10.3771
  15   0.0000       0.150905         4.1063
  16   0.0000       0.281073         7.6484
  17   0.0000       0.460497        12.5308
  18   0.0000       0.579427        15.7670
  19   0.0000       0.601429        16.3657

MULLIKEN ATOMIC CHARGES
-----------------------
   0 C :    0.185250
   1 O :   -0.361384
   2 C :   -0.153562
   3 C :   -0.261914
   4 H :    0.135856
   5 H :    0.138662
   6 H :    0.169570
   7 H :    0.147524
Sum of atomic charges:   -0.0000000

LOEWDIN ATOMIC CHARGES
----------------------
   0 C :    0.157568
   1 O :   -0.258249
   2 C :   -0.119388
   3 C :   -0.161141
   4 H :    0.074717
   5 H :    0.093482
   6 H :    0.115977
   7 H :    0.097033

  Mayer bond orders larger than 0.100000
B(  0-C ,  1-O ) :   1.9488 B(  0-C ,  2-C ) :   0.9498 B(  0-C ,  4-H ) :   0.9176
B(  2-C ,  3-C ) :   1.9810 B(  2-C ,  5-H ) :   0.9605 B(  3-C ,  6-H ) :   0.9550
B(  3-C ,  7-H ) :   0.9633

-----------------------------------------------------------------------------
         ABSORPTION SPECTRUM VIA TRANSITION ELECTRIC DIPOLE MOMENTS
-----------------------------------------------------------------------------
State   Energy    Wavelength  fosc         T2        TX        TY        TZ
        (cm-1)      (nm)                 (au**2)    (au)      (au)      (au)
-----------------------------------------------------------------------------
   1   34293.0    291.6   0.000241094   0.00231  -0.04454  -0.01319   0.01252

Dispersion correction           -0.025248830
FINAL SINGLE POINT ENERGY      -189.304299988724

DIPOLE MOMENT
-------------
                                X             Y             Z
Electronic contribution:     -2.03641      -1.88333      -0.41772
Nuclear contribution   :      2.14802       2.85717       0.57995
                        -----------------------------------------
Total Dipole Moment    :      0.11161       0.97384       0.16223
                        -----------------------------------------
Magnitude (a.u.)       :      0.99355
Magnitude (Debye)      :      2.52541

Rotational constants in cm-1:     0.721933     0.201487     0.158239
Rotational constants in MHz : 21643.009653  6040.430140  4743.874436

                             ****ORCA TERMINATED NORMALLY****
TOTAL RUN TIME: 0 days 0 hours 0 minutes 11 seconds 79 msec
