                         Program Version 5.0.3 -  RELEASE  -
|  1> ! B3LYP cc-pVDZ
|  2> !TightSCF
|  3> %scf
|  4>  ConvForced true
|  5>  convergence tight
|  6>  MaxIter 500
|  7> end
|  8>
|  9> %tddft
| 10>  nroots 1
| 11> end
| 12>
| 13> # 	22679
| 14> * xyz 0 1
| 15> 		C   -0.585545  -0.434609   0.036467
| 16> 		O   -0.552771  -1.626094  -0.023557
| 17> 		C    0.619063   0.461010  -0.035867
| 18> 		C    1.834285  -0.157978   0.022231
| 19> 		H   -1.490061   0.039067   0.239399
| 20> 		H    0.525428   1.540120  -0.244153
| 21> 		H    1.830380  -1.380191  -0.060947
| 22> 		H    2.629499   0.415172   0.162650
| 23> *
| 24>
| 25>                          ****END OF INPUT****

CARTESIAN COORDINATES (ANGSTROEM)
---------------------------------
  C     -0.585545   -0.434609    0.036467
  O     -0.552771   -1.626094   -0.023557
  C      0.619063    0.461010   -0.035867
  C      1.834285   -0.157978    0.022231
  H     -1.490061    0.039067    0.239399
  H      0.525428    1.540120   -0.244153
  H      1.830380   -1.380191   -0.060947
  H      2.629499    0.415172    0.162650

 Total Charge           Charge          ....    0
 Multiplicity           Mult            ....    1
 Number of Electrons    NEL             ....   30
 Basis Dimension        Dim             ....   76

ORBITAL ENERGIES
----------------

  NO   OCC          E(Eh)            E(eV)
   0   2.0000     -19.135494      -520.7033
   1   2.0000     -10.266807      -279.3740
   2   2.0000     -10.212583      -277.8985
   3   2.0000     -10.204834      -277.6876
   4   2.0000      -1.054559       -28.6960
   5   2.0000      -0.786232       -21.3945
   6   2.0000      -0.655419       -17.8349
   7   2.0000      -0.548638       -14.9292
   8   2.0000      -0.508538       -13.8380
   9   2.0000      -0.440326       -11.9819
  10   2.0000      -0.424959       -11.5637
  11   2.0000      -0.401302       -10.9200
  12   2.0000      -0.379053       -10.3145
  13   2.0000      -0.278682        -7.5833
  14   2.0000      -0.254643        -6.9292
  15   0.0000      -0.065852        -1.7919
  16   0.0000       0.048319         1.3148
  17   0.0000       0.080867         2.2005
  18   0.0000       0.084641         2.3032
  19   0.0000       0.122993         3.3468

MULLIKEN ATOMIC CHARGES
-----------------------
   0 C :    0.225569
   1 O :   -0.186277
   2 C :   -0.158649
   3 C :    0.083713
   4 H :   -0.037791
   5 H :    0.003780
   6 H :    0.076710
   7 H :   -0.007055
Sum of atomic charges:    0.0000000

LOEWDIN ATOMIC CHARGES
----------------------
   0 C :   -0.034427
   1 O :    0.010608
   2 C :   -0.080323
   3 C :    0.031832
   4 H :   -0.017117
   5 H :    0.029607
   6 H :    0.064050
   7 H :   -0.004230

  Mayer bond orders larger than 0.100000
B(  0-C ,  1-O ) :   2.1972 B(  0-C ,  2-C ) :   1.0360 B(  0-C ,  4-H ) :   0.9320
B(  2-C ,  3-C ) :   1.9573 B(  2-C ,  5-H ) :   0.9490 B(  3-C ,  6-H ) :   0.9234
B(  3-C ,  7-H ) :   0.9391

-----------------------------------------------------------------------------
         ABSORPTION SPECTRUM VIA TRANSITION ELECTRIC DIPOLE MOMENTS
-----------------------------------------------------------------------------
State   Energy    Wavelength  fosc         T2        TX        TY        TZ
        (cm-1)      (nm)                 (au**2)    (au)      (au)      (au)
-----------------------------------------------------------------------------
   1   28801.7    347.2   0.000116355   0.00133   0.02559   0.00406  -0.02567

FINAL SINGLE POINT ENERGY      -191.649748470636

DIPOLE MOMENT
-------------
                                X             Y             Z
Electronic contribution:     -1.81192      -1.48833      -0.07395
Nuclear contribution   :      2.12095       2.36501       0.09094
                        -----------------------------------------
Total Dipole Moment    :      0.30903       0.87668       0.01699
                        -----------------------------------------
Magnitude (a.u.)       :      0.92970
Magnitude (Debye)      :      2.36312

Rotational constants in cm-1:     0.730035     0.216431     0.167584
Rotational constants in MHz : 21885.900514  6488.434304  5024.055682

                             ****ORCA TERMINATED NORMALLY****
TOTAL RUN TIME: 0 days 0 hours 3 minutes 27 seconds 971 msec
