                         Program Version 5.0.3 -  RELEASE  -
|  1> ! B3LYP cc-pVDZ
|  2> !TightSCF
|  3> %scf
|  4>  ConvForced true
|  5>  convergence tight
|  6>  MaxIter 500
|  7> end
|  8>
|  9> %tddft
| 10>  nroots 1
| 11> end
| 12>
| 13> # 	30552
| 14> * xyz 0 1
| 15> 		C   -0.566465  -0.431219  -0.022623
| 16> 		O   -0.568216  -1.611495   0.011751
| 17> 		C    0.627712   0.381179  -0.043330
| 18> 		C    1.827538  -0.124416   0.003014
| 19> 		H   -1.587526   0.214266   0.157062
| 20> 		H    0.491786   1.517348   0.287357
| 21> 		H    1.886214  -1.220130   0.076925
| 22> 		H    2.674305   0.409899   0.054141
| 23> *
| 24>
| 25>                          ****END OF INPUT****

CARTESIAN COORDINATES (ANGSTROEM)
---------------------------------
  C     -0.566465   -0.431219   -0.022623
  O     -0.568216   -1.611495    0.011751
  C      0.627712    0.381179   -0.043330
  C      1.827538   -0.124416    0.003014
  H     -1.587526    0.214266    0.157062
  H      0.491786    1.517348    0.287357
  H      1.886214   -1.220130    0.076925
  H      2.674305    0.409899    0.054141

 Total Charge           Charge          ....    0
 Multiplicity           Mult            ....    1
 Number of Electrons    NEL             ....   30
 Basis Dimension        Dim             ....   76

ORBITAL ENERGIES
----------------

  NO   OCC          E(Eh)            E(eV)
   0   2.0000     -19.143306      -520.9158
   1   2.0000     -10.279608      -279.7224
   2   2.0000     -10.205697      -277.7111
   3   2.0000     -10.202816      -277.6327
   4   2.0000      -1.068169       -29.0664
   5   2.0000      -0.806339       -21.9416
   6   2.0000      -0.661010       -17.9870
   7   2.0000      -0.530741       -14.4422
   8   2.0000      -0.509737       -13.8706
   9   2.0000      -0.455335       -12.3903
  10   2.0000      -0.432575       -11.7710
  11   2.0000      -0.414434       -11.2773
  12   2.0000      -0.370663       -10.0863
  13   2.0000      -0.293563        -7.9883
  14   2.0000      -0.258074        -7.0226
  15   0.0000      -0.069074        -1.8796
  16   0.0000       0.052746         1.4353
  17   0.0000       0.066987         1.8228
  18   0.0000       0.094540         2.5726
  19   0.0000       0.120884         3.2894

MULLIKEN ATOMIC CHARGES
-----------------------
   0 C :    0.148815
   1 O :   -0.156774
   2 C :   -0.167442
   3 C :    0.152074
   4 H :   -0.025169
   5 H :    0.016063
   6 H :    0.034233
   7 H :   -0.001800
Sum of atomic charges:   -0.0000000

LOEWDIN ATOMIC CHARGES
----------------------
   0 C :   -0.067065
   1 O :    0.030818
   2 C :   -0.094801
   3 C :    0.045034
   4 H :   -0.006972
   5 H :    0.045534
   6 H :    0.038750
   7 H :    0.008701

  Mayer bond orders larger than 0.100000
B(  0-C ,  1-O ) :   2.2254 B(  0-C ,  2-C ) :   1.0516 B(  0-C ,  4-H ) :   0.8898
B(  2-C ,  3-C ) :   1.9810 B(  2-C ,  5-H ) :   0.9329 B(  3-C ,  6-H ) :   0.9294
B(  3-C ,  7-H ) :   0.9350

-----------------------------------------------------------------------------
         ABSORPTION SPECTRUM VIA TRANSITION ELECTRIC DIPOLE MOMENTS
-----------------------------------------------------------------------------
State   Energy    Wavelength  fosc         T2        TX        TY        TZ
        (cm-1)      (nm)                 (au**2)    (au)      (au)      (au)
-----------------------------------------------------------------------------
   1   28970.0    345.2   0.000553305   0.00629  -0.04628  -0.03787  -0.05208

FINAL SINGLE POINT ENERGY      -191.651954291663

DIPOLE MOMENT
-------------
                                X             Y             Z
Electronic contribution:     -1.60127      -1.88938      -0.45007
Nuclear contribution   :      2.09387       2.65155       0.53926
                        -----------------------------------------
Total Dipole Moment    :      0.49260       0.76217       0.08919
                        -----------------------------------------
Magnitude (a.u.)       :      0.91187
Magnitude (Debye)      :      2.31779

Rotational constants in cm-1:     0.784279     0.216578     0.170219
Rotational constants in MHz : 23512.106637  6492.835141  5103.040614

                             ****ORCA TERMINATED NORMALLY****
TOTAL RUN TIME: 0 days 0 hours 3 minutes 21 seconds 931 msec
