                         Program Version 5.0.3 -  RELEASE  -
|  1> ! HF-3c
|  2> !TightSCF
|  3> %scf
|  4>  ConvForced true
|  5>  convergence tight
|  6>  MaxIter 500
|  7> end
|  8>
|  9> %tddft
| 10>  nroots 1
| 11> end
| 12>
| 13> # 	13006
| 14> * xyz 0 1
| 15> 		C   -1.199873  -0.291656   0.022349
| 16> 		O   -1.482823  -1.201042  -0.791361
| 17> 		C    0.019146   0.550121  -0.153897
| 18> 		C    1.209163  -0.039651   0.127859
| 19> 		H   -1.866444  -0.221193   0.859377
| 20> 		H   -0.027497   1.532051  -0.687233
| 21> 		H    1.333664  -0.948303   0.565633
| 22> 		H    2.036408   0.649491   0.078804
| 23> *
| 24>
| 25>                          ****END OF INPUT****

CARTESIAN COORDINATES (ANGSTROEM)
---------------------------------
  C     -1.199873   -0.291656    0.022349
  O     -1.482823   -1.201042   -0.791361
  C      0.019146    0.550121   -0.153897
  C      1.209163   -0.039651    0.127859
  H     -1.866444   -0.221193    0.859377
  H     -0.027497    1.532051   -0.687233
  H      1.333664   -0.948303    0.565633
  H      2.036408    0.649491    0.078804

 Total Charge           Charge          ....    0
 Multiplicity           Mult            ....    1
 Number of Electrons    NEL             ....   30
 Basis Dimension        Dim             ....   24

ORBITAL ENERGIES
----------------

  NO   OCC          E(Eh)            E(eV)
   0   2.0000     -20.359176      -554.0013
   1   2.0000     -11.287151      -307.1390
   2   2.0000     -11.196297      -304.6667
   3   2.0000     -11.182496      -304.2912
   4   2.0000      -1.375826       -37.4381
   5   2.0000      -1.076217       -29.2854
   6   2.0000      -0.885773       -24.1031
   7   2.0000      -0.773816       -21.0566
   8   2.0000      -0.693177       -18.8623
   9   2.0000      -0.617105       -16.7923
  10   2.0000      -0.600415       -16.3381
  11   2.0000      -0.555415       -15.1136
  12   2.0000      -0.481058       -13.0902
  13   2.0000      -0.420371       -11.4389
  14   2.0000      -0.395607       -10.7650
  15   0.0000       0.175620         4.7789
  16   0.0000       0.198032         5.3887
  17   0.0000       0.564068        15.3491
  18   0.0000       0.609531        16.5862
  19   0.0000       0.707312        19.2469

MULLIKEN ATOMIC CHARGES
-----------------------
   0 C :    0.141166
   1 O :   -0.333156
   2 C :   -0.150162
   3 C :   -0.250566
   4 H :    0.146129
   5 H :    0.158188
   6 H :    0.144465
   7 H :    0.143936
Sum of atomic charges:   -0.0000000

LOEWDIN ATOMIC CHARGES
----------------------
   0 C :    0.138023
   1 O :   -0.251535
   2 C :   -0.103936
   3 C :   -0.152004
   4 H :    0.080302
   5 H :    0.106808
   6 H :    0.088534
   7 H :    0.093809

  Mayer bond orders larger than 0.100000
B(  0-C ,  1-O ) :   1.9370 B(  0-C ,  2-C ) :   0.9997 B(  0-C ,  4-H ) :   0.9311
B(  2-C ,  3-C ) :   1.9849 B(  2-C ,  5-H ) :   0.9496 B(  3-C ,  6-H ) :   0.9687
B(  3-C ,  7-H ) :   0.9647

-----------------------------------------------------------------------------
         ABSORPTION SPECTRUM VIA TRANSITION ELECTRIC DIPOLE MOMENTS
-----------------------------------------------------------------------------
State   Energy    Wavelength  fosc         T2        TX        TY        TZ
        (cm-1)      (nm)                 (au**2)    (au)      (au)      (au)
-----------------------------------------------------------------------------
   1   31503.0    317.4   0.000018005   0.00019   0.01193   0.00175   0.00653

Dispersion correction           -0.025232477
FINAL SINGLE POINT ENERGY      -189.325868761789

DIPOLE MOMENT
-------------
                                X             Y             Z
Electronic contribution:     -2.46030      -1.23333      -0.95998
Nuclear contribution   :      2.83423       1.97783       1.55287
                        -----------------------------------------
Total Dipole Moment    :      0.37393       0.74450       0.59290
                        -----------------------------------------
Magnitude (a.u.)       :      1.02256
Magnitude (Debye)      :      2.59914

Rotational constants in cm-1:     0.831188     0.181758     0.164716
Rotational constants in MHz : 24918.393551  5448.962792  4938.061291

                             ****ORCA TERMINATED NORMALLY****
TOTAL RUN TIME: 0 days 0 hours 0 minutes 10 seconds 320 msec
