                         Program Version 5.0.3 -  RELEASE  -
|  1> ! HF-3c
|  2> !TightSCF
|  3> %scf
|  4>  ConvForced true
|  5>  convergence tight
|  6>  MaxIter 500
|  7> end
|  8>
|  9> %tddft
| 10>  nroots 1
| 11> end
| 12>
| 13> # 	26002
| 14> * xyz 0 1
| 15> 		C   -0.551966  -0.437972  -0.004916
| 16> 		O   -0.571406  -1.629413  -0.007118
| 17> 		C    0.615435   0.444323   0.030260
| 18> 		C    1.823924  -0.153748  -0.014189
| 19> 		H   -1.550045   0.090104   0.053880
| 20> 		H    0.444786   1.479391  -0.168779
| 21> 		H    1.732091  -1.144099   0.105957
| 22> 		H    2.896615   0.420446  -0.021750
| 23> *
| 24>
| 25>                          ****END OF INPUT****

CARTESIAN COORDINATES (ANGSTROEM)
---------------------------------
  C     -0.551966   -0.437972   -0.004916
  O     -0.571406   -1.629413   -0.007118
  C      0.615435    0.444323    0.030260
  C      1.823924   -0.153748   -0.014189
  H     -1.550045    0.090104    0.053880
  H      0.444786    1.479391   -0.168779
  H      1.732091   -1.144099    0.105957
  H      2.896615    0.420446   -0.021750

 Total Charge           Charge          ....    0
 Multiplicity           Mult            ....    1
 Number of Electrons    NEL             ....   30
 Basis Dimension        Dim             ....   24

ORBITAL ENERGIES
----------------

  NO   OCC          E(Eh)            E(eV)
   0   2.0000     -20.362718      -554.0977
   1   2.0000     -11.295333      -307.3616
   2   2.0000     -11.195454      -304.6438
   3   2.0000     -11.185204      -304.3649
   4   2.0000      -1.413323       -38.4585
   5   2.0000      -1.085280       -29.5320
   6   2.0000      -0.887727       -24.1563
   7   2.0000      -0.744165       -20.2498
   8   2.0000      -0.706798       -19.2329
   9   2.0000      -0.615271       -16.7424
  10   2.0000      -0.582805       -15.8589
  11   2.0000      -0.550783       -14.9876
  12   2.0000      -0.537665       -14.6306
  13   2.0000      -0.406809       -11.0698
  14   2.0000      -0.392808       -10.6889
  15   0.0000       0.130885         3.5616
  16   0.0000       0.309637         8.4257
  17   0.0000       0.496656        13.5147
  18   0.0000       0.625034        17.0080
  19   0.0000       0.654108        17.7992

MULLIKEN ATOMIC CHARGES
-----------------------
   0 C :    0.173187
   1 O :   -0.366129
   2 C :   -0.188483
   3 C :   -0.208389
   4 H :    0.128081
   5 H :    0.143134
   6 H :    0.157309
   7 H :    0.161290
Sum of atomic charges:    0.0000000

LOEWDIN ATOMIC CHARGES
----------------------
   0 C :    0.148606
   1 O :   -0.266643
   2 C :   -0.145628
   3 C :   -0.106277
   4 H :    0.066474
   5 H :    0.089751
   6 H :    0.095489
   7 H :    0.118228

  Mayer bond orders larger than 0.100000
B(  0-C ,  1-O ) :   1.9010 B(  0-C ,  2-C ) :   1.0289 B(  0-C ,  4-H ) :   0.9219
B(  2-C ,  3-C ) :   1.9309 B(  2-C ,  5-H ) :   0.9615 B(  3-C ,  6-H ) :   0.9595
B(  3-C ,  7-H ) :   0.9587

-----------------------------------------------------------------------------
         ABSORPTION SPECTRUM VIA TRANSITION ELECTRIC DIPOLE MOMENTS
-----------------------------------------------------------------------------
State   Energy    Wavelength  fosc         T2        TX        TY        TZ
        (cm-1)      (nm)                 (au**2)    (au)      (au)      (au)
-----------------------------------------------------------------------------
   1   33653.6    297.1   0.000209619   0.00205  -0.04101  -0.00264   0.01903

Dispersion correction           -0.026227481
FINAL SINGLE POINT ENERGY      -189.314629369289

DIPOLE MOMENT
-------------
                                X             Y             Z
Electronic contribution:     -1.71409      -1.63218       0.00633
Nuclear contribution   :      2.14944       2.58296      -0.02817
                        -----------------------------------------
Total Dipole Moment    :      0.43536       0.95078      -0.02184
                        -----------------------------------------
Magnitude (a.u.)       :      1.04594
Magnitude (Debye)      :      2.65856

Rotational constants in cm-1:     0.769769     0.214301     0.167826
Rotational constants in MHz : 23077.094628  6424.574516  5031.290913

                             ****ORCA TERMINATED NORMALLY****
TOTAL RUN TIME: 0 days 0 hours 0 minutes 13 seconds 181 msec
