                         Program Version 5.0.3 -  RELEASE  -
|  1> ! HF-3c
|  2> !TightSCF
|  3> %scf
|  4>  ConvForced true
|  5>  convergence tight
|  6>  MaxIter 500
|  7> end
|  8>
|  9> %tddft
| 10>  nroots 1
| 11> end
| 12>
| 13> # 	25719
| 14> * xyz 0 1
| 15> 		C   -0.597791  -0.460282  -0.030203
| 16> 		O   -0.607196  -1.607376   0.013502
| 17> 		C    0.640029   0.363609   0.027517
| 18> 		C    1.865141  -0.078976   0.009300
| 19> 		H   -1.476578   0.042562  -0.047834
| 20> 		H    0.639626   1.430427  -0.008104
| 21> 		H    2.037665  -1.196493  -0.132517
| 22> 		H    2.683673   0.562790  -0.107838
| 23> *
| 24>
| 25>                          ****END OF INPUT****

CARTESIAN COORDINATES (ANGSTROEM)
---------------------------------
  C     -0.597791   -0.460282   -0.030203
  O     -0.607196   -1.607376    0.013502
  C      0.640029    0.363609    0.027517
  C      1.865141   -0.078976    0.009300
  H     -1.476578    0.042562   -0.047834
  H      0.639626    1.430427   -0.008104
  H      2.037665   -1.196493   -0.132517
  H      2.683673    0.562790   -0.107838

 Total Charge           Charge          ....    0
 Multiplicity           Mult            ....    1
 Number of Electrons    NEL             ....   30
 Basis Dimension        Dim             ....   24

ORBITAL ENERGIES
----------------

  NO   OCC          E(Eh)            E(eV)
   0   2.0000     -20.395063      -554.9779
   1   2.0000     -11.324290      -308.1496
   2   2.0000     -11.188221      -304.4470
   3   2.0000     -11.183876      -304.3287
   4   2.0000      -1.461085       -39.7582
   5   2.0000      -1.088965       -29.6322
   6   2.0000      -0.902168       -24.5492
   7   2.0000      -0.772500       -21.0208
   8   2.0000      -0.723423       -19.6853
   9   2.0000      -0.628518       -17.1029
  10   2.0000      -0.619883       -16.8679
  11   2.0000      -0.578197       -15.7335
  12   2.0000      -0.522240       -14.2109
  13   2.0000      -0.424100       -11.5404
  14   2.0000      -0.408180       -11.1071
  15   0.0000       0.142268         3.8713
  16   0.0000       0.322143         8.7660
  17   0.0000       0.562446        15.3049
  18   0.0000       0.632612        17.2142
  19   0.0000       0.651408        17.7257

MULLIKEN ATOMIC CHARGES
-----------------------
   0 C :    0.172674
   1 O :   -0.351110
   2 C :   -0.183992
   3 C :   -0.219129
   4 H :    0.139721
   5 H :    0.143550
   6 H :    0.154462
   7 H :    0.143823
Sum of atomic charges:   -0.0000000

LOEWDIN ATOMIC CHARGES
----------------------
   0 C :    0.147946
   1 O :   -0.234648
   2 C :   -0.141889
   3 C :   -0.121778
   4 H :    0.064865
   5 H :    0.090521
   6 H :    0.104794
   7 H :    0.090190

  Mayer bond orders larger than 0.100000
B(  0-C ,  1-O ) :   1.9215 B(  0-C ,  2-C ) :   1.0017 B(  0-C ,  4-H ) :   0.9273
B(  2-C ,  3-C ) :   1.9621 B(  2-C ,  5-H ) :   0.9587 B(  3-C ,  6-H ) :   0.9572
B(  3-C ,  7-H ) :   0.9655

-----------------------------------------------------------------------------
         ABSORPTION SPECTRUM VIA TRANSITION ELECTRIC DIPOLE MOMENTS
-----------------------------------------------------------------------------
State   Energy    Wavelength  fosc         T2        TX        TY        TZ
        (cm-1)      (nm)                 (au**2)    (au)      (au)      (au)
-----------------------------------------------------------------------------
   1   35964.8    278.0   0.000040504   0.00037   0.01871   0.00447  -0.00086

Dispersion correction           -0.025942528
FINAL SINGLE POINT ENERGY      -189.306610463892

DIPOLE MOMENT
-------------
                                X             Y             Z
Electronic contribution:     -2.18281      -1.74439       0.17807
Nuclear contribution   :      2.48544       2.57669      -0.27756
                        -----------------------------------------
Total Dipole Moment    :      0.30263       0.83230      -0.09949
                        -----------------------------------------
Magnitude (a.u.)       :      0.89118
Magnitude (Debye)      :      2.26520

Rotational constants in cm-1:     0.868495     0.203558     0.165087
Rotational constants in MHz : 26036.823999  6102.510695  4949.188858

                             ****ORCA TERMINATED NORMALLY****
TOTAL RUN TIME: 0 days 0 hours 0 minutes 12 seconds 395 msec
