                         Program Version 5.0.3 -  RELEASE  -
|  1> ! HF-3c
|  2> !TightSCF
|  3> %scf
|  4>  ConvForced true
|  5>  convergence tight
|  6>  MaxIter 500
|  7> end
|  8>
|  9> %tddft
| 10>  nroots 1
| 11> end
| 12>
| 13> # 	6253
| 14> * xyz 0 1
| 15> 		C   -1.204505  -0.367708  -0.025391
| 16> 		O   -1.922644  -0.810499  -0.860715
| 17> 		C   -0.001049   0.442700  -0.278107
| 18> 		C    1.215315   0.035978   0.185312
| 19> 		H   -1.351771  -0.470142   1.065576
| 20> 		H   -0.086401   1.177938  -0.983274
| 21> 		H    1.290672  -0.587443   0.898954
| 22> 		H    2.048384   0.617214   0.021001
| 23> *
| 24>
| 25>                          ****END OF INPUT****

CARTESIAN COORDINATES (ANGSTROEM)
---------------------------------
  C     -1.204505   -0.367708   -0.025391
  O     -1.922644   -0.810499   -0.860715
  C     -0.001049    0.442700   -0.278107
  C      1.215315    0.035978    0.185312
  H     -1.351771   -0.470142    1.065576
  H     -0.086401    1.177938   -0.983274
  H      1.290672   -0.587443    0.898954
  H      2.048384    0.617214    0.021001

 Total Charge           Charge          ....    0
 Multiplicity           Mult            ....    1
 Number of Electrons    NEL             ....   30
 Basis Dimension        Dim             ....   24

ORBITAL ENERGIES
----------------

  NO   OCC          E(Eh)            E(eV)
   0   2.0000     -20.390743      -554.8603
   1   2.0000     -11.312985      -307.8420
   2   2.0000     -11.201987      -304.8216
   3   2.0000     -11.195442      -304.6435
   4   2.0000      -1.429814       -38.9072
   5   2.0000      -1.095868       -29.8201
   6   2.0000      -0.909742       -24.7553
   7   2.0000      -0.800014       -21.7695
   8   2.0000      -0.690997       -18.8030
   9   2.0000      -0.662160       -18.0183
  10   2.0000      -0.616441       -16.7742
  11   2.0000      -0.585574       -15.9343
  12   2.0000      -0.532463       -14.4891
  13   2.0000      -0.419702       -11.4207
  14   2.0000      -0.402726       -10.9587
  15   0.0000       0.139530         3.7968
  16   0.0000       0.247267         6.7285
  17   0.0000       0.597749        16.2656
  18   0.0000       0.661548        18.0016
  19   0.0000       0.721483        19.6326

MULLIKEN ATOMIC CHARGES
-----------------------
   0 C :    0.181422
   1 O :   -0.344692
   2 C :   -0.153533
   3 C :   -0.265633
   4 H :    0.137984
   5 H :    0.155295
   6 H :    0.139072
   7 H :    0.150085
Sum of atomic charges:   -0.0000000

LOEWDIN ATOMIC CHARGES
----------------------
   0 C :    0.157011
   1 O :   -0.240969
   2 C :   -0.101225
   3 C :   -0.156878
   4 H :    0.072571
   5 H :    0.095187
   6 H :    0.079717
   7 H :    0.094585

  Mayer bond orders larger than 0.100000
B(  0-C ,  1-O ) :   1.9395 B(  0-C ,  2-C ) :   0.9999 B(  0-C ,  4-H ) :   0.9156
B(  2-C ,  3-C ) :   1.9685 B(  2-C ,  5-H ) :   0.9568 B(  3-C ,  6-H ) :   0.9714
B(  3-C ,  7-H ) :   0.9659

-----------------------------------------------------------------------------
         ABSORPTION SPECTRUM VIA TRANSITION ELECTRIC DIPOLE MOMENTS
-----------------------------------------------------------------------------
State   Energy    Wavelength  fosc         T2        TX        TY        TZ
        (cm-1)      (nm)                 (au**2)    (au)      (au)      (au)
-----------------------------------------------------------------------------
   1   35086.1    285.0   0.000041965   0.00039   0.01921   0.00102   0.00485

Dispersion correction           -0.025794988
FINAL SINGLE POINT ENERGY      -189.296525554222

DIPOLE MOMENT
-------------
                                X             Y             Z
Electronic contribution:     -3.02392      -0.98640      -1.24208
Nuclear contribution   :      3.68538       1.41184       1.88045
                        -----------------------------------------
Total Dipole Moment    :      0.66147       0.42544       0.63837
                        -----------------------------------------
Magnitude (a.u.)       :      1.01294
Magnitude (Debye)      :      2.57470

Rotational constants in cm-1:     1.289533     0.159003     0.153002
Rotational constants in MHz : 38659.220736  4766.801603  4586.890722

                             ****ORCA TERMINATED NORMALLY****
TOTAL RUN TIME: 0 days 0 hours 0 minutes 16 seconds 86 msec
