                         Program Version 5.0.3 -  RELEASE  -
|  1> ! HF-3c
|  2> !TightSCF
|  3> %scf
|  4>  ConvForced true
|  5>  convergence tight
|  6>  MaxIter 500
|  7> end
|  8>
|  9> %tddft
| 10>  nroots 1
| 11> end
| 12>
| 13> # 	15902
| 14> * xyz 0 1
| 15> 		C   -1.192334  -0.359540   0.017373
| 16> 		O   -1.326288  -1.517352   0.370960
| 17> 		C    0.051342   0.468913   0.194797
| 18> 		C    1.256336   0.043597  -0.056069
| 19> 		H   -2.031822   0.154913  -0.576698
| 20> 		H   -0.129907   1.680558   0.345309
| 21> 		H    1.302203  -1.156411  -0.253342
| 22> 		H    2.034634   0.697372   0.032727
| 23> *
| 24>
| 25>                          ****END OF INPUT****

CARTESIAN COORDINATES (ANGSTROEM)
---------------------------------
  C     -1.192334   -0.359540    0.017373
  O     -1.326288   -1.517352    0.370960
  C      0.051342    0.468913    0.194797
  C      1.256336    0.043597   -0.056069
  H     -2.031822    0.154913   -0.576698
  H     -0.129907    1.680558    0.345309
  H      1.302203   -1.156411   -0.253342
  H      2.034634    0.697372    0.032727

 Total Charge           Charge          ....    0
 Multiplicity           Mult            ....    1
 Number of Electrons    NEL             ....   30
 Basis Dimension        Dim             ....   24

ORBITAL ENERGIES
----------------

  NO   OCC          E(Eh)            E(eV)
   0   2.0000     -20.366708      -554.2063
   1   2.0000     -11.294697      -307.3443
   2   2.0000     -11.184451      -304.3444
   3   2.0000     -11.181192      -304.2557
   4   2.0000      -1.396437       -37.9990
   5   2.0000      -1.077328       -29.3156
   6   2.0000      -0.879153       -23.9230
   7   2.0000      -0.727654       -19.8005
   8   2.0000      -0.676807       -18.4169
   9   2.0000      -0.618193       -16.8219
  10   2.0000      -0.597037       -16.2462
  11   2.0000      -0.526570       -14.3287
  12   2.0000      -0.492110       -13.3910
  13   2.0000      -0.409600       -11.1458
  14   2.0000      -0.401101       -10.9145
  15   0.0000       0.153520         4.1775
  16   0.0000       0.284151         7.7322
  17   0.0000       0.483684        13.1617
  18   0.0000       0.532890        14.5007
  19   0.0000       0.579158        15.7597

MULLIKEN ATOMIC CHARGES
-----------------------
   0 C :    0.168539
   1 O :   -0.352741
   2 C :   -0.152951
   3 C :   -0.245976
   4 H :    0.135904
   5 H :    0.139219
   6 H :    0.163026
   7 H :    0.144979
Sum of atomic charges:    0.0000000

LOEWDIN ATOMIC CHARGES
----------------------
   0 C :    0.148577
   1 O :   -0.259105
   2 C :   -0.120573
   3 C :   -0.154310
   4 H :    0.076748
   5 H :    0.098900
   6 H :    0.119965
   7 H :    0.089798

  Mayer bond orders larger than 0.100000
B(  0-C ,  1-O ) :   1.9273 B(  0-C ,  2-C ) :   1.0024 B(  0-C ,  4-H ) :   0.9179
B(  2-C ,  3-C ) :   1.9778 B(  2-C ,  5-H ) :   0.9465 B(  3-C ,  6-H ) :   0.9496
B(  3-C ,  7-H ) :   0.9639

-----------------------------------------------------------------------------
         ABSORPTION SPECTRUM VIA TRANSITION ELECTRIC DIPOLE MOMENTS
-----------------------------------------------------------------------------
State   Energy    Wavelength  fosc         T2        TX        TY        TZ
        (cm-1)      (nm)                 (au**2)    (au)      (au)      (au)
-----------------------------------------------------------------------------
   1   33539.8    298.2   0.000072203   0.00071   0.02223   0.01299  -0.00674

Dispersion correction           -0.025203201
FINAL SINGLE POINT ENERGY      -189.304436226762

DIPOLE MOMENT
-------------
                                X             Y             Z
Electronic contribution:     -2.05952      -1.76724       0.57491
Nuclear contribution   :      2.33608       2.68354      -0.91278
                        -----------------------------------------
Total Dipole Moment    :      0.27656       0.91630      -0.33787
                        -----------------------------------------
Magnitude (a.u.)       :      1.01501
Magnitude (Debye)      :      2.57996

Rotational constants in cm-1:     0.824226     0.188653     0.158224
Rotational constants in MHz : 24709.663264  5655.670357  4743.437790

                             ****ORCA TERMINATED NORMALLY****
TOTAL RUN TIME: 0 days 0 hours 0 minutes 11 seconds 893 msec
