                         Program Version 5.0.3 -  RELEASE  -
|  1> ! HF-3c
|  2> !TightSCF
|  3> %scf
|  4>  ConvForced true
|  5>  convergence tight
|  6>  MaxIter 500
|  7> end
|  8>
|  9> %tddft
| 10>  nroots 1
| 11> end
| 12>
| 13> # 	11437
| 14> * xyz 0 1
| 15> 		C   -1.173690  -0.392860  -0.075996
| 16> 		O   -2.018436  -0.658127  -0.928967
| 17> 		C   -0.008664   0.423851  -0.349691
| 18> 		C    1.137015   0.223276   0.334222
| 19> 		H   -1.241636  -0.671301   1.103642
| 20> 		H   -0.018582   1.035594  -1.153560
| 21> 		H    1.292640  -0.658548   1.089138
| 22> 		H    2.054672   0.685565  -0.008440
| 23> *
| 24>
| 25>                          ****END OF INPUT****

CARTESIAN COORDINATES (ANGSTROEM)
---------------------------------
  C     -1.173690   -0.392860   -0.075996
  O     -2.018436   -0.658127   -0.928967
  C     -0.008664    0.423851   -0.349691
  C      1.137015    0.223276    0.334222
  H     -1.241636   -0.671301    1.103642
  H     -0.018582    1.035594   -1.153560
  H      1.292640   -0.658548    1.089138
  H      2.054672    0.685565   -0.008440

 Total Charge           Charge          ....    0
 Multiplicity           Mult            ....    1
 Number of Electrons    NEL             ....   30
 Basis Dimension        Dim             ....   24

ORBITAL ENERGIES
----------------

  NO   OCC          E(Eh)            E(eV)
   0   2.0000     -20.356640      -553.9323
   1   2.0000     -11.290582      -307.2324
   2   2.0000     -11.195173      -304.6361
   3   2.0000     -11.191850      -304.5457
   4   2.0000      -1.384044       -37.6618
   5   2.0000      -1.087815       -29.6010
   6   2.0000      -0.876839       -23.8600
   7   2.0000      -0.771241       -20.9865
   8   2.0000      -0.650773       -17.7084
   9   2.0000      -0.649035       -17.6611
  10   2.0000      -0.575511       -15.6605
  11   2.0000      -0.543880       -14.7997
  12   2.0000      -0.522903       -14.2289
  13   2.0000      -0.406035       -11.0488
  14   2.0000      -0.390791       -10.6340
  15   0.0000       0.129854         3.5335
  16   0.0000       0.284376         7.7383
  17   0.0000       0.524383        14.2692
  18   0.0000       0.550916        14.9912
  19   0.0000       0.638645        17.3784

MULLIKEN ATOMIC CHARGES
-----------------------
   0 C :    0.177413
   1 O :   -0.354918
   2 C :   -0.194659
   3 C :   -0.205965
   4 H :    0.133848
   5 H :    0.155962
   6 H :    0.144883
   7 H :    0.143436
Sum of atomic charges:   -0.0000000

LOEWDIN ATOMIC CHARGES
----------------------
   0 C :    0.153827
   1 O :   -0.266277
   2 C :   -0.141280
   3 C :   -0.113883
   4 H :    0.080228
   5 H :    0.094841
   6 H :    0.100488
   7 H :    0.092057

  Mayer bond orders larger than 0.100000
B(  0-C ,  1-O ) :   1.9052 B(  0-C ,  2-C ) :   1.0384 B(  0-C ,  4-H ) :   0.9101
B(  2-C ,  3-C ) :   1.9354 B(  2-C ,  5-H ) :   0.9552 B(  3-C ,  6-H ) :   0.9623
B(  3-C ,  7-H ) :   0.9655

-----------------------------------------------------------------------------
         ABSORPTION SPECTRUM VIA TRANSITION ELECTRIC DIPOLE MOMENTS
-----------------------------------------------------------------------------
State   Energy    Wavelength  fosc         T2        TX        TY        TZ
        (cm-1)      (nm)                 (au**2)    (au)      (au)      (au)
-----------------------------------------------------------------------------
   1   32536.6    307.3   0.000039331   0.00040   0.01640   0.00549  -0.00994

Dispersion correction           -0.025518263
FINAL SINGLE POINT ENERGY      -189.321091988367

DIPOLE MOMENT
-------------
                                X             Y             Z
Electronic contribution:     -2.99499      -0.65345      -1.22434
Nuclear contribution   :      3.99351       0.83322       1.95608
                        -----------------------------------------
Total Dipole Moment    :      0.99852       0.17978       0.73174
                        -----------------------------------------
Magnitude (a.u.)       :      1.25092
Magnitude (Debye)      :      3.17959

Rotational constants in cm-1:     1.396770     0.157362     0.145637
Rotational constants in MHz : 41874.097050  4717.586792  4366.075805

                             ****ORCA TERMINATED NORMALLY****
TOTAL RUN TIME: 0 days 0 hours 0 minutes 11 seconds 758 msec
