                         Program Version 5.0.3 -  RELEASE  -
|  1> ! B3LYP cc-pVDZ
|  2> !TightSCF
|  3> %scf
|  4>  ConvForced true
|  5>  convergence tight
|  6>  MaxIter 500
|  7> end
|  8>
|  9> %tddft
| 10>  nroots 1
| 11> end
| 12>
| 13> # 	23502
| 14> * xyz 0 1
| 15> 		C   -0.557727  -0.411735   0.038018
| 16> 		O   -0.549975  -1.644423  -0.020168
| 17> 		C    0.604246   0.450189  -0.001880
| 18> 		C    1.809498  -0.170888   0.013018
| 19> 		H   -1.583085   0.176979  -0.032896
| 20> 		H    0.358967   1.650802  -0.182683
| 21> 		H    1.924654  -1.269783  -0.010042
| 22> 		H    2.875781   0.404224  -0.050366
| 23> *
| 24>
| 25>                          ****END OF INPUT****

CARTESIAN COORDINATES (ANGSTROEM)
---------------------------------
  C     -0.557727   -0.411735    0.038018
  O     -0.549975   -1.644423   -0.020168
  C      0.604246    0.450189   -0.001880
  C      1.809498   -0.170888    0.013018
  H     -1.583085    0.176979   -0.032896
  H      0.358967    1.650802   -0.182683
  H      1.924654   -1.269783   -0.010042
  H      2.875781    0.404224   -0.050366

 Total Charge           Charge          ....    0
 Multiplicity           Mult            ....    1
 Number of Electrons    NEL             ....   30
 Basis Dimension        Dim             ....   76

ORBITAL ENERGIES
----------------

  NO   OCC          E(Eh)            E(eV)
   0   2.0000     -19.138068      -520.7733
   1   2.0000     -10.279127      -279.7093
   2   2.0000     -10.233671      -278.4723
   3   2.0000     -10.223729      -278.2018
   4   2.0000      -1.033300       -28.1175
   5   2.0000      -0.794452       -21.6181
   6   2.0000      -0.652985       -17.7686
   7   2.0000      -0.526584       -14.3291
   8   2.0000      -0.491175       -13.3656
   9   2.0000      -0.449909       -12.2426
  10   2.0000      -0.406718       -11.0674
  11   2.0000      -0.395063       -10.7502
  12   2.0000      -0.371081       -10.0976
  13   2.0000      -0.287433        -7.8214
  14   2.0000      -0.255577        -6.9546
  15   0.0000      -0.078140        -2.1263
  16   0.0000       0.037055         1.0083
  17   0.0000       0.057330         1.5600
  18   0.0000       0.075638         2.0582
  19   0.0000       0.110626         3.0103

MULLIKEN ATOMIC CHARGES
-----------------------
   0 C :    0.175416
   1 O :   -0.210311
   2 C :   -0.140855
   3 C :    0.026504
   4 H :   -0.015040
   5 H :    0.044392
   6 H :    0.061428
   7 H :    0.058465
Sum of atomic charges:   -0.0000000

LOEWDIN ATOMIC CHARGES
----------------------
   0 C :   -0.038649
   1 O :   -0.030317
   2 C :   -0.103191
   3 C :    0.026619
   4 H :   -0.001598
   5 H :    0.057813
   6 H :    0.039069
   7 H :    0.050253

  Mayer bond orders larger than 0.100000
B(  0-C ,  1-O ) :   2.1535 B(  0-C ,  2-C ) :   1.0778 B(  0-C ,  4-H ) :   0.9058
B(  1-O ,  3-C ) :   0.1026 B(  2-C ,  3-C ) :   1.9052 B(  2-C ,  5-H ) :   0.9350
B(  3-C ,  6-H ) :   0.9318 B(  3-C ,  7-H ) :   0.9466

-----------------------------------------------------------------------------
         ABSORPTION SPECTRUM VIA TRANSITION ELECTRIC DIPOLE MOMENTS
-----------------------------------------------------------------------------
State   Energy    Wavelength  fosc         T2        TX        TY        TZ
        (cm-1)      (nm)                 (au**2)    (au)      (au)      (au)
-----------------------------------------------------------------------------
   1   26332.3    379.8   0.000162747   0.00203   0.00410   0.01563  -0.04212

FINAL SINGLE POINT ENERGY      -191.664513244298

DIPOLE MOMENT
-------------
                                X             Y             Z
Electronic contribution:     -1.70263      -1.81975       0.22764
Nuclear contribution   :      2.19807       2.68810      -0.25852
                        -----------------------------------------
Total Dipole Moment    :      0.49543       0.86835      -0.03088
                        -----------------------------------------
Magnitude (a.u.)       :      1.00022
Magnitude (Debye)      :      2.54235

Rotational constants in cm-1:     0.691213     0.218207     0.166057
Rotational constants in MHz : 20722.052128  6541.674191  4978.262801

                             ****ORCA TERMINATED NORMALLY****
TOTAL RUN TIME: 0 days 0 hours 3 minutes 22 seconds 266 msec
