                         Program Version 5.0.3 -  RELEASE  -
|  1> ! B3LYP cc-pVDZ
|  2> !TightSCF
|  3> %scf
|  4>  ConvForced true
|  5>  convergence tight
|  6>  MaxIter 500
|  7> end
|  8>
|  9> %tddft
| 10>  nroots 1
| 11> end
| 12>
| 13> # 	26579
| 14> * xyz 0 1
| 15> 		C   -0.631016  -0.467064   0.029351
| 16> 		O   -0.592079  -1.682296  -0.012174
| 17> 		C    0.654795   0.478444  -0.087723
| 18> 		C    1.858861  -0.095583   0.033411
| 19> 		H   -1.565003   0.127217   0.252946
| 20> 		H    0.497450   1.580592   0.128623
| 21> 		H    2.111638  -1.140615  -0.022474
| 22> 		H    2.894172   0.403244   0.140835
| 23> *
| 24>
| 25>                          ****END OF INPUT****

CARTESIAN COORDINATES (ANGSTROEM)
---------------------------------
  C     -0.631016   -0.467064    0.029351
  O     -0.592079   -1.682296   -0.012174
  C      0.654795    0.478444   -0.087723
  C      1.858861   -0.095583    0.033411
  H     -1.565003    0.127217    0.252946
  H      0.497450    1.580592    0.128623
  H      2.111638   -1.140615   -0.022474
  H      2.894172    0.403244    0.140835

 Total Charge           Charge          ....    0
 Multiplicity           Mult            ....    1
 Number of Electrons    NEL             ....   30
 Basis Dimension        Dim             ....   76

ORBITAL ENERGIES
----------------

  NO   OCC          E(Eh)            E(eV)
   0   2.0000     -19.148049      -521.0449
   1   2.0000     -10.289616      -279.9947
   2   2.0000     -10.216396      -278.0023
   3   2.0000     -10.215570      -277.9798
   4   2.0000      -1.047257       -28.4973
   5   2.0000      -0.780261       -21.2320
   6   2.0000      -0.641153       -17.4467
   7   2.0000      -0.551452       -15.0058
   8   2.0000      -0.486308       -13.2331
   9   2.0000      -0.448781       -12.2120
  10   2.0000      -0.426811       -11.6141
  11   2.0000      -0.395479       -10.7615
  12   2.0000      -0.366339        -9.9686
  13   2.0000      -0.288029        -7.8377
  14   2.0000      -0.258692        -7.0394
  15   0.0000      -0.064479        -1.7546
  16   0.0000       0.037042         1.0080
  17   0.0000       0.061940         1.6855
  18   0.0000       0.086986         2.3670
  19   0.0000       0.111115         3.0236

MULLIKEN ATOMIC CHARGES
-----------------------
   0 C :    0.182493
   1 O :   -0.184350
   2 C :   -0.135028
   3 C :    0.039854
   4 H :    0.001486
   5 H :    0.021200
   6 H :    0.035265
   7 H :    0.039079
Sum of atomic charges:    0.0000000

LOEWDIN ATOMIC CHARGES
----------------------
   0 C :   -0.010130
   1 O :   -0.004611
   2 C :   -0.094572
   3 C :    0.007958
   4 H :   -0.002800
   5 H :    0.036759
   6 H :    0.027018
   7 H :    0.040379

  Mayer bond orders larger than 0.100000
B(  0-C ,  1-O ) :   2.2033 B(  0-C ,  2-C ) :   0.9786 B(  0-C ,  4-H ) :   0.9071
B(  2-C ,  3-C ) :   1.9591 B(  2-C ,  5-H ) :   0.9361 B(  3-C ,  6-H ) :   0.9504
B(  3-C ,  7-H ) :   0.9557

-----------------------------------------------------------------------------
         ABSORPTION SPECTRUM VIA TRANSITION ELECTRIC DIPOLE MOMENTS
-----------------------------------------------------------------------------
State   Energy    Wavelength  fosc         T2        TX        TY        TZ
        (cm-1)      (nm)                 (au**2)    (au)      (au)      (au)
-----------------------------------------------------------------------------
   1   29676.6    337.0   0.000475443   0.00527   0.06719   0.02580   0.00970

FINAL SINGLE POINT ENERGY      -191.657594753811

DIPOLE MOMENT
-------------
                                X             Y             Z
Electronic contribution:     -2.21085      -1.87884      -0.34884
Nuclear contribution   :      2.53627       2.69648       0.46821
                        -----------------------------------------
Total Dipole Moment    :      0.32542       0.81764       0.11937
                        -----------------------------------------
Magnitude (a.u.)       :      0.88808
Magnitude (Debye)      :      2.25732

Rotational constants in cm-1:     0.718652     0.195391     0.154242
Rotational constants in MHz : 21544.653392  5857.687212  4624.067050

                             ****ORCA TERMINATED NORMALLY****
TOTAL RUN TIME: 0 days 0 hours 3 minutes 23 seconds 800 msec
