                         Program Version 5.0.3 -  RELEASE  -
|  1> ! HF-3c
|  2> !TightSCF
|  3> %scf
|  4>  ConvForced true
|  5>  convergence tight
|  6>  MaxIter 500
|  7> end
|  8>
|  9> %tddft
| 10>  nroots 1
| 11> end
| 12>
| 13> # 	474
| 14> * xyz 0 1
| 15> 		C   -1.226389  -0.318220  -0.003493
| 16> 		O   -2.135128  -0.467920   0.799080
| 17> 		C   -0.034118   0.388512   0.306156
| 18> 		C    1.202153   0.102001  -0.179747
| 19> 		H   -1.204154  -0.943607  -0.968608
| 20> 		H    0.051880   1.308294   1.065536
| 21> 		H    1.289527  -0.708475  -0.905620
| 22> 		H    2.016560   0.611859  -0.059508
| 23> *
| 24>
| 25>                          ****END OF INPUT****

CARTESIAN COORDINATES (ANGSTROEM)
---------------------------------
  C     -1.226389   -0.318220   -0.003493
  O     -2.135128   -0.467920    0.799080
  C     -0.034118    0.388512    0.306156
  C      1.202153    0.102001   -0.179747
  H     -1.204154   -0.943607   -0.968608
  H      0.051880    1.308294    1.065536
  H      1.289527   -0.708475   -0.905620
  H      2.016560    0.611859   -0.059508

 Total Charge           Charge          ....    0
 Multiplicity           Mult            ....    1
 Number of Electrons    NEL             ....   30
 Basis Dimension        Dim             ....   24

ORBITAL ENERGIES
----------------

  NO   OCC          E(Eh)            E(eV)
   0   2.0000     -20.369498      -554.2822
   1   2.0000     -11.301992      -307.5428
   2   2.0000     -11.196766      -304.6795
   3   2.0000     -11.190592      -304.5115
   4   2.0000      -1.399105       -38.0716
   5   2.0000      -1.085632       -29.5416
   6   2.0000      -0.902243       -24.5513
   7   2.0000      -0.765903       -20.8413
   8   2.0000      -0.674698       -18.3595
   9   2.0000      -0.660489       -17.9728
  10   2.0000      -0.586886       -15.9700
  11   2.0000      -0.545554       -14.8453
  12   2.0000      -0.509346       -13.8600
  13   2.0000      -0.420506       -11.4426
  14   2.0000      -0.389453       -10.5976
  15   0.0000       0.118139         3.2147
  16   0.0000       0.293112         7.9760
  17   0.0000       0.507538        13.8108
  18   0.0000       0.604760        16.4564
  19   0.0000       0.666554        18.1379

MULLIKEN ATOMIC CHARGES
-----------------------
   0 C :    0.153849
   1 O :   -0.338847
   2 C :   -0.148911
   3 C :   -0.246319
   4 H :    0.141481
   5 H :    0.161490
   6 H :    0.135954
   7 H :    0.141303
Sum of atomic charges:    0.0000000

LOEWDIN ATOMIC CHARGES
----------------------
   0 C :    0.137318
   1 O :   -0.248159
   2 C :   -0.111219
   3 C :   -0.143438
   4 H :    0.081339
   5 H :    0.114814
   6 H :    0.087333
   7 H :    0.082012

  Mayer bond orders larger than 0.100000
B(  0-C ,  1-O ) :   1.8946 B(  0-C ,  2-C ) :   1.0569 B(  0-C ,  4-H ) :   0.9167
B(  2-C ,  3-C ) :   1.9348 B(  2-C ,  5-H ) :   0.9456 B(  3-C ,  6-H ) :   0.9663
B(  3-C ,  7-H ) :   0.9708

-----------------------------------------------------------------------------
         ABSORPTION SPECTRUM VIA TRANSITION ELECTRIC DIPOLE MOMENTS
-----------------------------------------------------------------------------
State   Energy    Wavelength  fosc         T2        TX        TY        TZ
        (cm-1)      (nm)                 (au**2)    (au)      (au)      (au)
-----------------------------------------------------------------------------
   1   31100.7    321.5   0.000146716   0.00155   0.02338  -0.01674  -0.02695

Dispersion correction           -0.025412800
FINAL SINGLE POINT ENERGY      -189.314792184838

DIPOLE MOMENT
-------------
                                X             Y             Z
Electronic contribution:     -3.29160      -0.42702       1.11074
Nuclear contribution   :      4.18583       0.59043      -1.70222
                        -----------------------------------------
Total Dipole Moment    :      0.89423       0.16341      -0.59148
                        -----------------------------------------
Magnitude (a.u.)       :      1.08453
Magnitude (Debye)      :      2.75665

Rotational constants in cm-1:     1.465061     0.156505     0.145107
Rotational constants in MHz : 43921.429227  4691.895813  4350.208901

                             ****ORCA TERMINATED NORMALLY****
TOTAL RUN TIME: 0 days 0 hours 0 minutes 10 seconds 274 msec
