                         Program Version 5.0.3 -  RELEASE  -
|  1> ! HF-3c
|  2> !TightSCF
|  3> %scf
|  4>  ConvForced true
|  5>  convergence tight
|  6>  MaxIter 500
|  7> end
|  8>
|  9> %tddft
| 10>  nroots 1
| 11> end
| 12>
| 13> # 	27349
| 14> * xyz 0 1
| 15> 		C   -0.584330  -0.437802   0.002183
| 16> 		O   -0.570579  -1.602266  -0.000570
| 17> 		C    0.618573   0.382949  -0.018056
| 18> 		C    1.842445  -0.137640   0.021382
| 19> 		H   -1.597372   0.240113  -0.008680
| 20> 		H    0.484393   1.394614   0.101821
| 21> 		H    2.038321  -1.205106  -0.019016
| 22> 		H    2.714021   0.573145  -0.133144
| 23> *
| 24>
| 25>                          ****END OF INPUT****

CARTESIAN COORDINATES (ANGSTROEM)
---------------------------------
  C     -0.584330   -0.437802    0.002183
  O     -0.570579   -1.602266   -0.000570
  C      0.618573    0.382949   -0.018056
  C      1.842445   -0.137640    0.021382
  H     -1.597372    0.240113   -0.008680
  H      0.484393    1.394614    0.101821
  H      2.038321   -1.205106   -0.019016
  H      2.714021    0.573145   -0.133144

 Total Charge           Charge          ....    0
 Multiplicity           Mult            ....    1
 Number of Electrons    NEL             ....   30
 Basis Dimension        Dim             ....   24

ORBITAL ENERGIES
----------------

  NO   OCC          E(Eh)            E(eV)
   0   2.0000     -20.374500      -554.4183
   1   2.0000     -11.303469      -307.5830
   2   2.0000     -11.193559      -304.5922
   3   2.0000     -11.182328      -304.2866
   4   2.0000      -1.434700       -39.0402
   5   2.0000      -1.082643       -29.4602
   6   2.0000      -0.886194       -24.1146
   7   2.0000      -0.737462       -20.0674
   8   2.0000      -0.707993       -19.2655
   9   2.0000      -0.622416       -16.9368
  10   2.0000      -0.588750       -16.0207
  11   2.0000      -0.563564       -15.3354
  12   2.0000      -0.538517       -14.6538
  13   2.0000      -0.402507       -10.9528
  14   2.0000      -0.394394       -10.7320
  15   0.0000       0.136727         3.7205
  16   0.0000       0.324166         8.8210
  17   0.0000       0.511051        13.9064
  18   0.0000       0.618406        16.8277
  19   0.0000       0.643462        17.5095

MULLIKEN ATOMIC CHARGES
-----------------------
   0 C :    0.196516
   1 O :   -0.368508
   2 C :   -0.197896
   3 C :   -0.200644
   4 H :    0.125075
   5 H :    0.139278
   6 H :    0.158384
   7 H :    0.147796
Sum of atomic charges:    0.0000000

LOEWDIN ATOMIC CHARGES
----------------------
   0 C :    0.154690
   1 O :   -0.257114
   2 C :   -0.152882
   3 C :   -0.102501
   4 H :    0.070025
   5 H :    0.083756
   6 H :    0.103576
   7 H :    0.100450

  Mayer bond orders larger than 0.100000
B(  0-C ,  1-O ) :   1.9139 B(  0-C ,  2-C ) :   1.0211 B(  0-C ,  4-H ) :   0.9036
B(  2-C ,  3-C ) :   1.9398 B(  2-C ,  5-H ) :   0.9626 B(  3-C ,  6-H ) :   0.9599
B(  3-C ,  7-H ) :   0.9625

-----------------------------------------------------------------------------
         ABSORPTION SPECTRUM VIA TRANSITION ELECTRIC DIPOLE MOMENTS
-----------------------------------------------------------------------------
State   Energy    Wavelength  fosc         T2        TX        TY        TZ
        (cm-1)      (nm)                 (au**2)    (au)      (au)      (au)
-----------------------------------------------------------------------------
   1   34901.3    286.5   0.000111989   0.00106   0.02991   0.00043   0.01271

Dispersion correction           -0.025914742
FINAL SINGLE POINT ENERGY      -189.316917166017

DIPOLE MOMENT
-------------
                                X             Y             Z
Electronic contribution:     -1.90524      -1.82039       0.04644
Nuclear contribution   :      2.25811       2.72716      -0.05521
                        -----------------------------------------
Total Dipole Moment    :      0.35287       0.90678      -0.00877
                        -----------------------------------------
Magnitude (a.u.)       :      0.97306
Magnitude (Debye)      :      2.47331

Rotational constants in cm-1:     0.785736     0.214053     0.168353
Rotational constants in MHz : 23555.784210  6417.160606  5047.104870

                             ****ORCA TERMINATED NORMALLY****
TOTAL RUN TIME: 0 days 0 hours 0 minutes 16 seconds 90 msec
