                         Program Version 5.0.3 -  RELEASE  -
|  1> ! B3LYP cc-pVDZ
|  2> !TightSCF
|  3> %scf
|  4>  ConvForced true
|  5>  convergence tight
|  6>  MaxIter 500
|  7> end
|  8>
|  9> %tddft
| 10>  nroots 1
| 11> end
| 12>
| 13> # 	6912
| 14> * xyz 0 1
| 15> 		C   -1.253721  -0.298694   0.081991
| 16> 		O   -1.934816  -0.696542   0.873702
| 17> 		C    0.003642   0.475355   0.272765
| 18> 		C    1.206679   0.066948  -0.167921
| 19> 		H   -1.312781  -0.694112  -1.069259
| 20> 		H   -0.046110   1.289091   0.931725
| 21> 		H    1.152637  -0.789419  -0.980583
| 22> 		H    2.124503   0.598479   0.126161
| 23> *
| 24>
| 25>                          ****END OF INPUT****

CARTESIAN COORDINATES (ANGSTROEM)
---------------------------------
  C     -1.253721   -0.298694    0.081991
  O     -1.934816   -0.696542    0.873702
  C      0.003642    0.475355    0.272765
  C      1.206679    0.066948   -0.167921
  H     -1.312781   -0.694112   -1.069259
  H     -0.046110    1.289091    0.931725
  H      1.152637   -0.789419   -0.980583
  H      2.124503    0.598479    0.126161

 Total Charge           Charge          ....    0
 Multiplicity           Mult            ....    1
 Number of Electrons    NEL             ....   30
 Basis Dimension        Dim             ....   76

ORBITAL ENERGIES
----------------

  NO   OCC          E(Eh)            E(eV)
   0   2.0000     -19.151832      -521.1479
   1   2.0000     -10.282375      -279.7977
   2   2.0000     -10.220239      -278.1069
   3   2.0000     -10.200595      -277.5723
   4   2.0000      -1.112202       -30.2645
   5   2.0000      -0.795799       -21.6548
   6   2.0000      -0.637813       -17.3558
   7   2.0000      -0.556028       -15.1303
   8   2.0000      -0.484577       -13.1860
   9   2.0000      -0.475184       -12.9304
  10   2.0000      -0.447853       -12.1867
  11   2.0000      -0.423898       -11.5348
  12   2.0000      -0.383276       -10.4295
  13   2.0000      -0.289157        -7.8684
  14   2.0000      -0.254323        -6.9205
  15   0.0000      -0.044385        -1.2078
  16   0.0000       0.027834         0.7574
  17   0.0000       0.072339         1.9685
  18   0.0000       0.086098         2.3428
  19   0.0000       0.110383         3.0037

MULLIKEN ATOMIC CHARGES
-----------------------
   0 C :    0.127609
   1 O :   -0.085493
   2 C :   -0.059698
   3 C :   -0.001016
   4 H :   -0.056792
   5 H :   -0.011151
   6 H :    0.041848
   7 H :    0.044693
Sum of atomic charges:   -0.0000000

LOEWDIN ATOMIC CHARGES
----------------------
   0 C :   -0.095596
   1 O :    0.108829
   2 C :   -0.062197
   3 C :   -0.020756
   4 H :   -0.029456
   5 H :    0.017246
   6 H :    0.044740
   7 H :    0.037190

  Mayer bond orders larger than 0.100000
B(  0-C ,  1-O ) :   2.3205 B(  0-C ,  2-C ) :   0.9927 B(  0-C ,  4-H ) :   0.8666
B(  2-C ,  3-C ) :   2.0012 B(  2-C ,  5-H ) :   0.9426 B(  3-C ,  6-H ) :   0.9307
B(  3-C ,  7-H ) :   0.9381

-----------------------------------------------------------------------------
         ABSORPTION SPECTRUM VIA TRANSITION ELECTRIC DIPOLE MOMENTS
-----------------------------------------------------------------------------
State   Energy    Wavelength  fosc         T2        TX        TY        TZ
        (cm-1)      (nm)                 (au**2)    (au)      (au)      (au)
-----------------------------------------------------------------------------
   1   34069.7    293.5   0.000543604   0.00525  -0.00273  -0.03530  -0.06324

FINAL SINGLE POINT ENERGY      -191.619942545857

DIPOLE MOMENT
-------------
                                X             Y             Z
Electronic contribution:     -3.08691      -0.50596       1.63262
Nuclear contribution   :      3.75631       0.89364      -1.94066
                        -----------------------------------------
Total Dipole Moment    :      0.66941       0.38768      -0.30804
                        -----------------------------------------
Magnitude (a.u.)       :      0.83264
Magnitude (Debye)      :      2.11641

Rotational constants in cm-1:     1.266020     0.160469     0.152679
Rotational constants in MHz : 37954.333092  4810.730690  4577.196662

                             ****ORCA TERMINATED NORMALLY****
TOTAL RUN TIME: 0 days 0 hours 3 minutes 5 seconds 859 msec
