                         Program Version 5.0.3 -  RELEASE  -
|  1> ! B3LYP cc-pVDZ
|  2> !TightSCF
|  3> %scf
|  4>  ConvForced true
|  5>  convergence tight
|  6>  MaxIter 500
|  7> end
|  8>
|  9> %tddft
| 10>  nroots 1
| 11> end
| 12>
| 13> # 	28609
| 14> * xyz 0 1
| 15> 		C   -0.622499  -0.453876   0.014354
| 16> 		O   -0.582802  -1.614392  -0.013143
| 17> 		C    0.620408   0.413278  -0.017292
| 18> 		C    1.898650  -0.122271  -0.004822
| 19> 		H   -1.632280   0.066919   0.153144
| 20> 		H    0.502140   1.319162  -0.066152
| 21> 		H    2.006008  -1.093115   0.131035
| 22> 		H    2.696676   0.508838   0.080096
| 23> *
| 24>
| 25>                          ****END OF INPUT****

CARTESIAN COORDINATES (ANGSTROEM)
---------------------------------
  C     -0.622499   -0.453876    0.014354
  O     -0.582802   -1.614392   -0.013143
  C      0.620408    0.413278   -0.017292
  C      1.898650   -0.122271   -0.004822
  H     -1.632280    0.066919    0.153144
  H      0.502140    1.319162   -0.066152
  H      2.006008   -1.093115    0.131035
  H      2.696676    0.508838    0.080096

 Total Charge           Charge          ....    0
 Multiplicity           Mult            ....    1
 Number of Electrons    NEL             ....   30
 Basis Dimension        Dim             ....   76

ORBITAL ENERGIES
----------------

  NO   OCC          E(Eh)            E(eV)
   0   2.0000     -19.137390      -520.7549
   1   2.0000     -10.273967      -279.5689
   2   2.0000     -10.199717      -277.5484
   3   2.0000     -10.191422      -277.3227
   4   2.0000      -1.074563       -29.2403
   5   2.0000      -0.791196       -21.5295
   6   2.0000      -0.660982       -17.9862
   7   2.0000      -0.559655       -15.2290
   8   2.0000      -0.518100       -14.0982
   9   2.0000      -0.452352       -12.3091
  10   2.0000      -0.430477       -11.7139
  11   2.0000      -0.411881       -11.2079
  12   2.0000      -0.407492       -11.0884
  13   2.0000      -0.280877        -7.6430
  14   2.0000      -0.253275        -6.8920
  15   0.0000      -0.066564        -1.8113
  16   0.0000       0.058875         1.6021
  17   0.0000       0.083769         2.2795
  18   0.0000       0.101730         2.7682
  19   0.0000       0.135281         3.6812

MULLIKEN ATOMIC CHARGES
-----------------------
   0 C :    0.151615
   1 O :   -0.144423
   2 C :   -0.027493
   3 C :    0.161489
   4 H :   -0.028325
   5 H :   -0.110821
   6 H :   -0.013096
   7 H :    0.011054
Sum of atomic charges:    0.0000000

LOEWDIN ATOMIC CHARGES
----------------------
   0 C :   -0.059866
   1 O :    0.043553
   2 C :   -0.024011
   3 C :    0.069482
   4 H :   -0.009448
   5 H :   -0.036524
   6 H :    0.000080
   7 H :    0.016734

  Mayer bond orders larger than 0.100000
B(  0-C ,  1-O ) :   2.2484 B(  0-C ,  2-C ) :   1.0221 B(  0-C ,  4-H ) :   0.9044
B(  2-C ,  3-C ) :   1.9826 B(  2-C ,  5-H ) :   0.9482 B(  3-C ,  6-H ) :   0.9403
B(  3-C ,  7-H ) :   0.9499

-----------------------------------------------------------------------------
         ABSORPTION SPECTRUM VIA TRANSITION ELECTRIC DIPOLE MOMENTS
-----------------------------------------------------------------------------
State   Energy    Wavelength  fosc         T2        TX        TY        TZ
        (cm-1)      (nm)                 (au**2)    (au)      (au)      (au)
-----------------------------------------------------------------------------
   1   28714.0    348.3   0.000063617   0.00073   0.02108  -0.00314  -0.01659

FINAL SINGLE POINT ENERGY      -191.627943703788

DIPOLE MOMENT
-------------
                                X             Y             Z
Electronic contribution:     -1.84532      -1.73059      -0.21987
Nuclear contribution   :      2.19687       2.54119       0.27970
                        -----------------------------------------
Total Dipole Moment    :      0.35155       0.81059       0.05983
                        -----------------------------------------
Magnitude (a.u.)       :      0.88557
Magnitude (Debye)      :      2.25093

Rotational constants in cm-1:     0.794023     0.203879     0.162415
Rotational constants in MHz : 23804.222333  6112.136186  4869.090066

                             ****ORCA TERMINATED NORMALLY****
TOTAL RUN TIME: 0 days 0 hours 3 minutes 23 seconds 81 msec
