                         Program Version 5.0.3 -  RELEASE  -
|  1> ! HF-3c
|  2> !TightSCF
|  3> %scf
|  4>  ConvForced true
|  5>  convergence tight
|  6>  MaxIter 500
|  7> end
|  8>
|  9> %tddft
| 10>  nroots 1
| 11> end
| 12>
| 13> # 	20554
| 14> * xyz 0 1
| 15> 		C   -0.564457  -0.435092   0.020995
| 16> 		O   -0.624383  -1.630388  -0.018207
| 17> 		C    0.643396   0.361802  -0.028814
| 18> 		C    1.871933  -0.082785   0.012767
| 19> 		H   -1.599222  -0.023336   0.165118
| 20> 		H    0.487819   1.528028  -0.043256
| 21> 		H    2.067395  -1.078317   0.131501
| 22> 		H    2.678688   0.553652  -0.031597
| 23> *
| 24>
| 25>                          ****END OF INPUT****

CARTESIAN COORDINATES (ANGSTROEM)
---------------------------------
  C     -0.564457   -0.435092    0.020995
  O     -0.624383   -1.630388   -0.018207
  C      0.643396    0.361802   -0.028814
  C      1.871933   -0.082785    0.012767
  H     -1.599222   -0.023336    0.165118
  H      0.487819    1.528028   -0.043256
  H      2.067395   -1.078317    0.131501
  H      2.678688    0.553652   -0.031597

 Total Charge           Charge          ....    0
 Multiplicity           Mult            ....    1
 Number of Electrons    NEL             ....   30
 Basis Dimension        Dim             ....   24

ORBITAL ENERGIES
----------------

  NO   OCC          E(Eh)            E(eV)
   0   2.0000     -20.363594      -554.1216
   1   2.0000     -11.296641      -307.3972
   2   2.0000     -11.201119      -304.7980
   3   2.0000     -11.198560      -304.7283
   4   2.0000      -1.412659       -38.4404
   5   2.0000      -1.094092       -29.7718
   6   2.0000      -0.901931       -24.5428
   7   2.0000      -0.754240       -20.5239
   8   2.0000      -0.712043       -19.3757
   9   2.0000      -0.629325       -17.1248
  10   2.0000      -0.609050       -16.5731
  11   2.0000      -0.549564       -14.9544
  12   2.0000      -0.523192       -14.2368
  13   2.0000      -0.413779       -11.2595
  14   2.0000      -0.405352       -11.0302
  15   0.0000       0.129714         3.5297
  16   0.0000       0.323544         8.8041
  17   0.0000       0.509484        13.8638
  18   0.0000       0.595876        16.2146
  19   0.0000       0.708140        19.2695

MULLIKEN ATOMIC CHARGES
-----------------------
   0 C :    0.151965
   1 O :   -0.349158
   2 C :   -0.154951
   3 C :   -0.245318
   4 H :    0.142518
   5 H :    0.147494
   6 H :    0.157285
   7 H :    0.150165
Sum of atomic charges:    0.0000000

LOEWDIN ATOMIC CHARGES
----------------------
   0 C :    0.130647
   1 O :   -0.252115
   2 C :   -0.114931
   3 C :   -0.136268
   4 H :    0.079301
   5 H :    0.101215
   6 H :    0.097846
   7 H :    0.094304

  Mayer bond orders larger than 0.100000
B(  0-C ,  1-O ) :   1.8975 B(  0-C ,  2-C ) :   1.0355 B(  0-C ,  4-H ) :   0.9294
B(  2-C ,  3-C ) :   1.9507 B(  2-C ,  5-H ) :   0.9522 B(  3-C ,  6-H ) :   0.9603
B(  3-C ,  7-H ) :   0.9639

-----------------------------------------------------------------------------
         ABSORPTION SPECTRUM VIA TRANSITION ELECTRIC DIPOLE MOMENTS
-----------------------------------------------------------------------------
State   Energy    Wavelength  fosc         T2        TX        TY        TZ
        (cm-1)      (nm)                 (au**2)    (au)      (au)      (au)
-----------------------------------------------------------------------------
   1   31318.3    319.3   0.000027309   0.00029  -0.00578  -0.00190  -0.01582

Dispersion correction           -0.025605602
FINAL SINGLE POINT ENERGY      -189.330667486847

DIPOLE MOMENT
-------------
                                X             Y             Z
Electronic contribution:     -1.96705      -1.74164      -0.14250
Nuclear contribution   :      2.25120       2.70780       0.20835
                        -----------------------------------------
Total Dipole Moment    :      0.28415       0.96615       0.06584
                        -----------------------------------------
Magnitude (a.u.)       :      1.00922
Magnitude (Debye)      :      2.56524

Rotational constants in cm-1:     0.844938     0.201239     0.162750
Rotational constants in MHz : 25330.597631  6032.999351  4879.127673

                             ****ORCA TERMINATED NORMALLY****
TOTAL RUN TIME: 0 days 0 hours 0 minutes 11 seconds 821 msec
