                         Program Version 5.0.3 -  RELEASE  -
|  1> ! HF-3c
|  2> !TightSCF
|  3> %scf
|  4>  ConvForced true
|  5>  convergence tight
|  6>  MaxIter 500
|  7> end
|  8>
|  9> %tddft
| 10>  nroots 1
| 11> end
| 12>
| 13> # 	29062
| 14> * xyz 0 1
| 15> 		C   -0.581817  -0.433756  -0.000165
| 16> 		O   -0.570421  -1.615204  -0.003871
| 17> 		C    0.624376   0.387707  -0.026378
| 18> 		C    1.827289  -0.123793   0.005717
| 19> 		H   -1.553322   0.123698   0.145544
| 20> 		H    0.504823   1.597234   0.061411
| 21> 		H    2.006023  -1.134902   0.079670
| 22> 		H    2.769652   0.344186   0.023508
| 23> *
| 24>
| 25>                          ****END OF INPUT****

CARTESIAN COORDINATES (ANGSTROEM)
---------------------------------
  C     -0.581817   -0.433756   -0.000165
  O     -0.570421   -1.615204   -0.003871
  C      0.624376    0.387707   -0.026378
  C      1.827289   -0.123793    0.005717
  H     -1.553322    0.123698    0.145544
  H      0.504823    1.597234    0.061411
  H      2.006023   -1.134902    0.079670
  H      2.769652    0.344186    0.023508

 Total Charge           Charge          ....    0
 Multiplicity           Mult            ....    1
 Number of Electrons    NEL             ....   30
 Basis Dimension        Dim             ....   24

ORBITAL ENERGIES
----------------

  NO   OCC          E(Eh)            E(eV)
   0   2.0000     -20.375501      -554.4456
   1   2.0000     -11.305388      -307.6352
   2   2.0000     -11.192682      -304.5684
   3   2.0000     -11.190059      -304.4970
   4   2.0000      -1.426566       -38.8188
   5   2.0000      -1.084152       -29.5013
   6   2.0000      -0.898152       -24.4400
   7   2.0000      -0.755290       -20.5525
   8   2.0000      -0.700518       -19.0621
   9   2.0000      -0.627753       -17.0820
  10   2.0000      -0.601670       -16.3723
  11   2.0000      -0.557937       -15.1822
  12   2.0000      -0.513855       -13.9827
  13   2.0000      -0.414633       -11.2827
  14   2.0000      -0.401435       -10.9236
  15   0.0000       0.135680         3.6920
  16   0.0000       0.323668         8.8074
  17   0.0000       0.492847        13.4110
  18   0.0000       0.583030        15.8650
  19   0.0000       0.685606        18.6563

MULLIKEN ATOMIC CHARGES
-----------------------
   0 C :    0.173195
   1 O :   -0.354233
   2 C :   -0.157795
   3 C :   -0.240972
   4 H :    0.134676
   5 H :    0.146237
   6 H :    0.151872
   7 H :    0.147020
Sum of atomic charges:   -0.0000000

LOEWDIN ATOMIC CHARGES
----------------------
   0 C :    0.145844
   1 O :   -0.250220
   2 C :   -0.124252
   3 C :   -0.133870
   4 H :    0.072057
   5 H :    0.103577
   6 H :    0.093729
   7 H :    0.093134

  Mayer bond orders larger than 0.100000
B(  0-C ,  1-O ) :   1.9103 B(  0-C ,  2-C ) :   1.0223 B(  0-C ,  4-H ) :   0.9191
B(  2-C ,  3-C ) :   1.9552 B(  2-C ,  5-H ) :   0.9517 B(  3-C ,  6-H ) :   0.9599
B(  3-C ,  7-H ) :   0.9643

-----------------------------------------------------------------------------
         ABSORPTION SPECTRUM VIA TRANSITION ELECTRIC DIPOLE MOMENTS
-----------------------------------------------------------------------------
State   Energy    Wavelength  fosc         T2        TX        TY        TZ
        (cm-1)      (nm)                 (au**2)    (au)      (au)      (au)
-----------------------------------------------------------------------------
   1   33733.0    296.4   0.000008972   0.00009   0.00296   0.00394   0.00796

Dispersion correction           -0.025717366
FINAL SINGLE POINT ENERGY      -189.319239467374

DIPOLE MOMENT
-------------
                                X             Y             Z
Electronic contribution:     -2.07769      -1.70426      -0.21788
Nuclear contribution   :      2.33990       2.65945       0.29087
                        -----------------------------------------
Total Dipole Moment    :      0.26220       0.95519       0.07299
                        -----------------------------------------
Magnitude (a.u.)       :      0.99321
Magnitude (Debye)      :      2.52453

Rotational constants in cm-1:     0.781358     0.213716     0.167953
Rotational constants in MHz : 23424.516622  6407.035219  5035.091885

                             ****ORCA TERMINATED NORMALLY****
TOTAL RUN TIME: 0 days 0 hours 0 minutes 12 seconds 37 msec
