                         Program Version 5.0.3 -  RELEASE  -
|  1> ! HF-3c
|  2> !TightSCF
|  3> %scf
|  4>  ConvForced true
|  5>  convergence tight
|  6>  MaxIter 500
|  7> end
|  8>
|  9> %tddft
| 10>  nroots 1
| 11> end
| 12>
| 13> # 	25898
| 14> * xyz 0 1
| 15> 		C   -0.612094  -0.391812   0.079303
| 16> 		O   -0.501885  -1.596582  -0.061452
| 17> 		C    0.604413   0.410004  -0.083642
| 18> 		C    1.816019  -0.189497   0.045274
| 19> 		H   -1.639165   0.093717   0.383398
| 20> 		H    0.364075   1.451877  -0.119656
| 21> 		H    1.653980  -1.277160   0.428708
| 22> 		H    2.940085   0.359543  -0.235788
| 23> *
| 24>
| 25>                          ****END OF INPUT****

CARTESIAN COORDINATES (ANGSTROEM)
---------------------------------
  C     -0.612094   -0.391812    0.079303
  O     -0.501885   -1.596582   -0.061452
  C      0.604413    0.410004   -0.083642
  C      1.816019   -0.189497    0.045274
  H     -1.639165    0.093717    0.383398
  H      0.364075    1.451877   -0.119656
  H      1.653980   -1.277160    0.428708
  H      2.940085    0.359543   -0.235788

 Total Charge           Charge          ....    0
 Multiplicity           Mult            ....    1
 Number of Electrons    NEL             ....   30
 Basis Dimension        Dim             ....   24

ORBITAL ENERGIES
----------------

  NO   OCC          E(Eh)            E(eV)
   0   2.0000     -20.341037      -553.5078
   1   2.0000     -11.279798      -306.9389
   2   2.0000     -11.181975      -304.2770
   3   2.0000     -11.167536      -303.8841
   4   2.0000      -1.389141       -37.8004
   5   2.0000      -1.055929       -28.7333
   6   2.0000      -0.864081       -23.5128
   7   2.0000      -0.716007       -19.4835
   8   2.0000      -0.685095       -18.6424
   9   2.0000      -0.591597       -16.0982
  10   2.0000      -0.568121       -15.4594
  11   2.0000      -0.525515       -14.3000
  12   2.0000      -0.499821       -13.6008
  13   2.0000      -0.402402       -10.9499
  14   2.0000      -0.370969       -10.0946
  15   0.0000       0.139054         3.7838
  16   0.0000       0.306714         8.3461
  17   0.0000       0.441889        12.0244
  18   0.0000       0.526306        14.3215
  19   0.0000       0.630704        17.1623

MULLIKEN ATOMIC CHARGES
-----------------------
   0 C :    0.159976
   1 O :   -0.370471
   2 C :   -0.201784
   3 C :   -0.185204
   4 H :    0.138926
   5 H :    0.133194
   6 H :    0.166016
   7 H :    0.159348
Sum of atomic charges:    0.0000000

LOEWDIN ATOMIC CHARGES
----------------------
   0 C :    0.139652
   1 O :   -0.279552
   2 C :   -0.160507
   3 C :   -0.103917
   4 H :    0.082378
   5 H :    0.082653
   6 H :    0.117372
   7 H :    0.121921

  Mayer bond orders larger than 0.100000
B(  0-C ,  1-O ) :   1.8864 B(  0-C ,  2-C ) :   1.0401 B(  0-C ,  4-H ) :   0.9199
B(  2-C ,  3-C ) :   1.9269 B(  2-C ,  5-H ) :   0.9614 B(  3-C ,  6-H ) :   0.9461
B(  3-C ,  7-H ) :   0.9538

-----------------------------------------------------------------------------
         ABSORPTION SPECTRUM VIA TRANSITION ELECTRIC DIPOLE MOMENTS
-----------------------------------------------------------------------------
State   Energy    Wavelength  fosc         T2        TX        TY        TZ
        (cm-1)      (nm)                 (au**2)    (au)      (au)      (au)
-----------------------------------------------------------------------------
   1   32518.8    307.5   0.000163977   0.00166  -0.03536   0.00087   0.02022

Dispersion correction           -0.026028408
FINAL SINGLE POINT ENERGY      -189.298698064174

DIPOLE MOMENT
-------------
                                X             Y             Z
Electronic contribution:     -1.62723      -1.49512      -0.24573
Nuclear contribution   :      1.96156       2.37781       0.42962
                        -----------------------------------------
Total Dipole Moment    :      0.33433       0.88269       0.18389
                        -----------------------------------------
Magnitude (a.u.)       :      0.96163
Magnitude (Debye)      :      2.44426

Rotational constants in cm-1:     0.703156     0.224773     0.172580
Rotational constants in MHz : 21080.096878  6738.521829  5173.819885

                             ****ORCA TERMINATED NORMALLY****
TOTAL RUN TIME: 0 days 0 hours 0 minutes 16 seconds 90 msec
