                         Program Version 5.0.3 -  RELEASE  -
|  1> ! HF-3c
|  2> !TightSCF
|  3> %scf
|  4>  ConvForced true
|  5>  convergence tight
|  6>  MaxIter 500
|  7> end
|  8>
|  9> %tddft
| 10>  nroots 1
| 11> end
| 12>
| 13> # 	16054
| 14> * xyz 0 1
| 15> 		C   -1.174495  -0.404856  -0.077421
| 16> 		O   -1.778807  -1.003464  -0.917116
| 17> 		C    0.051853   0.433819  -0.291907
| 18> 		C    1.241396   0.064126   0.212391
| 19> 		H   -1.507175  -0.330058   0.980111
| 20> 		H   -0.172070   1.352967  -0.755253
| 21> 		H    1.260074  -0.837837   0.720354
| 22> 		H    2.024407   0.714321   0.089328
| 23> *
| 24>
| 25>                          ****END OF INPUT****

CARTESIAN COORDINATES (ANGSTROEM)
---------------------------------
  C     -1.174495   -0.404856   -0.077421
  O     -1.778807   -1.003464   -0.917116
  C      0.051853    0.433819   -0.291907
  C      1.241396    0.064126    0.212391
  H     -1.507175   -0.330058    0.980111
  H     -0.172070    1.352967   -0.755253
  H      1.260074   -0.837837    0.720354
  H      2.024407    0.714321    0.089328

 Total Charge           Charge          ....    0
 Multiplicity           Mult            ....    1
 Number of Electrons    NEL             ....   30
 Basis Dimension        Dim             ....   24

ORBITAL ENERGIES
----------------

  NO   OCC          E(Eh)            E(eV)
   0   2.0000     -20.387561      -554.7737
   1   2.0000     -11.306066      -307.6537
   2   2.0000     -11.194715      -304.6237
   3   2.0000     -11.186175      -304.3913
   4   2.0000      -1.421211       -38.6731
   5   2.0000      -1.088419       -29.6174
   6   2.0000      -0.895093       -24.3567
   7   2.0000      -0.777145       -21.1472
   8   2.0000      -0.692962       -18.8565
   9   2.0000      -0.649723       -17.6799
  10   2.0000      -0.612238       -16.6598
  11   2.0000      -0.577140       -15.7048
  12   2.0000      -0.517300       -14.0764
  13   2.0000      -0.418418       -11.3857
  14   2.0000      -0.400318       -10.8932
  15   0.0000       0.173523         4.7218
  16   0.0000       0.224589         6.1114
  17   0.0000       0.570141        15.5143
  18   0.0000       0.662863        18.0374
  19   0.0000       0.696408        18.9502

MULLIKEN ATOMIC CHARGES
-----------------------
   0 C :    0.177983
   1 O :   -0.343277
   2 C :   -0.151918
   3 C :   -0.266641
   4 H :    0.137513
   5 H :    0.151452
   6 H :    0.145554
   7 H :    0.149334
Sum of atomic charges:    0.0000000

LOEWDIN ATOMIC CHARGES
----------------------
   0 C :    0.154509
   1 O :   -0.241281
   2 C :   -0.103327
   3 C :   -0.165289
   4 H :    0.073565
   5 H :    0.095802
   6 H :    0.092107
   7 H :    0.093914

  Mayer bond orders larger than 0.100000
B(  0-C ,  1-O ) :   1.9557 B(  0-C ,  2-C ) :   0.9810 B(  0-C ,  4-H ) :   0.9147
B(  2-C ,  3-C ) :   1.9936 B(  2-C ,  5-H ) :   0.9540 B(  3-C ,  6-H ) :   0.9668
B(  3-C ,  7-H ) :   0.9654

-----------------------------------------------------------------------------
         ABSORPTION SPECTRUM VIA TRANSITION ELECTRIC DIPOLE MOMENTS
-----------------------------------------------------------------------------
State   Energy    Wavelength  fosc         T2        TX        TY        TZ
        (cm-1)      (nm)                 (au**2)    (au)      (au)      (au)
-----------------------------------------------------------------------------
   1   35333.9    283.0   0.000020621   0.00019  -0.01210  -0.00648  -0.00192

Dispersion correction           -0.025525334
FINAL SINGLE POINT ENERGY      -189.317417234899

DIPOLE MOMENT
-------------
                                X             Y             Z
Electronic contribution:     -2.68301      -1.23317      -1.32769
Nuclear contribution   :      3.18755       1.77175       1.99963
                        -----------------------------------------
Total Dipole Moment    :      0.50455       0.53857       0.67194
                        -----------------------------------------
Magnitude (a.u.)       :      0.99806
Magnitude (Debye)      :      2.53687

Rotational constants in cm-1:     1.178424     0.158144     0.153973
Rotational constants in MHz : 35328.262326  4741.030405  4615.990505

                             ****ORCA TERMINATED NORMALLY****
TOTAL RUN TIME: 0 days 0 hours 0 minutes 11 seconds 640 msec
