                         Program Version 5.0.3 -  RELEASE  -
|  1> ! B3LYP cc-pVDZ
|  2> !TightSCF
|  3> %scf
|  4>  ConvForced true
|  5>  convergence tight
|  6>  MaxIter 500
|  7> end
|  8>
|  9> %tddft
| 10>  nroots 1
| 11> end
| 12>
| 13> # 	30802
| 14> * xyz 0 1
| 15> 		C   -0.659839  -0.432027   0.037712
| 16> 		O   -0.557613  -1.653146  -0.007127
| 17> 		C    0.687413   0.443068   0.014758
| 18> 		C    1.830869  -0.118715   0.007409
| 19> 		H   -1.668006   0.015088  -0.332390
| 20> 		H    0.539992   1.502550  -0.032435
| 21> 		H    2.023916  -1.229885  -0.092992
| 22> 		H    2.784843   0.489219  -0.145831
| 23> *
| 24>
| 25>                          ****END OF INPUT****

CARTESIAN COORDINATES (ANGSTROEM)
---------------------------------
  C     -0.659839   -0.432027    0.037712
  O     -0.557613   -1.653146   -0.007127
  C      0.687413    0.443068    0.014758
  C      1.830869   -0.118715    0.007409
  H     -1.668006    0.015088   -0.332390
  H      0.539992    1.502550   -0.032435
  H      2.023916   -1.229885   -0.092992
  H      2.784843    0.489219   -0.145831

 Total Charge           Charge          ....    0
 Multiplicity           Mult            ....    1
 Number of Electrons    NEL             ....   30
 Basis Dimension        Dim             ....   76

ORBITAL ENERGIES
----------------

  NO   OCC          E(Eh)            E(eV)
   0   2.0000     -19.145043      -520.9631
   1   2.0000     -10.288726      -279.9705
   2   2.0000     -10.205796      -277.7138
   3   2.0000     -10.203128      -277.6412
   4   2.0000      -1.042016       -28.3547
   5   2.0000      -0.792913       -21.5763
   6   2.0000      -0.630617       -17.1600
   7   2.0000      -0.541976       -14.7479
   8   2.0000      -0.495703       -13.4888
   9   2.0000      -0.448159       -12.1950
  10   2.0000      -0.428650       -11.6642
  11   2.0000      -0.391848       -10.6627
  12   2.0000      -0.364380        -9.9153
  13   2.0000      -0.294927        -8.0254
  14   2.0000      -0.254852        -6.9349
  15   0.0000      -0.063692        -1.7331
  16   0.0000       0.041798         1.1374
  17   0.0000       0.067244         1.8298
  18   0.0000       0.088526         2.4089
  19   0.0000       0.110959         3.0193

MULLIKEN ATOMIC CHARGES
-----------------------
   0 C :    0.146908
   1 O :   -0.190082
   2 C :   -0.085529
   3 C :    0.041447
   4 H :    0.016836
   5 H :   -0.014314
   6 H :    0.046589
   7 H :    0.038146
Sum of atomic charges:    0.0000000

LOEWDIN ATOMIC CHARGES
----------------------
   0 C :   -0.009845
   1 O :   -0.013662
   2 C :   -0.080656
   3 C :   -0.010255
   4 H :    0.008120
   5 H :    0.021009
   6 H :    0.042580
   7 H :    0.042708

  Mayer bond orders larger than 0.100000
B(  0-C ,  1-O ) :   2.1768 B(  0-C ,  2-C ) :   0.9632 B(  0-C ,  4-H ) :   0.9073
B(  2-C ,  3-C ) :   2.0251 B(  2-C ,  5-H ) :   0.9418 B(  3-C ,  6-H ) :   0.9273
B(  3-C ,  7-H ) :   0.9346

-----------------------------------------------------------------------------
         ABSORPTION SPECTRUM VIA TRANSITION ELECTRIC DIPOLE MOMENTS
-----------------------------------------------------------------------------
State   Energy    Wavelength  fosc         T2        TX        TY        TZ
        (cm-1)      (nm)                 (au**2)    (au)      (au)      (au)
-----------------------------------------------------------------------------
   1   28216.6    354.4   0.001094514   0.01277   0.10559   0.00107   0.04025

FINAL SINGLE POINT ENERGY      -191.657213383881

DIPOLE MOMENT
-------------
                                X             Y             Z
Electronic contribution:     -2.07081      -1.67749       0.47934
Nuclear contribution   :      2.29510       2.51611      -0.56621
                        -----------------------------------------
Total Dipole Moment    :      0.22430       0.83862      -0.08688
                        -----------------------------------------
Magnitude (a.u.)       :      0.87243
Magnitude (Debye)      :      2.21755

Rotational constants in cm-1:     0.739846     0.202915     0.159735
Rotational constants in MHz : 22180.027194  6083.240322  4788.721010

                             ****ORCA TERMINATED NORMALLY****
TOTAL RUN TIME: 0 days 0 hours 3 minutes 17 seconds 245 msec
