                         Program Version 5.0.3 -  RELEASE  -
|  1> ! HF-3c
|  2> !TightSCF
|  3> %scf
|  4>  ConvForced true
|  5>  convergence tight
|  6>  MaxIter 500
|  7> end
|  8>
|  9> %tddft
| 10>  nroots 1
| 11> end
| 12>
| 13> # 	8614
| 14> * xyz 0 1
| 15> 		C   -1.190716  -0.384420  -0.020190
| 16> 		O   -1.822890  -0.928707   0.931953
| 17> 		C   -0.019363   0.462222   0.299173
| 18> 		C    1.152701   0.084055  -0.132639
| 19> 		H   -1.390863  -0.507914  -1.027334
| 20> 		H   -0.150534   1.358812   0.866221
| 21> 		H    1.229191  -0.795420  -0.685234
| 22> 		H    2.180130   0.688599  -0.180362
| 23> *
| 24>
| 25>                          ****END OF INPUT****

CARTESIAN COORDINATES (ANGSTROEM)
---------------------------------
  C     -1.190716   -0.384420   -0.020190
  O     -1.822890   -0.928707    0.931953
  C     -0.019363    0.462222    0.299173
  C      1.152701    0.084055   -0.132639
  H     -1.390863   -0.507914   -1.027334
  H     -0.150534    1.358812    0.866221
  H      1.229191   -0.795420   -0.685234
  H      2.180130    0.688599   -0.180362

 Total Charge           Charge          ....    0
 Multiplicity           Mult            ....    1
 Number of Electrons    NEL             ....   30
 Basis Dimension        Dim             ....   24

ORBITAL ENERGIES
----------------

  NO   OCC          E(Eh)            E(eV)
   0   2.0000     -20.368481      -554.2545
   1   2.0000     -11.293676      -307.3166
   2   2.0000     -11.193525      -304.5913
   3   2.0000     -11.182323      -304.2865
   4   2.0000      -1.372144       -37.3379
   5   2.0000      -1.092781       -29.7361
   6   2.0000      -0.886960       -24.1354
   7   2.0000      -0.789101       -21.4725
   8   2.0000      -0.679019       -18.4770
   9   2.0000      -0.636820       -17.3287
  10   2.0000      -0.596957       -16.2440
  11   2.0000      -0.532911       -14.5013
  12   2.0000      -0.490724       -13.3533
  13   2.0000      -0.426764       -11.6129
  14   2.0000      -0.403221       -10.9722
  15   0.0000       0.148837         4.0501
  16   0.0000       0.245850         6.6899
  17   0.0000       0.522563        14.2197
  18   0.0000       0.628246        17.0954
  19   0.0000       0.684256        18.6196

MULLIKEN ATOMIC CHARGES
-----------------------
   0 C :    0.144916
   1 O :   -0.321651
   2 C :   -0.175187
   3 C :   -0.232305
   4 H :    0.148823
   5 H :    0.157226
   6 H :    0.128803
   7 H :    0.149376
Sum of atomic charges:    0.0000000

LOEWDIN ATOMIC CHARGES
----------------------
   0 C :    0.147419
   1 O :   -0.242946
   2 C :   -0.123543
   3 C :   -0.145092
   4 H :    0.079245
   5 H :    0.101546
   6 H :    0.077531
   7 H :    0.105840

  Mayer bond orders larger than 0.100000
B(  0-C ,  1-O ) :   1.9370 B(  0-C ,  2-C ) :   1.0022 B(  0-C ,  4-H ) :   0.9331
B(  2-C ,  3-C ) :   1.9921 B(  2-C ,  5-H ) :   0.9489 B(  3-C ,  6-H ) :   0.9674
B(  3-C ,  7-H ) :   0.9587

-----------------------------------------------------------------------------
         ABSORPTION SPECTRUM VIA TRANSITION ELECTRIC DIPOLE MOMENTS
-----------------------------------------------------------------------------
State   Energy    Wavelength  fosc         T2        TX        TY        TZ
        (cm-1)      (nm)                 (au**2)    (au)      (au)      (au)
-----------------------------------------------------------------------------
   1   30208.7    331.0   0.000061879   0.00067   0.02376   0.00288  -0.01008

Dispersion correction           -0.025587121
FINAL SINGLE POINT ENERGY      -189.326891366606

DIPOLE MOMENT
-------------
                                X             Y             Z
Electronic contribution:     -2.94670      -1.04061       1.24953
Nuclear contribution   :      3.60511       1.50178      -2.00000
                        -----------------------------------------
Total Dipole Moment    :      0.65841       0.46117      -0.75046
                        -----------------------------------------
Magnitude (a.u.)       :      1.09971
Magnitude (Debye)      :      2.79525

Rotational constants in cm-1:     1.120773     0.162756     0.158566
Rotational constants in MHz : 33599.923665  4879.292367  4753.693775

                             ****ORCA TERMINATED NORMALLY****
TOTAL RUN TIME: 0 days 0 hours 0 minutes 15 seconds 682 msec
