                         Program Version 5.0.3 -  RELEASE  -
|  1> ! HF-3c
|  2> !TightSCF
|  3> %scf
|  4>  ConvForced true
|  5>  convergence tight
|  6>  MaxIter 500
|  7> end
|  8>
|  9> %tddft
| 10>  nroots 1
| 11> end
| 12>
| 13> # 	22317
| 14> * xyz 0 1
| 15> 		C   -0.607928  -0.459652   0.004434
| 16> 		O   -0.573513  -1.625953  -0.005764
| 17> 		C    0.620181   0.410786   0.031942
| 18> 		C    1.836659  -0.104498  -0.037003
| 19> 		H   -1.627376   0.160958  -0.043821
| 20> 		H    0.620244   1.535979  -0.105870
| 21> 		H    2.111873  -1.219641   0.184939
| 22> 		H    2.936688   0.427934   0.060333
| 23> *
| 24>
| 25>                          ****END OF INPUT****

CARTESIAN COORDINATES (ANGSTROEM)
---------------------------------
  C     -0.607928   -0.459652    0.004434
  O     -0.573513   -1.625953   -0.005764
  C      0.620181    0.410786    0.031942
  C      1.836659   -0.104498   -0.037003
  H     -1.627376    0.160958   -0.043821
  H      0.620244    1.535979   -0.105870
  H      2.111873   -1.219641    0.184939
  H      2.936688    0.427934    0.060333

 Total Charge           Charge          ....    0
 Multiplicity           Mult            ....    1
 Number of Electrons    NEL             ....   30
 Basis Dimension        Dim             ....   24

ORBITAL ENERGIES
----------------

  NO   OCC          E(Eh)            E(eV)
   0   2.0000     -20.378153      -554.5177
   1   2.0000     -11.307951      -307.7050
   2   2.0000     -11.178203      -304.1744
   3   2.0000     -11.175006      -304.0874
   4   2.0000      -1.434015       -39.0215
   5   2.0000      -1.059810       -28.8389
   6   2.0000      -0.858636       -23.3647
   7   2.0000      -0.724803       -19.7229
   8   2.0000      -0.691304       -18.8113
   9   2.0000      -0.613037       -16.6816
  10   2.0000      -0.574366       -15.6293
  11   2.0000      -0.557972       -15.1832
  12   2.0000      -0.484050       -13.1717
  13   2.0000      -0.400216       -10.8904
  14   2.0000      -0.391512       -10.6536
  15   0.0000       0.148809         4.0493
  16   0.0000       0.318704         8.6724
  17   0.0000       0.457134        12.4392
  18   0.0000       0.572826        15.5874
  19   0.0000       0.591156        16.0862

MULLIKEN ATOMIC CHARGES
-----------------------
   0 C :    0.197750
   1 O :   -0.366267
   2 C :   -0.198725
   3 C :   -0.187145
   4 H :    0.130299
   5 H :    0.143284
   6 H :    0.141160
   7 H :    0.139645
Sum of atomic charges:    0.0000000

LOEWDIN ATOMIC CHARGES
----------------------
   0 C :    0.159284
   1 O :   -0.255076
   2 C :   -0.162740
   3 C :   -0.104690
   4 H :    0.072767
   5 H :    0.096155
   6 H :    0.095017
   7 H :    0.099282

  Mayer bond orders larger than 0.100000
B(  0-C ,  1-O ) :   1.9267 B(  0-C ,  2-C ) :   0.9980 B(  0-C ,  4-H ) :   0.9063
B(  2-C ,  3-C ) :   1.9551 B(  2-C ,  5-H ) :   0.9549 B(  3-C ,  6-H ) :   0.9588
B(  3-C ,  7-H ) :   0.9601

-----------------------------------------------------------------------------
         ABSORPTION SPECTRUM VIA TRANSITION ELECTRIC DIPOLE MOMENTS
-----------------------------------------------------------------------------
State   Energy    Wavelength  fosc         T2        TX        TY        TZ
        (cm-1)      (nm)                 (au**2)    (au)      (au)      (au)
-----------------------------------------------------------------------------
   1   36048.7    277.4   0.000077244   0.00071   0.02502  -0.00058  -0.00890

Dispersion correction           -0.024925110
FINAL SINGLE POINT ENERGY      -189.291937488441

DIPOLE MOMENT
-------------
                                X             Y             Z
Electronic contribution:     -2.24570      -1.73279      -0.07150
Nuclear contribution   :      2.63361       2.63580       0.08982
                        -----------------------------------------
Total Dipole Moment    :      0.38791       0.90301       0.01832
                        -----------------------------------------
Magnitude (a.u.)       :      0.98297
Magnitude (Debye)      :      2.49852

Rotational constants in cm-1:     0.763930     0.205350     0.162096
Rotational constants in MHz : 22902.054313  6156.243159  4859.525127

                             ****ORCA TERMINATED NORMALLY****
TOTAL RUN TIME: 0 days 0 hours 0 minutes 12 seconds 494 msec
