                         Program Version 5.0.3 -  RELEASE  -
|  1> ! B3LYP cc-pVDZ
|  2> !TightSCF
|  3> %scf
|  4>  ConvForced true
|  5>  convergence tight
|  6>  MaxIter 500
|  7> end
|  8>
|  9> %tddft
| 10>  nroots 1
| 11> end
| 12>
| 13> # 	18945
| 14> * xyz 0 1
| 15> 		C   -1.230980  -0.353592   0.028539
| 16> 		O   -1.507828  -1.360714   0.612031
| 17> 		C   -0.016458   0.452023   0.187681
| 18> 		C    1.222938   0.055688  -0.103976
| 19> 		H   -1.804148   0.022105  -0.850462
| 20> 		H   -0.135972   1.468325   0.485922
| 21> 		H    1.429234  -0.979713  -0.375449
| 22> 		H    2.091423   0.717173   0.020649
| 23> *
| 24>
| 25>                          ****END OF INPUT****

CARTESIAN COORDINATES (ANGSTROEM)
---------------------------------
  C     -1.230980   -0.353592    0.028539
  O     -1.507828   -1.360714    0.612031
  C     -0.016458    0.452023    0.187681
  C      1.222938    0.055688   -0.103976
  H     -1.804148    0.022105   -0.850462
  H     -0.135972    1.468325    0.485922
  H      1.429234   -0.979713   -0.375449
  H      2.091423    0.717173    0.020649

 Total Charge           Charge          ....    0
 Multiplicity           Mult            ....    1
 Number of Electrons    NEL             ....   30
 Basis Dimension        Dim             ....   76

ORBITAL ENERGIES
----------------

  NO   OCC          E(Eh)            E(eV)
   0   2.0000     -19.146895      -521.0135
   1   2.0000     -10.280547      -279.7479
   2   2.0000     -10.206572      -277.7349
   3   2.0000     -10.201588      -277.5993
   4   2.0000      -1.059916       -28.8418
   5   2.0000      -0.798507       -21.7285
   6   2.0000      -0.660245       -17.9662
   7   2.0000      -0.552260       -15.0278
   8   2.0000      -0.501407       -13.6440
   9   2.0000      -0.455659       -12.3991
  10   2.0000      -0.448951       -12.2166
  11   2.0000      -0.394334       -10.7304
  12   2.0000      -0.376883       -10.2555
  13   2.0000      -0.287085        -7.8120
  14   2.0000      -0.258089        -7.0230
  15   0.0000      -0.042467        -1.1556
  16   0.0000       0.004684         0.1275
  17   0.0000       0.078319         2.1312
  18   0.0000       0.096726         2.6321
  19   0.0000       0.108500         2.9524

MULLIKEN ATOMIC CHARGES
-----------------------
   0 C :    0.175774
   1 O :   -0.167373
   2 C :   -0.081298
   3 C :    0.029416
   4 H :   -0.013044
   5 H :    0.000645
   6 H :    0.023606
   7 H :    0.032274
Sum of atomic charges:   -0.0000000

LOEWDIN ATOMIC CHARGES
----------------------
   0 C :   -0.036604
   1 O :    0.025119
   2 C :   -0.061830
   3 C :   -0.015327
   4 H :   -0.003967
   5 H :    0.030960
   6 H :    0.027707
   7 H :    0.033942

  Mayer bond orders larger than 0.100000
B(  0-C ,  1-O ) :   2.2508 B(  0-C ,  2-C ) :   0.9966 B(  0-C ,  4-H ) :   0.9039
B(  2-C ,  3-C ) :   2.0431 B(  2-C ,  5-H ) :   0.9291 B(  3-C ,  6-H ) :   0.9455
B(  3-C ,  7-H ) :   0.9422

-----------------------------------------------------------------------------
         ABSORPTION SPECTRUM VIA TRANSITION ELECTRIC DIPOLE MOMENTS
-----------------------------------------------------------------------------
State   Energy    Wavelength  fosc         T2        TX        TY        TZ
        (cm-1)      (nm)                 (au**2)    (au)      (au)      (au)
-----------------------------------------------------------------------------
   1   32861.5    304.3   0.000199682   0.00200   0.03538   0.00074  -0.02736

FINAL SINGLE POINT ENERGY      -191.647561742240

DIPOLE MOMENT
-------------
                                X             Y             Z
Electronic contribution:     -2.55451      -1.62917       0.99795
Nuclear contribution   :      2.99435       2.38723      -1.36570
                        -----------------------------------------
Total Dipole Moment    :      0.43984       0.75805      -0.36775
                        -----------------------------------------
Magnitude (a.u.)       :      0.95044
Magnitude (Debye)      :      2.41584

Rotational constants in cm-1:     0.933824     0.177437     0.158232
Rotational constants in MHz : 27995.349995  5319.436877  4743.674016

                             ****ORCA TERMINATED NORMALLY****
TOTAL RUN TIME: 0 days 0 hours 3 minutes 22 seconds 754 msec
