                         Program Version 5.0.3 -  RELEASE  -
|  1> ! B3LYP cc-pVDZ
|  2> !TightSCF
|  3> %scf
|  4>  ConvForced true
|  5>  convergence tight
|  6>  MaxIter 500
|  7> end
|  8>
|  9> %tddft
| 10>  nroots 1
| 11> end
| 12>
| 13> # 	22145
| 14> * xyz 0 1
| 15> 		C   -0.571215  -0.412505  -0.044049
| 16> 		O   -0.570103  -1.632137   0.028560
| 17> 		C    0.638804   0.390661   0.022137
| 18> 		C    1.785737  -0.103190   0.005792
| 19> 		H   -1.549587   0.120892  -0.112636
| 20> 		H    0.539934   1.494902   0.126747
| 21> 		H    2.038306  -1.246828  -0.230980
| 22> 		H    2.898345   0.297157  -0.035196
| 23> *
| 24>
| 25>                          ****END OF INPUT****

CARTESIAN COORDINATES (ANGSTROEM)
---------------------------------
  C     -0.571215   -0.412505   -0.044049
  O     -0.570103   -1.632137    0.028560
  C      0.638804    0.390661    0.022137
  C      1.785737   -0.103190    0.005792
  H     -1.549587    0.120892   -0.112636
  H      0.539934    1.494902    0.126747
  H      2.038306   -1.246828   -0.230980
  H      2.898345    0.297157   -0.035196

 Total Charge           Charge          ....    0
 Multiplicity           Mult            ....    1
 Number of Electrons    NEL             ....   30
 Basis Dimension        Dim             ....   76

ORBITAL ENERGIES
----------------

  NO   OCC          E(Eh)            E(eV)
   0   2.0000     -19.137057      -520.7458
   1   2.0000     -10.275695      -279.6159
   2   2.0000     -10.217862      -278.0421
   3   2.0000     -10.199651      -277.5466
   4   2.0000      -1.040447       -28.3120
   5   2.0000      -0.811845       -22.0914
   6   2.0000      -0.654382       -17.8066
   7   2.0000      -0.541483       -14.7345
   8   2.0000      -0.506290       -13.7769
   9   2.0000      -0.458423       -12.4743
  10   2.0000      -0.421847       -11.4790
  11   2.0000      -0.399391       -10.8680
  12   2.0000      -0.340219        -9.2578
  13   2.0000      -0.301183        -8.1956
  14   2.0000      -0.256815        -6.9883
  15   0.0000      -0.065600        -1.7851
  16   0.0000       0.055040         1.4977
  17   0.0000       0.067314         1.8317
  18   0.0000       0.081934         2.2295
  19   0.0000       0.118629         3.2281

MULLIKEN ATOMIC CHARGES
-----------------------
   0 C :    0.185146
   1 O :   -0.194903
   2 C :   -0.060774
   3 C :   -0.002375
   4 H :   -0.016333
   5 H :   -0.002477
   6 H :    0.045714
   7 H :    0.046002
Sum of atomic charges:   -0.0000000

LOEWDIN ATOMIC CHARGES
----------------------
   0 C :   -0.021525
   1 O :   -0.010803
   2 C :   -0.104691
   3 C :    0.001793
   4 H :   -0.001252
   5 H :    0.040506
   6 H :    0.047547
   7 H :    0.048424

  Mayer bond orders larger than 0.100000
B(  0-C ,  1-O ) :   2.1967 B(  0-C ,  2-C ) :   1.0493 B(  0-C ,  4-H ) :   0.9213
B(  2-C ,  3-C ) :   1.9637 B(  2-C ,  5-H ) :   0.9326 B(  3-C ,  6-H ) :   0.9288
B(  3-C ,  7-H ) :   0.9484

-----------------------------------------------------------------------------
         ABSORPTION SPECTRUM VIA TRANSITION ELECTRIC DIPOLE MOMENTS
-----------------------------------------------------------------------------
State   Energy    Wavelength  fosc         T2        TX        TY        TZ
        (cm-1)      (nm)                 (au**2)    (au)      (au)      (au)
-----------------------------------------------------------------------------
   1   28411.1    352.0   0.000103798   0.00120  -0.00892   0.00446  -0.03322

FINAL SINGLE POINT ENERGY      -191.649300800124

DIPOLE MOMENT
-------------
                                X             Y             Z
Electronic contribution:     -2.11975      -1.52639       0.15891
Nuclear contribution   :      2.52683       2.41136      -0.23668
                        -----------------------------------------
Total Dipole Moment    :      0.40708       0.88497      -0.07777
                        -----------------------------------------
Magnitude (a.u.)       :      0.97721
Magnitude (Debye)      :      2.48387

Rotational constants in cm-1:     0.778326     0.214280     0.168447
Rotational constants in MHz : 23333.616084  6423.956362  5049.922127

                             ****ORCA TERMINATED NORMALLY****
TOTAL RUN TIME: 0 days 0 hours 3 minutes 20 seconds 414 msec
