                         Program Version 5.0.3 -  RELEASE  -
|  1> ! B3LYP cc-pVDZ
|  2> !TightSCF
|  3> %scf
|  4>  ConvForced true
|  5>  convergence tight
|  6>  MaxIter 500
|  7> end
|  8>
|  9> %tddft
| 10>  nroots 1
| 11> end
| 12>
| 13> # 	19899
| 14> * xyz 0 1
| 15> 		C   -1.221275  -0.359486   0.012720
| 16> 		O   -2.207900  -0.290464   0.595563
| 17> 		C    0.058566   0.388542   0.377837
| 18> 		C    1.183184   0.246811  -0.298443
| 19> 		H   -1.157833  -1.124659  -0.885132
| 20> 		H    0.083746   0.775368   1.409933
| 21> 		H    1.151268  -0.248002  -1.239221
| 22> 		H    2.125726   0.581447  -0.052955
| 23> *
| 24>
| 25>                          ****END OF INPUT****

CARTESIAN COORDINATES (ANGSTROEM)
---------------------------------
  C     -1.221275   -0.359486    0.012720
  O     -2.207900   -0.290464    0.595563
  C      0.058566    0.388542    0.377837
  C      1.183184    0.246811   -0.298443
  H     -1.157833   -1.124659   -0.885132
  H      0.083746    0.775368    1.409933
  H      1.151268   -0.248002   -1.239221
  H      2.125726    0.581447   -0.052955

 Total Charge           Charge          ....    0
 Multiplicity           Mult            ....    1
 Number of Electrons    NEL             ....   30
 Basis Dimension        Dim             ....   76

ORBITAL ENERGIES
----------------

  NO   OCC          E(Eh)            E(eV)
   0   2.0000     -19.142419      -520.8917
   1   2.0000     -10.279835      -279.7285
   2   2.0000     -10.206461      -277.7319
   3   2.0000     -10.204521      -277.6791
   4   2.0000      -1.086444       -29.5636
   5   2.0000      -0.799690       -21.7607
   6   2.0000      -0.640144       -17.4192
   7   2.0000      -0.561781       -15.2868
   8   2.0000      -0.484801       -13.1921
   9   2.0000      -0.479404       -13.0452
  10   2.0000      -0.434167       -11.8143
  11   2.0000      -0.418268       -11.3816
  12   2.0000      -0.383920       -10.4470
  13   2.0000      -0.296867        -8.0782
  14   2.0000      -0.254500        -6.9253
  15   0.0000      -0.053076        -1.4443
  16   0.0000       0.048105         1.3090
  17   0.0000       0.081603         2.2205
  18   0.0000       0.086079         2.3423
  19   0.0000       0.118475         3.2239

MULLIKEN ATOMIC CHARGES
-----------------------
   0 C :    0.137419
   1 O :   -0.129806
   2 C :   -0.117209
   3 C :    0.111966
   4 H :   -0.033758
   5 H :    0.008447
   6 H :    0.010913
   7 H :    0.012028
Sum of atomic charges:   -0.0000000

LOEWDIN ATOMIC CHARGES
----------------------
   0 C :   -0.074301
   1 O :    0.063207
   2 C :   -0.063631
   3 C :    0.013738
   4 H :   -0.013085
   5 H :    0.033816
   6 H :    0.023072
   7 H :    0.017183

  Mayer bond orders larger than 0.100000
B(  0-C ,  1-O ) :   2.2546 B(  0-C ,  2-C ) :   1.0061 B(  0-C ,  4-H ) :   0.8959
B(  2-C ,  3-C ) :   1.9700 B(  2-C ,  5-H ) :   0.9460 B(  3-C ,  6-H ) :   0.9388
B(  3-C ,  7-H ) :   0.9438

-----------------------------------------------------------------------------
         ABSORPTION SPECTRUM VIA TRANSITION ELECTRIC DIPOLE MOMENTS
-----------------------------------------------------------------------------
State   Energy    Wavelength  fosc         T2        TX        TY        TZ
        (cm-1)      (nm)                 (au**2)    (au)      (au)      (au)
-----------------------------------------------------------------------------
   1   31846.3    314.0   0.000493326   0.00510  -0.06558  -0.01468  -0.02415

FINAL SINGLE POINT ENERGY      -191.649576080017

DIPOLE MOMENT
-------------
                                X             Y             Z
Electronic contribution:     -3.28689      -0.03726       1.07973
Nuclear contribution   :      4.24210       0.07154      -1.37380
                        -----------------------------------------
Total Dipole Moment    :      0.95521       0.03427      -0.29408
                        -----------------------------------------
Magnitude (a.u.)       :      1.00004
Magnitude (Debye)      :      2.54189

Rotational constants in cm-1:     1.602585     0.154476     0.141185
Rotational constants in MHz : 48044.280015  4631.084449  4232.623934

                             ****ORCA TERMINATED NORMALLY****
TOTAL RUN TIME: 0 days 0 hours 3 minutes 26 seconds 476 msec
