                         Program Version 5.0.3 -  RELEASE  -
|  1> ! HF-3c
|  2> !TightSCF
|  3> %scf
|  4>  ConvForced true
|  5>  convergence tight
|  6>  MaxIter 500
|  7> end
|  8>
|  9> %tddft
| 10>  nroots 1
| 11> end
| 12>
| 13> # 	1407
| 14> * xyz 0 1
| 15> 		C   -1.267439  -0.332257  -0.002108
| 16> 		O   -1.315056  -1.364750   0.514363
| 17> 		C   -0.044978   0.525248   0.105482
| 18> 		C    1.167283   0.014940  -0.206682
| 19> 		H   -2.045866   0.196382  -0.616641
| 20> 		H   -0.092778   1.579214   0.500446
| 21> 		H    1.217121  -1.152336  -0.455866
| 22> 		H    2.303189   0.460978   0.177930
| 23> *
| 24>
| 25>                          ****END OF INPUT****

CARTESIAN COORDINATES (ANGSTROEM)
---------------------------------
  C     -1.267439   -0.332257   -0.002108
  O     -1.315056   -1.364750    0.514363
  C     -0.044978    0.525248    0.105482
  C      1.167283    0.014940   -0.206682
  H     -2.045866    0.196382   -0.616641
  H     -0.092778    1.579214    0.500446
  H      1.217121   -1.152336   -0.455866
  H      2.303189    0.460978    0.177930

 Total Charge           Charge          ....    0
 Multiplicity           Mult            ....    1
 Number of Electrons    NEL             ....   30
 Basis Dimension        Dim             ....   24

ORBITAL ENERGIES
----------------

  NO   OCC          E(Eh)            E(eV)
   0   2.0000     -20.395312      -554.9846
   1   2.0000     -11.315259      -307.9039
   2   2.0000     -11.164997      -303.8150
   3   2.0000     -11.163446      -303.7728
   4   2.0000      -1.451804       -39.5056
   5   2.0000      -1.048985       -28.5443
   6   2.0000      -0.862610       -23.4728
   7   2.0000      -0.730440       -19.8763
   8   2.0000      -0.689197       -18.7540
   9   2.0000      -0.621342       -16.9076
  10   2.0000      -0.592083       -16.1114
  11   2.0000      -0.530820       -14.4444
  12   2.0000      -0.493833       -13.4379
  13   2.0000      -0.402703       -10.9581
  14   2.0000      -0.379701       -10.3322
  15   0.0000       0.167245         4.5510
  16   0.0000       0.268771         7.3136
  17   0.0000       0.474746        12.9185
  18   0.0000       0.553732        15.0678
  19   0.0000       0.600552        16.3418

MULLIKEN ATOMIC CHARGES
-----------------------
   0 C :    0.191924
   1 O :   -0.354071
   2 C :   -0.189093
   3 C :   -0.200640
   4 H :    0.136842
   5 H :    0.141143
   6 H :    0.132416
   7 H :    0.141478
Sum of atomic charges:    0.0000000

LOEWDIN ATOMIC CHARGES
----------------------
   0 C :    0.159018
   1 O :   -0.237957
   2 C :   -0.154471
   3 C :   -0.130409
   4 H :    0.072233
   5 H :    0.094623
   6 H :    0.091220
   7 H :    0.105743

  Mayer bond orders larger than 0.100000
B(  0-C ,  1-O ) :   1.9456 B(  0-C ,  2-C ) :   0.9833 B(  0-C ,  4-H ) :   0.9088
B(  2-C ,  3-C ) :   1.9786 B(  2-C ,  5-H ) :   0.9525 B(  3-C ,  6-H ) :   0.9587
B(  3-C ,  7-H ) :   0.9557

-----------------------------------------------------------------------------
         ABSORPTION SPECTRUM VIA TRANSITION ELECTRIC DIPOLE MOMENTS
-----------------------------------------------------------------------------
State   Energy    Wavelength  fosc         T2        TX        TY        TZ
        (cm-1)      (nm)                 (au**2)    (au)      (au)      (au)
-----------------------------------------------------------------------------
   1   37160.9    269.1   0.000037995   0.00034  -0.01790  -0.00087   0.00392

Dispersion correction           -0.025168540
FINAL SINGLE POINT ENERGY      -189.271589785551

DIPOLE MOMENT
-------------
                                X             Y             Z
Electronic contribution:     -2.40769      -1.46731       0.47725
Nuclear contribution   :      2.71421       2.22304      -0.80508
                        -----------------------------------------
Total Dipole Moment    :      0.30652       0.75572      -0.32783
                        -----------------------------------------
Magnitude (a.u.)       :      0.87895
Magnitude (Debye)      :      2.23410

Rotational constants in cm-1:     0.780085     0.198044     0.166955
Rotational constants in MHz : 23386.359687  5937.206008  5005.170723

                             ****ORCA TERMINATED NORMALLY****
TOTAL RUN TIME: 0 days 0 hours 0 minutes 13 seconds 823 msec
