                         Program Version 5.0.3 -  RELEASE  -
|  1> ! HF-3c
|  2> !TightSCF
|  3> %scf
|  4>  ConvForced true
|  5>  convergence tight
|  6>  MaxIter 500
|  7> end
|  8>
|  9> %tddft
| 10>  nroots 1
| 11> end
| 12>
| 13> # 	25991
| 14> * xyz 0 1
| 15> 		C   -0.582455  -0.450896  -0.025195
| 16> 		O   -0.528641  -1.607519   0.022586
| 17> 		C    0.573628   0.484726   0.014971
| 18> 		C    1.855673  -0.197452  -0.007728
| 19> 		H   -1.513766   0.204150  -0.132295
| 20> 		H    0.386674   1.539988   0.103107
| 21> 		H    1.772571  -1.304248  -0.178755
| 22> 		H    2.663504   0.281295   0.076882
| 23> *
| 24>
| 25>                          ****END OF INPUT****

CARTESIAN COORDINATES (ANGSTROEM)
---------------------------------
  C     -0.582455   -0.450896   -0.025195
  O     -0.528641   -1.607519    0.022586
  C      0.573628    0.484726    0.014971
  C      1.855673   -0.197452   -0.007728
  H     -1.513766    0.204150   -0.132295
  H      0.386674    1.539988    0.103107
  H      1.772571   -1.304248   -0.178755
  H      2.663504    0.281295    0.076882

 Total Charge           Charge          ....    0
 Multiplicity           Mult            ....    1
 Number of Electrons    NEL             ....   30
 Basis Dimension        Dim             ....   24

ORBITAL ENERGIES
----------------

  NO   OCC          E(Eh)            E(eV)
   0   2.0000     -20.379710      -554.5601
   1   2.0000     -11.306378      -307.6622
   2   2.0000     -11.190781      -304.5166
   3   2.0000     -11.175474      -304.1001
   4   2.0000      -1.441153       -39.2158
   5   2.0000      -1.053173       -28.6583
   6   2.0000      -0.899174       -24.4678
   7   2.0000      -0.747323       -20.3357
   8   2.0000      -0.708789       -19.2871
   9   2.0000      -0.619448       -16.8560
  10   2.0000      -0.600224       -16.3329
  11   2.0000      -0.562606       -15.3093
  12   2.0000      -0.549280       -14.9467
  13   2.0000      -0.400857       -10.9079
  14   2.0000      -0.368347       -10.0232
  15   0.0000       0.119160         3.2425
  16   0.0000       0.300125         8.1668
  17   0.0000       0.573741        15.6123
  18   0.0000       0.618750        16.8370
  19   0.0000       0.628548        17.1037

MULLIKEN ATOMIC CHARGES
-----------------------
   0 C :    0.190740
   1 O :   -0.374388
   2 C :   -0.164640
   3 C :   -0.224471
   4 H :    0.123748
   5 H :    0.140109
   6 H :    0.172264
   7 H :    0.136639
Sum of atomic charges:    0.0000000

LOEWDIN ATOMIC CHARGES
----------------------
   0 C :    0.155444
   1 O :   -0.260858
   2 C :   -0.128751
   3 C :   -0.112945
   4 H :    0.062460
   5 H :    0.088491
   6 H :    0.119604
   7 H :    0.076555

  Mayer bond orders larger than 0.100000
B(  0-C ,  1-O ) :   1.9088 B(  0-C ,  2-C ) :   1.0217 B(  0-C ,  4-H ) :   0.9099
B(  2-C ,  3-C ) :   1.9195 B(  2-C ,  5-H ) :   0.9666 B(  3-C ,  6-H ) :   0.9565
B(  3-C ,  7-H ) :   0.9752

-----------------------------------------------------------------------------
         ABSORPTION SPECTRUM VIA TRANSITION ELECTRIC DIPOLE MOMENTS
-----------------------------------------------------------------------------
State   Energy    Wavelength  fosc         T2        TX        TY        TZ
        (cm-1)      (nm)                 (au**2)    (au)      (au)      (au)
-----------------------------------------------------------------------------
   1   34981.9    285.9   0.000008022   0.00008  -0.00635  -0.00360  -0.00472

Dispersion correction           -0.026114152
FINAL SINGLE POINT ENERGY      -189.284400054998

DIPOLE MOMENT
-------------
                                X             Y             Z
Electronic contribution:     -1.72297      -1.60739       0.06968
Nuclear contribution   :      1.95015       2.46433      -0.12354
                        -----------------------------------------
Total Dipole Moment    :      0.22718       0.85694      -0.05386
                        -----------------------------------------
Magnitude (a.u.)       :      0.88818
Magnitude (Debye)      :      2.25757

Rotational constants in cm-1:     0.685482     0.223679     0.168937
Rotational constants in MHz : 20550.218745  6705.722186  5064.604719

                             ****ORCA TERMINATED NORMALLY****
TOTAL RUN TIME: 0 days 0 hours 0 minutes 10 seconds 710 msec
