                         Program Version 5.0.3 -  RELEASE  -
|  1> ! B3LYP cc-pVDZ
|  2> !TightSCF
|  3> %scf
|  4>  ConvForced true
|  5>  convergence tight
|  6>  MaxIter 500
|  7> end
|  8>
|  9> %tddft
| 10>  nroots 1
| 11> end
| 12>
| 13> # 	14584
| 14> * xyz 0 1
| 15> 		C   -1.268648  -0.354912  -0.045041
| 16> 		O   -1.304026  -1.462340   0.240067
| 17> 		C    0.039554   0.357401   0.098712
| 18> 		C    1.246931   0.037714  -0.098772
| 19> 		H   -2.228721   0.241094  -0.511461
| 20> 		H   -0.186156   1.461942   0.398201
| 21> 		H    1.485058  -0.993455  -0.310640
| 22> 		H    2.316159   0.678137   0.164355
| 23> *
| 24>
| 25>                          ****END OF INPUT****

CARTESIAN COORDINATES (ANGSTROEM)
---------------------------------
  C     -1.268648   -0.354912   -0.045041
  O     -1.304026   -1.462340    0.240067
  C      0.039554    0.357401    0.098712
  C      1.246931    0.037714   -0.098772
  H     -2.228721    0.241094   -0.511461
  H     -0.186156    1.461942    0.398201
  H      1.485058   -0.993455   -0.310640
  H      2.316159    0.678137    0.164355

 Total Charge           Charge          ....    0
 Multiplicity           Mult            ....    1
 Number of Electrons    NEL             ....   30
 Basis Dimension        Dim             ....   76

ORBITAL ENERGIES
----------------

  NO   OCC          E(Eh)            E(eV)
   0   2.0000     -19.147226      -521.0225
   1   2.0000     -10.287012      -279.9238
   2   2.0000     -10.212495      -277.8961
   3   2.0000     -10.201676      -277.6017
   4   2.0000      -1.095678       -29.8149
   5   2.0000      -0.798298       -21.7228
   6   2.0000      -0.644236       -17.5305
   7   2.0000      -0.531244       -14.4559
   8   2.0000      -0.501798       -13.6546
   9   2.0000      -0.459869       -12.5137
  10   2.0000      -0.445960       -12.1352
  11   2.0000      -0.411094       -11.1864
  12   2.0000      -0.351294        -9.5592
  13   2.0000      -0.300351        -8.1730
  14   2.0000      -0.255977        -6.9655
  15   0.0000      -0.046683        -1.2703
  16   0.0000       0.035966         0.9787
  17   0.0000       0.055282         1.5043
  18   0.0000       0.082593         2.2475
  19   0.0000       0.103240         2.8093

MULLIKEN ATOMIC CHARGES
-----------------------
   0 C :    0.114968
   1 O :   -0.113160
   2 C :   -0.071887
   3 C :   -0.006515
   4 H :   -0.010979
   5 H :    0.003383
   6 H :    0.021825
   7 H :    0.062364
Sum of atomic charges:    0.0000000

LOEWDIN ATOMIC CHARGES
----------------------
   0 C :   -0.077569
   1 O :    0.074363
   2 C :   -0.090261
   3 C :   -0.031241
   4 H :   -0.000576
   5 H :    0.037369
   6 H :    0.025146
   7 H :    0.062768

  Mayer bond orders larger than 0.100000
B(  0-C ,  1-O ) :   2.2832 B(  0-C ,  2-C ) :   0.9803 B(  0-C ,  4-H ) :   0.8807
B(  2-C ,  3-C ) :   2.0447 B(  2-C ,  5-H ) :   0.9115 B(  3-C ,  6-H ) :   0.9223
B(  3-C ,  7-H ) :   0.9308

-----------------------------------------------------------------------------
         ABSORPTION SPECTRUM VIA TRANSITION ELECTRIC DIPOLE MOMENTS
-----------------------------------------------------------------------------
State   Energy    Wavelength  fosc         T2        TX        TY        TZ
        (cm-1)      (nm)                 (au**2)    (au)      (au)      (au)
-----------------------------------------------------------------------------
   1   32814.7    304.7   0.000586922   0.00589   0.06420  -0.01382   0.03969

FINAL SINGLE POINT ENERGY      -191.609634650838

DIPOLE MOMENT
-------------
                                X             Y             Z
Electronic contribution:     -2.28748      -2.09494       0.31188
Nuclear contribution   :      2.57504       2.72605      -0.44407
                        -----------------------------------------
Total Dipole Moment    :      0.28756       0.63112      -0.13219
                        -----------------------------------------
Magnitude (a.u.)       :      0.70603
Magnitude (Debye)      :      1.79458

Rotational constants in cm-1:     0.894690     0.191642     0.161637
Rotational constants in MHz : 26822.128184  5745.296718  4845.747505

                             ****ORCA TERMINATED NORMALLY****
TOTAL RUN TIME: 0 days 0 hours 3 minutes 16 seconds 4 msec
