                         Program Version 5.0.3 -  RELEASE  -
|  1> ! B3LYP cc-pVDZ
|  2> !TightSCF
|  3> %scf
|  4>  ConvForced true
|  5>  convergence tight
|  6>  MaxIter 500
|  7> end
|  8>
|  9> %tddft
| 10>  nroots 1
| 11> end
| 12>
| 13> # 	30013
| 14> * xyz 0 1
| 15> 		C   -0.614253  -0.456996   0.001755
| 16> 		O   -0.581852  -1.618463  -0.009013
| 17> 		C    0.616893   0.447397   0.009621
| 18> 		C    1.891280  -0.163523   0.023916
| 19> 		H   -1.467445   0.140282  -0.032437
| 20> 		H    0.296305   1.397676  -0.010254
| 21> 		H    2.111190  -1.222524   0.066737
| 22> 		H    2.669737   0.709309  -0.319758
| 23> *
| 24>
| 25>                          ****END OF INPUT****

CARTESIAN COORDINATES (ANGSTROEM)
---------------------------------
  C     -0.614253   -0.456996    0.001755
  O     -0.581852   -1.618463   -0.009013
  C      0.616893    0.447397    0.009621
  C      1.891280   -0.163523    0.023916
  H     -1.467445    0.140282   -0.032437
  H      0.296305    1.397676   -0.010254
  H      2.111190   -1.222524    0.066737
  H      2.669737    0.709309   -0.319758

 Total Charge           Charge          ....    0
 Multiplicity           Mult            ....    1
 Number of Electrons    NEL             ....   30
 Basis Dimension        Dim             ....   76

ORBITAL ENERGIES
----------------

  NO   OCC          E(Eh)            E(eV)
   0   2.0000     -19.136301      -520.7252
   1   2.0000     -10.261929      -279.2413
   2   2.0000     -10.231329      -278.4086
   3   2.0000     -10.201467      -277.5960
   4   2.0000      -1.071024       -29.1440
   5   2.0000      -0.775808       -21.1108
   6   2.0000      -0.657885       -17.9020
   7   2.0000      -0.550867       -14.9899
   8   2.0000      -0.497373       -13.5342
   9   2.0000      -0.458033       -12.4637
  10   2.0000      -0.422937       -11.5087
  11   2.0000      -0.409206       -11.1350
  12   2.0000      -0.379704       -10.3323
  13   2.0000      -0.275418        -7.4945
  14   2.0000      -0.247785        -6.7426
  15   0.0000      -0.069655        -1.8954
  16   0.0000       0.054592         1.4855
  17   0.0000       0.064866         1.7651
  18   0.0000       0.082763         2.2521
  19   0.0000       0.129049         3.5116

MULLIKEN ATOMIC CHARGES
-----------------------
   0 C :    0.197791
   1 O :   -0.153865
   2 C :   -0.072345
   3 C :    0.015147
   4 H :   -0.054880
   5 H :   -0.045471
   6 H :    0.054434
   7 H :    0.059189
Sum of atomic charges:   -0.0000000

LOEWDIN ATOMIC CHARGES
----------------------
   0 C :   -0.061442
   1 O :    0.044529
   2 C :   -0.058510
   3 C :    0.012991
   4 H :   -0.024229
   5 H :   -0.002459
   6 H :    0.031758
   7 H :    0.057362

  Mayer bond orders larger than 0.100000
B(  0-C ,  1-O ) :   2.2585 B(  0-C ,  2-C ) :   1.0593 B(  0-C ,  4-H ) :   0.9139
B(  2-C ,  3-C ) :   1.9151 B(  2-C ,  5-H ) :   0.9555 B(  3-C ,  6-H ) :   0.9407
B(  3-C ,  7-H ) :   0.9453

-----------------------------------------------------------------------------
         ABSORPTION SPECTRUM VIA TRANSITION ELECTRIC DIPOLE MOMENTS
-----------------------------------------------------------------------------
State   Energy    Wavelength  fosc         T2        TX        TY        TZ
        (cm-1)      (nm)                 (au**2)    (au)      (au)      (au)
-----------------------------------------------------------------------------
   1   27082.3    369.2   0.000097979   0.00119   0.02115  -0.01255   0.02421

FINAL SINGLE POINT ENERGY      -191.642491854747

DIPOLE MOMENT
-------------
                                X             Y             Z
Electronic contribution:     -1.96327      -1.95272       0.22374
Nuclear contribution   :      2.23041       2.74783      -0.27633
                        -----------------------------------------
Total Dipole Moment    :      0.26714       0.79511      -0.05259
                        -----------------------------------------
Magnitude (a.u.)       :      0.84043
Magnitude (Debye)      :      2.13621

Rotational constants in cm-1:     0.732891     0.206464     0.161447
Rotational constants in MHz : 21971.521686  6189.629929  4840.063453

                             ****ORCA TERMINATED NORMALLY****
TOTAL RUN TIME: 0 days 0 hours 3 minutes 9 seconds 855 msec
