                         Program Version 5.0.3 -  RELEASE  -
|  1> ! HF-3c
|  2> !TightSCF
|  3> %scf
|  4>  ConvForced true
|  5>  convergence tight
|  6>  MaxIter 500
|  7> end
|  8>
|  9> %tddft
| 10>  nroots 1
| 11> end
| 12>
| 13> # 	25921
| 14> * xyz 0 1
| 15> 		C   -0.605474  -0.454311  -0.026087
| 16> 		O   -0.602012  -1.641404   0.001201
| 17> 		C    0.716723   0.372775   0.057569
| 18> 		C    1.807203  -0.047557  -0.013857
| 19> 		H   -1.479026   0.126614   0.086386
| 20> 		H    0.542881   1.479122  -0.318735
| 21> 		H    1.831178  -1.205056  -0.055431
| 22> 		H    2.775551   0.422816   0.047321
| 23> *
| 24>
| 25>                          ****END OF INPUT****

CARTESIAN COORDINATES (ANGSTROEM)
---------------------------------
  C     -0.605474   -0.454311   -0.026087
  O     -0.602012   -1.641404    0.001201
  C      0.716723    0.372775    0.057569
  C      1.807203   -0.047557   -0.013857
  H     -1.479026    0.126614    0.086386
  H      0.542881    1.479122   -0.318735
  H      1.831178   -1.205056   -0.055431
  H      2.775551    0.422816    0.047321

 Total Charge           Charge          ....    0
 Multiplicity           Mult            ....    1
 Number of Electrons    NEL             ....   30
 Basis Dimension        Dim             ....   24

ORBITAL ENERGIES
----------------

  NO   OCC          E(Eh)            E(eV)
   0   2.0000     -20.389569      -554.8284
   1   2.0000     -11.308893      -307.7306
   2   2.0000     -11.190283      -304.5031
   3   2.0000     -11.188750      -304.4614
   4   2.0000      -1.429810       -38.9071
   5   2.0000      -1.118634       -30.4396
   6   2.0000      -0.885381       -24.0924
   7   2.0000      -0.746453       -20.3120
   8   2.0000      -0.701945       -19.1009
   9   2.0000      -0.635272       -17.2866
  10   2.0000      -0.616681       -16.7807
  11   2.0000      -0.560083       -15.2406
  12   2.0000      -0.492877       -13.4119
  13   2.0000      -0.440901       -11.9975
  14   2.0000      -0.403779       -10.9874
  15   0.0000       0.158121         4.3027
  16   0.0000       0.321526         8.7492
  17   0.0000       0.470897        12.8138
  18   0.0000       0.589113        16.0306
  19   0.0000       0.646217        17.5844

MULLIKEN ATOMIC CHARGES
-----------------------
   0 C :    0.181866
   1 O :   -0.348034
   2 C :   -0.176242
   3 C :   -0.253468
   4 H :    0.142033
   5 H :    0.139855
   6 H :    0.158500
   7 H :    0.155491
Sum of atomic charges:   -0.0000000

LOEWDIN ATOMIC CHARGES
----------------------
   0 C :    0.157424
   1 O :   -0.241871
   2 C :   -0.138497
   3 C :   -0.156704
   4 H :    0.072573
   5 H :    0.094983
   6 H :    0.109726
   7 H :    0.102366

  Mayer bond orders larger than 0.100000
B(  0-C ,  1-O ) :   1.9462 B(  0-C ,  2-C ) :   0.9551 B(  0-C ,  4-H ) :   0.9272
B(  2-C ,  3-C ) :   2.0260 B(  2-C ,  5-H ) :   0.9403 B(  3-C ,  6-H ) :   0.9327
B(  3-C ,  7-H ) :   0.9525

-----------------------------------------------------------------------------
         ABSORPTION SPECTRUM VIA TRANSITION ELECTRIC DIPOLE MOMENTS
-----------------------------------------------------------------------------
State   Energy    Wavelength  fosc         T2        TX        TY        TZ
        (cm-1)      (nm)                 (au**2)    (au)      (au)      (au)
-----------------------------------------------------------------------------
   1   34700.5    288.2   0.000744444   0.00706  -0.08213  -0.01679   0.00602

Dispersion correction           -0.026092404
FINAL SINGLE POINT ENERGY      -189.268160196253

DIPOLE MOMENT
-------------
                                X             Y             Z
Electronic contribution:     -2.10359      -1.71576       0.13091
Nuclear contribution   :      2.28490       2.56145      -0.22480
                        -----------------------------------------
Total Dipole Moment    :      0.18131       0.84568      -0.09389
                        -----------------------------------------
Magnitude (a.u.)       :      0.86998
Magnitude (Debye)      :      2.21132

Rotational constants in cm-1:     0.868498     0.202846     0.164972
Rotational constants in MHz : 26036.923945  6081.176233  4945.728824

                             ****ORCA TERMINATED NORMALLY****
TOTAL RUN TIME: 0 days 0 hours 0 minutes 10 seconds 71 msec
