                         Program Version 5.0.3 -  RELEASE  -
|  1> ! HF-3c
|  2> !TightSCF
|  3> %scf
|  4>  ConvForced true
|  5>  convergence tight
|  6>  MaxIter 500
|  7> end
|  8>
|  9> %tddft
| 10>  nroots 1
| 11> end
| 12>
| 13> # 	1670
| 14> * xyz 0 1
| 15> 		C   -1.189432  -0.358752   0.039701
| 16> 		O   -1.701200  -1.210080   0.789612
| 17> 		C   -0.003526   0.505101   0.230138
| 18> 		C    1.193558   0.050250  -0.135250
| 19> 		H   -1.650878  -0.300057  -0.915843
| 20> 		H   -0.060943   1.581163   0.670255
| 21> 		H    1.405400  -0.958679  -0.617279
| 22> 		H    2.105058   0.714867  -0.048678
| 23> *
| 24>
| 25>                          ****END OF INPUT****

CARTESIAN COORDINATES (ANGSTROEM)
---------------------------------
  C     -1.189432   -0.358752    0.039701
  O     -1.701200   -1.210080    0.789612
  C     -0.003526    0.505101    0.230138
  C      1.193558    0.050250   -0.135250
  H     -1.650878   -0.300057   -0.915843
  H     -0.060943    1.581163    0.670255
  H      1.405400   -0.958679   -0.617279
  H      2.105058    0.714867   -0.048678

 Total Charge           Charge          ....    0
 Multiplicity           Mult            ....    1
 Number of Electrons    NEL             ....   30
 Basis Dimension        Dim             ....   24

ORBITAL ENERGIES
----------------

  NO   OCC          E(Eh)            E(eV)
   0   2.0000     -20.367624      -554.2312
   1   2.0000     -11.292667      -307.2891
   2   2.0000     -11.193100      -304.5797
   3   2.0000     -11.179956      -304.2221
   4   2.0000      -1.380986       -37.5785
   5   2.0000      -1.076886       -29.3036
   6   2.0000      -0.881376       -23.9835
   7   2.0000      -0.755902       -20.5691
   8   2.0000      -0.676086       -18.3972
   9   2.0000      -0.622476       -16.9384
  10   2.0000      -0.597472       -16.2580
  11   2.0000      -0.528728       -14.3874
  12   2.0000      -0.484856       -13.1936
  13   2.0000      -0.419881       -11.4255
  14   2.0000      -0.398021       -10.8307
  15   0.0000       0.177870         4.8401
  16   0.0000       0.212668         5.7870
  17   0.0000       0.544693        14.8218
  18   0.0000       0.560014        15.2388
  19   0.0000       0.623927        16.9779

MULLIKEN ATOMIC CHARGES
-----------------------
   0 C :    0.148608
   1 O :   -0.330847
   2 C :   -0.171232
   3 C :   -0.226160
   4 H :    0.139358
   5 H :    0.160919
   6 H :    0.141189
   7 H :    0.138167
Sum of atomic charges:    0.0000000

LOEWDIN ATOMIC CHARGES
----------------------
   0 C :    0.145277
   1 O :   -0.246628
   2 C :   -0.129521
   3 C :   -0.141838
   4 H :    0.072601
   5 H :    0.113530
   6 H :    0.094652
   7 H :    0.091927

  Mayer bond orders larger than 0.100000
B(  0-C ,  1-O ) :   1.9427 B(  0-C ,  2-C ) :   0.9983 B(  0-C ,  4-H ) :   0.9288
B(  2-C ,  3-C ) :   1.9935 B(  2-C ,  5-H ) :   0.9414 B(  3-C ,  6-H ) :   0.9633
B(  3-C ,  7-H ) :   0.9624

-----------------------------------------------------------------------------
         ABSORPTION SPECTRUM VIA TRANSITION ELECTRIC DIPOLE MOMENTS
-----------------------------------------------------------------------------
State   Energy    Wavelength  fosc         T2        TX        TY        TZ
        (cm-1)      (nm)                 (au**2)    (au)      (au)      (au)
-----------------------------------------------------------------------------
   1   31970.8    312.8   0.000004518   0.00005   0.00376  -0.00569   0.00023

Dispersion correction           -0.024753176
FINAL SINGLE POINT ENERGY      -189.325848896682

DIPOLE MOMENT
-------------
                                X             Y             Z
Electronic contribution:     -2.74995      -1.32029       1.14918
Nuclear contribution   :      3.36897       2.02732      -1.73933
                        -----------------------------------------
Total Dipole Moment    :      0.61902       0.70703      -0.59015
                        -----------------------------------------
Magnitude (a.u.)       :      1.10966
Magnitude (Debye)      :      2.82054

Rotational constants in cm-1:     0.984831     0.163580     0.153338
Rotational constants in MHz : 29524.486675  4904.000594  4596.951075

                             ****ORCA TERMINATED NORMALLY****
TOTAL RUN TIME: 0 days 0 hours 0 minutes 12 seconds 769 msec
