                         Program Version 5.0.3 -  RELEASE  -
|  1> ! B3LYP cc-pVDZ
|  2> !TightSCF
|  3> %scf
|  4>  ConvForced true
|  5>  convergence tight
|  6>  MaxIter 500
|  7> end
|  8>
|  9> %tddft
| 10>  nroots 1
| 11> end
| 12>
| 13> # 	22250
| 14> * xyz 0 1
| 15> 		C   -0.578401  -0.417628   0.040683
| 16> 		O   -0.595293  -1.620471  -0.020157
| 17> 		C    0.640411   0.366952  -0.022702
| 18> 		C    1.859988  -0.123037   0.026332
| 19> 		H   -1.528456   0.136584   0.055753
| 20> 		H    0.444281   1.371782  -0.195898
| 21> 		H    1.989550  -1.143824  -0.110832
| 22> 		H    2.594884   0.683097   0.036747
| 23> *
| 24>
| 25>                          ****END OF INPUT****

CARTESIAN COORDINATES (ANGSTROEM)
---------------------------------
  C     -0.578401   -0.417628    0.040683
  O     -0.595293   -1.620471   -0.020157
  C      0.640411    0.366952   -0.022702
  C      1.859988   -0.123037    0.026332
  H     -1.528456    0.136584    0.055753
  H      0.444281    1.371782   -0.195898
  H      1.989550   -1.143824   -0.110832
  H      2.594884    0.683097    0.036747

 Total Charge           Charge          ....    0
 Multiplicity           Mult            ....    1
 Number of Electrons    NEL             ....   30
 Basis Dimension        Dim             ....   76

ORBITAL ENERGIES
----------------

  NO   OCC          E(Eh)            E(eV)
   0   2.0000     -19.134065      -520.6644
   1   2.0000     -10.266508      -279.3659
   2   2.0000     -10.205296      -277.7002
   3   2.0000     -10.191649      -277.3289
   4   2.0000      -1.047437       -28.5022
   5   2.0000      -0.805700       -21.9242
   6   2.0000      -0.666178       -18.1276
   7   2.0000      -0.542488       -14.7618
   8   2.0000      -0.519343       -14.1320
   9   2.0000      -0.450899       -12.2696
  10   2.0000      -0.421951       -11.4819
  11   2.0000      -0.404503       -11.0071
  12   2.0000      -0.387871       -10.5545
  13   2.0000      -0.288267        -7.8441
  14   2.0000      -0.252331        -6.8663
  15   0.0000      -0.069880        -1.9015
  16   0.0000       0.063115         1.7175
  17   0.0000       0.071848         1.9551
  18   0.0000       0.097589         2.6555
  19   0.0000       0.130940         3.5631

MULLIKEN ATOMIC CHARGES
-----------------------
   0 C :    0.176303
   1 O :   -0.190320
   2 C :   -0.100426
   3 C :    0.140101
   4 H :   -0.031359
   5 H :   -0.037378
   6 H :    0.012252
   7 H :    0.030828
Sum of atomic charges:   -0.0000000

LOEWDIN ATOMIC CHARGES
----------------------
   0 C :   -0.042208
   1 O :    0.000393
   2 C :   -0.072203
   3 C :    0.040659
   4 H :   -0.006573
   5 H :    0.015999
   6 H :    0.022364
   7 H :    0.041570

  Mayer bond orders larger than 0.100000
B(  0-C ,  1-O ) :   2.1975 B(  0-C ,  2-C ) :   1.0870 B(  0-C ,  4-H ) :   0.9170
B(  2-C ,  3-C ) :   1.9751 B(  2-C ,  5-H ) :   0.9442 B(  3-C ,  6-H ) :   0.9280
B(  3-C ,  7-H ) :   0.9316

-----------------------------------------------------------------------------
         ABSORPTION SPECTRUM VIA TRANSITION ELECTRIC DIPOLE MOMENTS
-----------------------------------------------------------------------------
State   Energy    Wavelength  fosc         T2        TX        TY        TZ
        (cm-1)      (nm)                 (au**2)    (au)      (au)      (au)
-----------------------------------------------------------------------------
   1   27168.0    368.1   0.000142898   0.00173  -0.01354  -0.01724   0.03537

FINAL SINGLE POINT ENERGY      -191.670059986265

DIPOLE MOMENT
-------------
                                X             Y             Z
Electronic contribution:     -1.74431      -1.86836       0.17077
Nuclear contribution   :      2.12666       2.77037      -0.20087
                        -----------------------------------------
Total Dipole Moment    :      0.38235       0.90201      -0.03009
                        -----------------------------------------
Magnitude (a.u.)       :      0.98016
Magnitude (Debye)      :      2.49136

Rotational constants in cm-1:     0.815989     0.209484     0.167009
Rotational constants in MHz : 24462.730768  6280.170816  5006.792912

                             ****ORCA TERMINATED NORMALLY****
TOTAL RUN TIME: 0 days 0 hours 3 minutes 16 seconds 470 msec
