                         Program Version 5.0.3 -  RELEASE  -
|  1> ! HF-3c
|  2> !TightSCF
|  3> %scf
|  4>  ConvForced true
|  5>  convergence tight
|  6>  MaxIter 500
|  7> end
|  8>
|  9> %tddft
| 10>  nroots 1
| 11> end
| 12>
| 13> # 	22029
| 14> * xyz 0 1
| 15> 		C   -0.520061  -0.433343   0.033861
| 16> 		O   -0.620675  -1.663989  -0.015009
| 17> 		C    0.615029   0.433152  -0.030511
| 18> 		C    1.845303  -0.081444   0.005163
| 19> 		H   -1.345483   0.008899   0.085188
| 20> 		H    0.557945   1.515788  -0.089295
| 21> 		H    1.808709  -1.399824  -0.003920
| 22> 		H    2.716592   0.467366   0.147296
| 23> *
| 24>
| 25>                          ****END OF INPUT****

CARTESIAN COORDINATES (ANGSTROEM)
---------------------------------
  C     -0.520061   -0.433343    0.033861
  O     -0.620675   -1.663989   -0.015009
  C      0.615029    0.433152   -0.030511
  C      1.845303   -0.081444    0.005163
  H     -1.345483    0.008899    0.085188
  H      0.557945    1.515788   -0.089295
  H      1.808709   -1.399824   -0.003920
  H      2.716592    0.467366    0.147296

 Total Charge           Charge          ....    0
 Multiplicity           Mult            ....    1
 Number of Electrons    NEL             ....   30
 Basis Dimension        Dim             ....   24

ORBITAL ENERGIES
----------------

  NO   OCC          E(Eh)            E(eV)
   0   2.0000     -20.356562      -553.9302
   1   2.0000     -11.295946      -307.3783
   2   2.0000     -11.193884      -304.6011
   3   2.0000     -11.186117      -304.3897
   4   2.0000      -1.386345       -37.7244
   5   2.0000      -1.088638       -29.6233
   6   2.0000      -0.915911       -24.9232
   7   2.0000      -0.764792       -20.8110
   8   2.0000      -0.708026       -19.2664
   9   2.0000      -0.614912       -16.7326
  10   2.0000      -0.589985       -16.0543
  11   2.0000      -0.540440       -14.7061
  12   2.0000      -0.495588       -13.4856
  13   2.0000      -0.426452       -11.6043
  14   2.0000      -0.388216       -10.5639
  15   0.0000       0.120056         3.2669
  16   0.0000       0.311270         8.4701
  17   0.0000       0.439328        11.9547
  18   0.0000       0.588885        16.0244
  19   0.0000       0.661264        17.9939

MULLIKEN ATOMIC CHARGES
-----------------------
   0 C :    0.123734
   1 O :   -0.345043
   2 C :   -0.200408
   3 C :   -0.182108
   4 H :    0.138077
   5 H :    0.148932
   6 H :    0.172472
   7 H :    0.144344
Sum of atomic charges:    0.0000000

LOEWDIN ATOMIC CHARGES
----------------------
   0 C :    0.132714
   1 O :   -0.262134
   2 C :   -0.157656
   3 C :   -0.093261
   4 H :    0.060771
   5 H :    0.096110
   6 H :    0.133980
   7 H :    0.089476

  Mayer bond orders larger than 0.100000
B(  0-C ,  1-O ) :   1.8777 B(  0-C ,  2-C ) :   1.0612 B(  0-C ,  4-H ) :   0.9449
B(  2-C ,  3-C ) :   1.9108 B(  2-C ,  5-H ) :   0.9561 B(  3-C ,  6-H ) :   0.9443
B(  3-C ,  7-H ) :   0.9667

-----------------------------------------------------------------------------
         ABSORPTION SPECTRUM VIA TRANSITION ELECTRIC DIPOLE MOMENTS
-----------------------------------------------------------------------------
State   Energy    Wavelength  fosc         T2        TX        TY        TZ
        (cm-1)      (nm)                 (au**2)    (au)      (au)      (au)
-----------------------------------------------------------------------------
   1   30887.8    323.8   0.000025414   0.00027   0.00762   0.00086   0.01456

Dispersion correction           -0.026320666
FINAL SINGLE POINT ENERGY      -189.279747668504

DIPOLE MOMENT
-------------
                                X             Y             Z
Electronic contribution:     -1.78755      -1.52083      -0.08018
Nuclear contribution   :      2.34556       2.34579       0.13027
                        -----------------------------------------
Total Dipole Moment    :      0.55801       0.82496       0.05009
                        -----------------------------------------
Magnitude (a.u.)       :      0.99722
Magnitude (Debye)      :      2.53472

Rotational constants in cm-1:     0.803324     0.205516     0.163859
Rotational constants in MHz : 24083.053749  6161.205341  4912.374784

                             ****ORCA TERMINATED NORMALLY****
TOTAL RUN TIME: 0 days 0 hours 0 minutes 16 seconds 95 msec
