                         Program Version 5.0.3 -  RELEASE  -
|  1> ! B3LYP cc-pVDZ
|  2> !TightSCF
|  3> %scf
|  4>  ConvForced true
|  5>  convergence tight
|  6>  MaxIter 500
|  7> end
|  8>
|  9> %tddft
| 10>  nroots 1
| 11> end
| 12>
| 13> # 	16676
| 14> * xyz 0 1
| 15> 		C   -1.160415  -0.328853   0.076918
| 16> 		O   -2.116736  -0.353148   0.879038
| 17> 		C    0.076296   0.384771   0.314720
| 18> 		C    1.186069   0.104995  -0.283633
| 19> 		H   -1.185832  -0.845070  -0.818039
| 20> 		H   -0.003339   1.064057   1.040702
| 21> 		H    1.258433  -0.568598  -1.156725
| 22> 		H    2.004252   0.574922  -0.068646
| 23> *
| 24>
| 25>                          ****END OF INPUT****

CARTESIAN COORDINATES (ANGSTROEM)
---------------------------------
  C     -1.160415   -0.328853    0.076918
  O     -2.116736   -0.353148    0.879038
  C      0.076296    0.384771    0.314720
  C      1.186069    0.104995   -0.283633
  H     -1.185832   -0.845070   -0.818039
  H     -0.003339    1.064057    1.040702
  H      1.258433   -0.568598   -1.156725
  H      2.004252    0.574922   -0.068646

 Total Charge           Charge          ....    0
 Multiplicity           Mult            ....    1
 Number of Electrons    NEL             ....   30
 Basis Dimension        Dim             ....   76

ORBITAL ENERGIES
----------------

  NO   OCC          E(Eh)            E(eV)
   0   2.0000     -19.136336      -520.7262
   1   2.0000     -10.266529      -279.3665
   2   2.0000     -10.204030      -277.6658
   3   2.0000     -10.192856      -277.3617
   4   2.0000      -1.023806       -27.8592
   5   2.0000      -0.821751       -22.3610
   6   2.0000      -0.668868       -18.2008
   7   2.0000      -0.590261       -16.0618
   8   2.0000      -0.493478       -13.4282
   9   2.0000      -0.481424       -13.1002
  10   2.0000      -0.421533       -11.4705
  11   2.0000      -0.398082       -10.8324
  12   2.0000      -0.383139       -10.4257
  13   2.0000      -0.298671        -8.1273
  14   2.0000      -0.254525        -6.9260
  15   0.0000      -0.067095        -1.8257
  16   0.0000       0.048750         1.3266
  17   0.0000       0.078592         2.1386
  18   0.0000       0.097414         2.6508
  19   0.0000       0.127471         3.4686

MULLIKEN ATOMIC CHARGES
-----------------------
   0 C :    0.208943
   1 O :   -0.230488
   2 C :   -0.032954
   3 C :    0.145887
   4 H :   -0.045209
   5 H :   -0.051741
   6 H :    0.022414
   7 H :   -0.016852
Sum of atomic charges:   -0.0000000

LOEWDIN ATOMIC CHARGES
----------------------
   0 C :    0.002090
   1 O :   -0.034019
   2 C :   -0.035653
   3 C :    0.033973
   4 H :   -0.015601
   5 H :    0.011383
   6 H :    0.037750
   7 H :    0.000077

  Mayer bond orders larger than 0.100000
B(  0-C ,  1-O ) :   2.1218 B(  0-C ,  2-C ) :   1.1142 B(  0-C ,  4-H ) :   0.9361
B(  2-C ,  3-C ) :   1.9623 B(  2-C ,  5-H ) :   0.9480 B(  3-C ,  6-H ) :   0.9385
B(  3-C ,  7-H ) :   0.9227

-----------------------------------------------------------------------------
         ABSORPTION SPECTRUM VIA TRANSITION ELECTRIC DIPOLE MOMENTS
-----------------------------------------------------------------------------
State   Energy    Wavelength  fosc         T2        TX        TY        TZ
        (cm-1)      (nm)                 (au**2)    (au)      (au)      (au)
-----------------------------------------------------------------------------
   1   27668.2    361.4   0.000196860   0.00234  -0.04819   0.00450   0.00021

FINAL SINGLE POINT ENERGY      -191.654057990039

DIPOLE MOMENT
-------------
                                X             Y             Z
Electronic contribution:     -2.90431      -0.28604       1.28553
Nuclear contribution   :      3.96704       0.44070      -1.89205
                        -----------------------------------------
Total Dipole Moment    :      1.06273       0.15465      -0.60652
                        -----------------------------------------
Magnitude (a.u.)       :      1.23336
Magnitude (Debye)      :      3.13496

Rotational constants in cm-1:     1.668726     0.157080     0.145142
Rotational constants in MHz : 50027.142885  4709.128965  4351.259686

                             ****ORCA TERMINATED NORMALLY****
TOTAL RUN TIME: 0 days 0 hours 3 minutes 14 seconds 115 msec
