                         Program Version 5.0.3 -  RELEASE  -
|  1> ! B3LYP cc-pVDZ
|  2> !TightSCF
|  3> %scf
|  4>  ConvForced true
|  5>  convergence tight
|  6>  MaxIter 500
|  7> end
|  8>
|  9> %tddft
| 10>  nroots 1
| 11> end
| 12>
| 13> # 	17693
| 14> * xyz 0 1
| 15> 		C   -1.199927  -0.358247   0.031269
| 16> 		O   -2.008079  -0.766504   0.837963
| 17> 		C    0.030721   0.392820   0.313522
| 18> 		C    1.190713   0.105942  -0.166865
| 19> 		H   -1.202408  -0.534354  -1.082304
| 20> 		H   -0.146600   1.162171   1.070381
| 21> 		H    1.210198  -0.696717  -1.075374
| 22> 		H    2.118682   0.738870   0.039680
| 23> *
| 24>
| 25>                          ****END OF INPUT****

CARTESIAN COORDINATES (ANGSTROEM)
---------------------------------
  C     -1.199927   -0.358247    0.031269
  O     -2.008079   -0.766504    0.837963
  C      0.030721    0.392820    0.313522
  C      1.190713    0.105942   -0.166865
  H     -1.202408   -0.534354   -1.082304
  H     -0.146600    1.162171    1.070381
  H      1.210198   -0.696717   -1.075374
  H      2.118682    0.738870    0.039680

 Total Charge           Charge          ....    0
 Multiplicity           Mult            ....    1
 Number of Electrons    NEL             ....   30
 Basis Dimension        Dim             ....   76

ORBITAL ENERGIES
----------------

  NO   OCC          E(Eh)            E(eV)
   0   2.0000     -19.149566      -521.0862
   1   2.0000     -10.282043      -279.7886
   2   2.0000     -10.223249      -278.1887
   3   2.0000     -10.201329      -277.5923
   4   2.0000      -1.051647       -28.6168
   5   2.0000      -0.811845       -22.0914
   6   2.0000      -0.650563       -17.7027
   7   2.0000      -0.559761       -15.2319
   8   2.0000      -0.476800       -12.9744
   9   2.0000      -0.464520       -12.6402
  10   2.0000      -0.440949       -11.9988
  11   2.0000      -0.394284       -10.7290
  12   2.0000      -0.369558       -10.0562
  13   2.0000      -0.300381        -8.1738
  14   2.0000      -0.259173        -7.0525
  15   0.0000      -0.059266        -1.6127
  16   0.0000       0.031220         0.8495
  17   0.0000       0.062158         1.6914
  18   0.0000       0.078960         2.1486
  19   0.0000       0.113124         3.0783

MULLIKEN ATOMIC CHARGES
-----------------------
   0 C :    0.168597
   1 O :   -0.182843
   2 C :   -0.051487
   3 C :   -0.014431
   4 H :   -0.021312
   5 H :    0.005848
   6 H :    0.041646
   7 H :    0.053981
Sum of atomic charges:    0.0000000

LOEWDIN ATOMIC CHARGES
----------------------
   0 C :   -0.027874
   1 O :    0.010094
   2 C :   -0.074211
   3 C :   -0.030631
   4 H :   -0.008113
   5 H :    0.034950
   6 H :    0.048035
   7 H :    0.047750

  Mayer bond orders larger than 0.100000
B(  0-C ,  1-O ) :   2.2065 B(  0-C ,  2-C ) :   1.0357 B(  0-C ,  4-H ) :   0.9031
B(  2-C ,  3-C ) :   1.9958 B(  2-C ,  5-H ) :   0.9372 B(  3-C ,  6-H ) :   0.9231
B(  3-C ,  7-H ) :   0.9309

-----------------------------------------------------------------------------
         ABSORPTION SPECTRUM VIA TRANSITION ELECTRIC DIPOLE MOMENTS
-----------------------------------------------------------------------------
State   Energy    Wavelength  fosc         T2        TX        TY        TZ
        (cm-1)      (nm)                 (au**2)    (au)      (au)      (au)
-----------------------------------------------------------------------------
   1   30488.7    328.0   0.000096206   0.00104  -0.02067   0.01936   0.01539

FINAL SINGLE POINT ENERGY      -191.649322562050

DIPOLE MOMENT
-------------
                                X             Y             Z
Electronic contribution:     -3.02872      -0.83233       1.44498
Nuclear contribution   :      3.83525       1.28251      -1.94402
                        -----------------------------------------
Total Dipole Moment    :      0.80653       0.45018      -0.49904
                        -----------------------------------------
Magnitude (a.u.)       :      1.04986
Magnitude (Debye)      :      2.66853

Rotational constants in cm-1:     1.374353     0.156645     0.148239
Rotational constants in MHz : 41202.051977  4696.107947  4444.094752

                             ****ORCA TERMINATED NORMALLY****
TOTAL RUN TIME: 0 days 0 hours 3 minutes 16 seconds 857 msec
