                         Program Version 5.0.3 -  RELEASE  -
|  1> ! B3LYP cc-pVDZ
|  2> !TightSCF
|  3> %scf
|  4>  ConvForced true
|  5>  convergence tight
|  6>  MaxIter 500
|  7> end
|  8>
|  9> %tddft
| 10>  nroots 1
| 11> end
| 12>
| 13> # 	21121
| 14> * xyz 0 1
| 15> 		C   -0.620986  -0.436259   0.017656
| 16> 		O   -0.548203  -1.621964  -0.014312
| 17> 		C    0.634822   0.417718  -0.020649
| 18> 		C    1.831004  -0.127800   0.041296
| 19> 		H   -1.452262   0.155691   0.081904
| 20> 		H    0.546110   1.465454  -0.083312
| 21> 		H    1.805614  -1.348230  -0.074139
| 22> 		H    2.778216   0.458173  -0.166665
| 23> *
| 24>
| 25>                          ****END OF INPUT****

CARTESIAN COORDINATES (ANGSTROEM)
---------------------------------
  C     -0.620986   -0.436259    0.017656
  O     -0.548203   -1.621964   -0.014312
  C      0.634822    0.417718   -0.020649
  C      1.831004   -0.127800    0.041296
  H     -1.452262    0.155691    0.081904
  H      0.546110    1.465454   -0.083312
  H      1.805614   -1.348230   -0.074139
  H      2.778216    0.458173   -0.166665

 Total Charge           Charge          ....    0
 Multiplicity           Mult            ....    1
 Number of Electrons    NEL             ....   30
 Basis Dimension        Dim             ....   76

ORBITAL ENERGIES
----------------

  NO   OCC          E(Eh)            E(eV)
   0   2.0000     -19.143717      -520.9270
   1   2.0000     -10.272058      -279.5169
   2   2.0000     -10.213212      -277.9156
   3   2.0000     -10.190703      -277.3031
   4   2.0000      -1.063134       -28.9293
   5   2.0000      -0.788413       -21.4538
   6   2.0000      -0.656891       -17.8749
   7   2.0000      -0.540632       -14.7113
   8   2.0000      -0.508454       -13.8357
   9   2.0000      -0.448177       -12.1955
  10   2.0000      -0.426304       -11.6003
  11   2.0000      -0.406157       -11.0521
  12   2.0000      -0.359486        -9.7821
  13   2.0000      -0.286522        -7.7967
  14   2.0000      -0.260698        -7.0939
  15   0.0000      -0.063492        -1.7277
  16   0.0000       0.058576         1.5939
  17   0.0000       0.074321         2.0224
  18   0.0000       0.083993         2.2856
  19   0.0000       0.128410         3.4942

MULLIKEN ATOMIC CHARGES
-----------------------
   0 C :    0.240152
   1 O :   -0.173700
   2 C :   -0.106054
   3 C :   -0.003876
   4 H :   -0.033201
   5 H :   -0.031763
   6 H :    0.063925
   7 H :    0.044517
Sum of atomic charges:   -0.0000000

LOEWDIN ATOMIC CHARGES
----------------------
   0 C :   -0.021678
   1 O :    0.027878
   2 C :   -0.087199
   3 C :   -0.010038
   4 H :   -0.017647
   5 H :    0.013620
   6 H :    0.055695
   7 H :    0.039369

  Mayer bond orders larger than 0.100000
B(  0-C ,  1-O ) :   2.2148 B(  0-C ,  2-C ) :   1.0313 B(  0-C ,  4-H ) :   0.9281
B(  2-C ,  3-C ) :   1.9860 B(  2-C ,  5-H ) :   0.9454 B(  3-C ,  6-H ) :   0.9117
B(  3-C ,  7-H ) :   0.9373

-----------------------------------------------------------------------------
         ABSORPTION SPECTRUM VIA TRANSITION ELECTRIC DIPOLE MOMENTS
-----------------------------------------------------------------------------
State   Energy    Wavelength  fosc         T2        TX        TY        TZ
        (cm-1)      (nm)                 (au**2)    (au)      (au)      (au)
-----------------------------------------------------------------------------
   1   30015.7    333.2   0.000051264   0.00056   0.00746  -0.00760   0.02118

FINAL SINGLE POINT ENERGY      -191.648447689143

DIPOLE MOMENT
-------------
                                X             Y             Z
Electronic contribution:     -2.12840      -1.60731       0.17143
Nuclear contribution   :      2.29344       2.47432      -0.22657
                        -----------------------------------------
Total Dipole Moment    :      0.16503       0.86701      -0.05514
                        -----------------------------------------
Magnitude (a.u.)       :      0.88429
Magnitude (Debye)      :      2.24770

Rotational constants in cm-1:     0.763053     0.213870     0.167314
Rotational constants in MHz : 22875.751709  6411.648123  5015.940810

                             ****ORCA TERMINATED NORMALLY****
TOTAL RUN TIME: 0 days 0 hours 3 minutes 8 seconds 552 msec
