                         Program Version 5.0.3 -  RELEASE  -
|  1> ! HF-3c
|  2> !TightSCF
|  3> %scf
|  4>  ConvForced true
|  5>  convergence tight
|  6>  MaxIter 500
|  7> end
|  8>
|  9> %tddft
| 10>  nroots 1
| 11> end
| 12>
| 13> # 	25032
| 14> * xyz 0 1
| 15> 		C   -0.637997  -0.416562   0.030879
| 16> 		O   -0.531442  -1.594396  -0.023593
| 17> 		C    0.612185   0.393196  -0.018059
| 18> 		C    1.869961  -0.164057   0.008102
| 19> 		H   -1.724816   0.002422   0.106415
| 20> 		H    0.459590   1.516961  -0.094143
| 21> 		H    1.907540  -1.193589   0.173373
| 22> 		H    2.743700   0.465516  -0.072974
| 23> *
| 24>
| 25>                          ****END OF INPUT****

CARTESIAN COORDINATES (ANGSTROEM)
---------------------------------
  C     -0.637997   -0.416562    0.030879
  O     -0.531442   -1.594396   -0.023593
  C      0.612185    0.393196   -0.018059
  C      1.869961   -0.164057    0.008102
  H     -1.724816    0.002422    0.106415
  H      0.459590    1.516961   -0.094143
  H      1.907540   -1.193589    0.173373
  H      2.743700    0.465516   -0.072974

 Total Charge           Charge          ....    0
 Multiplicity           Mult            ....    1
 Number of Electrons    NEL             ....   30
 Basis Dimension        Dim             ....   24

ORBITAL ENERGIES
----------------

  NO   OCC          E(Eh)            E(eV)
   0   2.0000     -20.362329      -554.0872
   1   2.0000     -11.296473      -307.3927
   2   2.0000     -11.185577      -304.3750
   3   2.0000     -11.182323      -304.2865
   4   2.0000      -1.421221       -38.6734
   5   2.0000      -1.057272       -28.7698
   6   2.0000      -0.878679       -23.9101
   7   2.0000      -0.740689       -20.1552
   8   2.0000      -0.698944       -19.0192
   9   2.0000      -0.608250       -16.5513
  10   2.0000      -0.598132       -16.2760
  11   2.0000      -0.547854       -14.9079
  12   2.0000      -0.527696       -14.3593
  13   2.0000      -0.407449       -11.0873
  14   2.0000      -0.380886       -10.3644
  15   0.0000       0.134091         3.6488
  16   0.0000       0.308962         8.4073
  17   0.0000       0.499506        13.5923
  18   0.0000       0.610179        16.6038
  19   0.0000       0.672128        18.2895

MULLIKEN ATOMIC CHARGES
-----------------------
   0 C :    0.162123
   1 O :   -0.361725
   2 C :   -0.152871
   3 C :   -0.234471
   4 H :    0.143348
   5 H :    0.134727
   6 H :    0.159244
   7 H :    0.149624
Sum of atomic charges:    0.0000000

LOEWDIN ATOMIC CHARGES
----------------------
   0 C :    0.133270
   1 O :   -0.258719
   2 C :   -0.115740
   3 C :   -0.131200
   4 H :    0.084239
   5 H :    0.087816
   6 H :    0.101600
   7 H :    0.098734

  Mayer bond orders larger than 0.100000
B(  0-C ,  1-O ) :   1.9041 B(  0-C ,  2-C ) :   1.0217 B(  0-C ,  4-H ) :   0.9187
B(  2-C ,  3-C ) :   1.9457 B(  2-C ,  5-H ) :   0.9621 B(  3-C ,  6-H ) :   0.9609
B(  3-C ,  7-H ) :   0.9657

-----------------------------------------------------------------------------
         ABSORPTION SPECTRUM VIA TRANSITION ELECTRIC DIPOLE MOMENTS
-----------------------------------------------------------------------------
State   Energy    Wavelength  fosc         T2        TX        TY        TZ
        (cm-1)      (nm)                 (au**2)    (au)      (au)      (au)
-----------------------------------------------------------------------------
   1   33180.7    301.4   0.000028878   0.00029  -0.01333   0.00204   0.01023

Dispersion correction           -0.025529970
FINAL SINGLE POINT ENERGY      -189.329015662401

DIPOLE MOMENT
-------------
                                X             Y             Z
Electronic contribution:     -1.86988      -1.61823      -0.05302
Nuclear contribution   :      2.02235       2.53067       0.10620
                        -----------------------------------------
Total Dipole Moment    :      0.15246       0.91244       0.05318
                        -----------------------------------------
Magnitude (a.u.)       :      0.92662
Magnitude (Debye)      :      2.35528

Rotational constants in cm-1:     0.743636     0.214419     0.166697
Rotational constants in MHz : 22293.641833  6428.119615  4997.453571

                             ****ORCA TERMINATED NORMALLY****
TOTAL RUN TIME: 0 days 0 hours 0 minutes 13 seconds 255 msec
