                         Program Version 5.0.3 -  RELEASE  -
|  1> ! HF-3c
|  2> !TightSCF
|  3> %scf
|  4>  ConvForced true
|  5>  convergence tight
|  6>  MaxIter 500
|  7> end
|  8>
|  9> %tddft
| 10>  nroots 1
| 11> end
| 12>
| 13> # 	1724
| 14> * xyz 0 1
| 15> 		C   -1.214229  -0.298399   0.034880
| 16> 		O   -1.316404  -1.416559   0.619119
| 17> 		C    0.051833   0.544601   0.157388
| 18> 		C    1.212629  -0.034885  -0.085167
| 19> 		H   -2.038531   0.040386  -0.597240
| 20> 		H   -0.085265   1.504905   0.476889
| 21> 		H    1.253068  -1.037228  -0.420494
| 22> 		H    2.150679   0.668629  -0.112892
| 23> *
| 24>
| 25>                          ****END OF INPUT****

CARTESIAN COORDINATES (ANGSTROEM)
---------------------------------
  C     -1.214229   -0.298399    0.034880
  O     -1.316404   -1.416559    0.619119
  C      0.051833    0.544601    0.157388
  C      1.212629   -0.034885   -0.085167
  H     -2.038531    0.040386   -0.597240
  H     -0.085265    1.504905    0.476889
  H      1.253068   -1.037228   -0.420494
  H      2.150679    0.668629   -0.112892

 Total Charge           Charge          ....    0
 Multiplicity           Mult            ....    1
 Number of Electrons    NEL             ....   30
 Basis Dimension        Dim             ....   24

ORBITAL ENERGIES
----------------

  NO   OCC          E(Eh)            E(eV)
   0   2.0000     -20.353108      -553.8362
   1   2.0000     -11.281692      -306.9905
   2   2.0000     -11.192294      -304.5578
   3   2.0000     -11.188657      -304.4588
   4   2.0000      -1.362423       -37.0734
   5   2.0000      -1.080980       -29.4150
   6   2.0000      -0.879251       -23.9256
   7   2.0000      -0.766184       -20.8489
   8   2.0000      -0.691488       -18.8163
   9   2.0000      -0.611460       -16.6387
  10   2.0000      -0.592497       -16.1227
  11   2.0000      -0.540452       -14.7064
  12   2.0000      -0.490208       -13.3392
  13   2.0000      -0.415654       -11.3105
  14   2.0000      -0.399599       -10.8736
  15   0.0000       0.155394         4.2285
  16   0.0000       0.245463         6.6794
  17   0.0000       0.520589        14.1659
  18   0.0000       0.595631        16.2079
  19   0.0000       0.678752        18.4698

MULLIKEN ATOMIC CHARGES
-----------------------
   0 C :    0.150531
   1 O :   -0.339648
   2 C :   -0.179918
   3 C :   -0.221347
   4 H :    0.142730
   5 H :    0.145897
   6 H :    0.151507
   7 H :    0.150248
Sum of atomic charges:   -0.0000000

LOEWDIN ATOMIC CHARGES
----------------------
   0 C :    0.145750
   1 O :   -0.260829
   2 C :   -0.126644
   3 C :   -0.129411
   4 H :    0.079870
   5 H :    0.088675
   6 H :    0.096779
   7 H :    0.105810

  Mayer bond orders larger than 0.100000
B(  0-C ,  1-O ) :   1.9318 B(  0-C ,  2-C ) :   0.9970 B(  0-C ,  4-H ) :   0.9307
B(  2-C ,  3-C ) :   1.9801 B(  2-C ,  5-H ) :   0.9582 B(  3-C ,  6-H ) :   0.9628
B(  3-C ,  7-H ) :   0.9586

-----------------------------------------------------------------------------
         ABSORPTION SPECTRUM VIA TRANSITION ELECTRIC DIPOLE MOMENTS
-----------------------------------------------------------------------------
State   Energy    Wavelength  fosc         T2        TX        TY        TZ
        (cm-1)      (nm)                 (au**2)    (au)      (au)      (au)
-----------------------------------------------------------------------------
   1   31090.5    321.6   0.000099240   0.00105  -0.03157  -0.00507   0.00533

Dispersion correction           -0.025403654
FINAL SINGLE POINT ENERGY      -189.334569832036

DIPOLE MOMENT
-------------
                                X             Y             Z
Electronic contribution:     -2.13637      -1.49734       0.80113
Nuclear contribution   :      2.46941       2.35571      -1.31196
                        -----------------------------------------
Total Dipole Moment    :      0.33304       0.85838      -0.51084
                        -----------------------------------------
Magnitude (a.u.)       :      1.05294
Magnitude (Debye)      :      2.67636

Rotational constants in cm-1:     0.778962     0.192304     0.162500
Rotational constants in MHz : 23352.696856  5765.131409  4871.638315

                             ****ORCA TERMINATED NORMALLY****
TOTAL RUN TIME: 0 days 0 hours 0 minutes 9 seconds 612 msec
