                         Program Version 5.0.3 -  RELEASE  -
|  1> ! B3LYP cc-pVDZ
|  2> !TightSCF
|  3> %scf
|  4>  ConvForced true
|  5>  convergence tight
|  6>  MaxIter 500
|  7> end
|  8>
|  9> %tddft
| 10>  nroots 1
| 11> end
| 12>
| 13> # 	4318
| 14> * xyz 0 1
| 15> 		C   -1.210367  -0.311270   0.061818
| 16> 		O   -2.196112  -0.306363   0.630408
| 17> 		C    0.072716   0.429459   0.357195
| 18> 		C    1.203549   0.215711  -0.299463
| 19> 		H   -1.231999  -1.112364  -0.845830
| 20> 		H    0.111712   0.995734   1.405268
| 21> 		H    1.133967  -0.312707  -1.250972
| 22> 		H    2.046855   0.474121  -0.040801
| 23> *
| 24>
| 25>                          ****END OF INPUT****

CARTESIAN COORDINATES (ANGSTROEM)
---------------------------------
  C     -1.210367   -0.311270    0.061818
  O     -2.196112   -0.306363    0.630408
  C      0.072716    0.429459    0.357195
  C      1.203549    0.215711   -0.299463
  H     -1.231999   -1.112364   -0.845830
  H      0.111712    0.995734    1.405268
  H      1.133967   -0.312707   -1.250972
  H      2.046855    0.474121   -0.040801

 Total Charge           Charge          ....    0
 Multiplicity           Mult            ....    1
 Number of Electrons    NEL             ....   30
 Basis Dimension        Dim             ....   76

ORBITAL ENERGIES
----------------

  NO   OCC          E(Eh)            E(eV)
   0   2.0000     -19.141356      -520.8628
   1   2.0000     -10.280448      -279.7452
   2   2.0000     -10.217952      -278.0446
   3   2.0000     -10.201478      -277.5963
   4   2.0000      -1.092393       -29.7255
   5   2.0000      -0.804563       -21.8933
   6   2.0000      -0.652346       -17.7512
   7   2.0000      -0.550159       -14.9706
   8   2.0000      -0.496032       -13.4977
   9   2.0000      -0.480384       -13.0719
  10   2.0000      -0.435737       -11.8570
  11   2.0000      -0.422795       -11.5048
  12   2.0000      -0.381260       -10.3746
  13   2.0000      -0.298577        -8.1247
  14   2.0000      -0.250226        -6.8090
  15   0.0000      -0.056570        -1.5393
  16   0.0000       0.052197         1.4203
  17   0.0000       0.069440         1.8896
  18   0.0000       0.089401         2.4327
  19   0.0000       0.112169         3.0523

MULLIKEN ATOMIC CHARGES
-----------------------
   0 C :    0.132051
   1 O :   -0.117093
   2 C :   -0.174014
   3 C :    0.205445
   4 H :   -0.046283
   5 H :    0.027790
   6 H :    0.021138
   7 H :   -0.049033
Sum of atomic charges:   -0.0000000

LOEWDIN ATOMIC CHARGES
----------------------
   0 C :   -0.090159
   1 O :    0.072325
   2 C :   -0.064345
   3 C :    0.042808
   4 H :   -0.017999
   5 H :    0.046984
   6 H :    0.036087
   7 H :   -0.025701

  Mayer bond orders larger than 0.100000
B(  0-C ,  1-O ) :   2.2690 B(  0-C ,  2-C ) :   0.9981 B(  0-C ,  4-H ) :   0.8931
B(  2-C ,  3-C ) :   1.9735 B(  2-C ,  5-H ) :   0.9314 B(  3-C ,  6-H ) :   0.9386
B(  3-C ,  7-H ) :   0.9284

-----------------------------------------------------------------------------
         ABSORPTION SPECTRUM VIA TRANSITION ELECTRIC DIPOLE MOMENTS
-----------------------------------------------------------------------------
State   Energy    Wavelength  fosc         T2        TX        TY        TZ
        (cm-1)      (nm)                 (au**2)    (au)      (au)      (au)
-----------------------------------------------------------------------------
   1   30520.2    327.7   0.000623853   0.00673   0.07475   0.01361   0.03093

FINAL SINGLE POINT ENERGY      -191.620188849175

DIPOLE MOMENT
-------------
                                X             Y             Z
Electronic contribution:     -3.09573       0.01489       1.13145
Nuclear contribution   :      4.06901       0.09433      -1.40239
                        -----------------------------------------
Total Dipole Moment    :      0.97328       0.10922      -0.27094
                        -----------------------------------------
Magnitude (a.u.)       :      1.01617
Magnitude (Debye)      :      2.58290

Rotational constants in cm-1:     1.589236     0.153954     0.140746
Rotational constants in MHz : 47644.092730  4615.435365  4219.458417

                             ****ORCA TERMINATED NORMALLY****
TOTAL RUN TIME: 0 days 0 hours 3 minutes 23 seconds 515 msec
