                         Program Version 5.0.3 -  RELEASE  -
|  1> ! B3LYP cc-pVDZ
|  2> !TightSCF
|  3> %scf
|  4>  ConvForced true
|  5>  convergence tight
|  6>  MaxIter 500
|  7> end
|  8>
|  9> %tddft
| 10>  nroots 1
| 11> end
| 12>
| 13> # 	9121
| 14> * xyz 0 1
| 15> 		C   -1.225605  -0.351324   0.063644
| 16> 		O   -1.155966  -1.472825  -0.060038
| 17> 		C    0.039679   0.469756  -0.021608
| 18> 		C    1.282885   0.035191   0.050276
| 19> 		H   -2.249222   0.293782   0.005895
| 20> 		H   -0.155441   1.578639  -0.146107
| 21> 		H    1.212188  -1.084583   0.023102
| 22> 		H    2.227930   0.582761   0.067561
| 23> *
| 24>
| 25>                          ****END OF INPUT****

CARTESIAN COORDINATES (ANGSTROEM)
---------------------------------
  C     -1.225605   -0.351324    0.063644
  O     -1.155966   -1.472825   -0.060038
  C      0.039679    0.469756   -0.021608
  C      1.282885    0.035191    0.050276
  H     -2.249222    0.293782    0.005895
  H     -0.155441    1.578639   -0.146107
  H      1.212188   -1.084583    0.023102
  H      2.227930    0.582761    0.067561

 Total Charge           Charge          ....    0
 Multiplicity           Mult            ....    1
 Number of Electrons    NEL             ....   30
 Basis Dimension        Dim             ....   76

ORBITAL ENERGIES
----------------

  NO   OCC          E(Eh)            E(eV)
   0   2.0000     -19.149001      -521.0708
   1   2.0000     -10.283281      -279.8223
   2   2.0000     -10.206482      -277.7325
   3   2.0000     -10.199119      -277.5321
   4   2.0000      -1.104493       -30.0548
   5   2.0000      -0.788433       -21.4544
   6   2.0000      -0.642490       -17.4830
   7   2.0000      -0.529512       -14.4087
   8   2.0000      -0.506190       -13.7741
   9   2.0000      -0.457926       -12.4608
  10   2.0000      -0.445468       -12.1218
  11   2.0000      -0.431725       -11.7478
  12   2.0000      -0.357974        -9.7410
  13   2.0000      -0.288305        -7.8452
  14   2.0000      -0.259014        -7.0481
  15   0.0000      -0.057357        -1.5608
  16   0.0000       0.062927         1.7123
  17   0.0000       0.066639         1.8133
  18   0.0000       0.090043         2.4502
  19   0.0000       0.120066         3.2672

MULLIKEN ATOMIC CHARGES
-----------------------
   0 C :    0.134992
   1 O :   -0.104045
   2 C :   -0.142097
   3 C :    0.073347
   4 H :   -0.017205
   5 H :   -0.015854
   6 H :    0.032561
   7 H :    0.038302
Sum of atomic charges:    0.0000000

LOEWDIN ATOMIC CHARGES
----------------------
   0 C :   -0.087505
   1 O :    0.088188
   2 C :   -0.089549
   3 C :   -0.001912
   4 H :   -0.004326
   5 H :    0.021523
   6 H :    0.038715
   7 H :    0.034866

  Mayer bond orders larger than 0.100000
B(  0-C ,  1-O ) :   2.2781 B(  0-C ,  2-C ) :   1.0001 B(  0-C ,  4-H ) :   0.8810
B(  2-C ,  3-C ) :   1.9944 B(  2-C ,  5-H ) :   0.9406 B(  3-C ,  6-H ) :   0.9098
B(  3-C ,  7-H ) :   0.9446

-----------------------------------------------------------------------------
         ABSORPTION SPECTRUM VIA TRANSITION ELECTRIC DIPOLE MOMENTS
-----------------------------------------------------------------------------
State   Energy    Wavelength  fosc         T2        TX        TY        TZ
        (cm-1)      (nm)                 (au**2)    (au)      (au)      (au)
-----------------------------------------------------------------------------
   1   31840.7    314.1   0.000274880   0.00284   0.03445  -0.02221   0.03408

FINAL SINGLE POINT ENERGY      -191.635446963540

DIPOLE MOMENT
-------------
                                X             Y             Z
Electronic contribution:     -1.77837      -1.96914       0.09449
Nuclear contribution   :      2.04876       2.63073      -0.05398
                        -----------------------------------------
Total Dipole Moment    :      0.27039       0.66159       0.04051
                        -----------------------------------------
Magnitude (a.u.)       :      0.71585
Magnitude (Debye)      :      1.81956

Rotational constants in cm-1:     0.820063     0.206990     0.165735
Rotational constants in MHz : 24584.882308  6205.395288  4968.612913

                             ****ORCA TERMINATED NORMALLY****
TOTAL RUN TIME: 0 days 0 hours 3 minutes 27 seconds 757 msec
