                         Program Version 5.0.3 -  RELEASE  -
|  1> ! HF-3c
|  2> !TightSCF
|  3> %scf
|  4>  ConvForced true
|  5>  convergence tight
|  6>  MaxIter 500
|  7> end
|  8>
|  9> %tddft
| 10>  nroots 1
| 11> end
| 12>
| 13> # 	13000
| 14> * xyz 0 1
| 15> 		C   -1.219429  -0.298027  -0.016408
| 16> 		O   -1.175556  -1.510364  -0.041031
| 17> 		C    0.021651   0.569854  -0.012824
| 18> 		C    1.246394  -0.062117  -0.021730
| 19> 		H   -2.205896   0.053240   0.155383
| 20> 		H   -0.072945   1.678004  -0.206477
| 21> 		H    1.337810  -1.052707   0.109205
| 22> 		H    2.067823   0.665048   0.043016
| 23> *
| 24>
| 25>                          ****END OF INPUT****

CARTESIAN COORDINATES (ANGSTROEM)
---------------------------------
  C     -1.219429   -0.298027   -0.016408
  O     -1.175556   -1.510364   -0.041031
  C      0.021651    0.569854   -0.012824
  C      1.246394   -0.062117   -0.021730
  H     -2.205896    0.053240    0.155383
  H     -0.072945    1.678004   -0.206477
  H      1.337810   -1.052707    0.109205
  H      2.067823    0.665048    0.043016

 Total Charge           Charge          ....    0
 Multiplicity           Mult            ....    1
 Number of Electrons    NEL             ....   30
 Basis Dimension        Dim             ....   24

ORBITAL ENERGIES
----------------

  NO   OCC          E(Eh)            E(eV)
   0   2.0000     -20.357106      -553.9450
   1   2.0000     -11.289349      -307.1988
   2   2.0000     -11.189597      -304.4844
   3   2.0000     -11.188050      -304.4423
   4   2.0000      -1.399129       -38.0722
   5   2.0000      -1.064191       -28.9581
   6   2.0000      -0.884223       -24.0609
   7   2.0000      -0.760031       -20.6815
   8   2.0000      -0.706433       -19.2230
   9   2.0000      -0.611988       -16.6530
  10   2.0000      -0.580062       -15.7843
  11   2.0000      -0.547564       -14.9000
  12   2.0000      -0.529873       -14.4186
  13   2.0000      -0.412749       -11.2315
  14   2.0000      -0.384149       -10.4532
  15   0.0000       0.127984         3.4826
  16   0.0000       0.288909         7.8616
  17   0.0000       0.557512        15.1707
  18   0.0000       0.579629        15.7725
  19   0.0000       0.674082        18.3427

MULLIKEN ATOMIC CHARGES
-----------------------
   0 C :    0.143283
   1 O :   -0.352570
   2 C :   -0.152236
   3 C :   -0.234115
   4 H :    0.141398
   5 H :    0.145070
   6 H :    0.159287
   7 H :    0.149884
Sum of atomic charges:   -0.0000000

LOEWDIN ATOMIC CHARGES
----------------------
   0 C :    0.131293
   1 O :   -0.259740
   2 C :   -0.112429
   3 C :   -0.128046
   4 H :    0.074130
   5 H :    0.096177
   6 H :    0.097910
   7 H :    0.100704

  Mayer bond orders larger than 0.100000
B(  0-C ,  1-O ) :   1.9047 B(  0-C ,  2-C ) :   1.0170 B(  0-C ,  4-H ) :   0.9362
B(  2-C ,  3-C ) :   1.9436 B(  2-C ,  5-H ) :   0.9609 B(  3-C ,  6-H ) :   0.9636
B(  3-C ,  7-H ) :   0.9650

-----------------------------------------------------------------------------
         ABSORPTION SPECTRUM VIA TRANSITION ELECTRIC DIPOLE MOMENTS
-----------------------------------------------------------------------------
State   Energy    Wavelength  fosc         T2        TX        TY        TZ
        (cm-1)      (nm)                 (au**2)    (au)      (au)      (au)
-----------------------------------------------------------------------------
   1   31540.2    317.1   0.000275901   0.00288  -0.05057  -0.00908   0.01548

Dispersion correction           -0.025549152
FINAL SINGLE POINT ENERGY      -189.329432179628

DIPOLE MOMENT
-------------
                                X             Y             Z
Electronic contribution:     -1.91323      -1.62973      -0.12938
Nuclear contribution   :      2.18806       2.60175       0.17267
                        -----------------------------------------
Total Dipole Moment    :      0.27482       0.97202       0.04329
                        -----------------------------------------
Magnitude (a.u.)       :      1.01105
Magnitude (Debye)      :      2.56989

Rotational constants in cm-1:     0.733508     0.210123     0.163631
Rotational constants in MHz : 21990.006621  6299.323943  4905.542834

                             ****ORCA TERMINATED NORMALLY****
TOTAL RUN TIME: 0 days 0 hours 0 minutes 9 seconds 937 msec
