                         Program Version 5.0.3 -  RELEASE  -
|  1> ! B3LYP cc-pVDZ
|  2> !TightSCF
|  3> %scf
|  4>  ConvForced true
|  5>  convergence tight
|  6>  MaxIter 500
|  7> end
|  8>
|  9> %tddft
| 10>  nroots 1
| 11> end
| 12>
| 13> # 	16307
| 14> * xyz 0 1
| 15> 		C   -1.190958  -0.293912  -0.028684
| 16> 		O   -1.320769  -1.423518   0.507566
| 17> 		C    0.067388   0.475227   0.183139
| 18> 		C    1.198562  -0.005946  -0.146690
| 19> 		H   -2.031790   0.207710  -0.470055
| 20> 		H   -0.051554   1.574192   0.414650
| 21> 		H    1.188777  -1.091599  -0.323857
| 22> 		H    2.107226   0.589611  -0.078294
| 23> *
| 24>
| 25>                          ****END OF INPUT****

CARTESIAN COORDINATES (ANGSTROEM)
---------------------------------
  C     -1.190958   -0.293912   -0.028684
  O     -1.320769   -1.423518    0.507566
  C      0.067388    0.475227    0.183139
  C      1.198562   -0.005946   -0.146690
  H     -2.031790    0.207710   -0.470055
  H     -0.051554    1.574192    0.414650
  H      1.188777   -1.091599   -0.323857
  H      2.107226    0.589611   -0.078294

 Total Charge           Charge          ....    0
 Multiplicity           Mult            ....    1
 Number of Electrons    NEL             ....   30
 Basis Dimension        Dim             ....   76

ORBITAL ENERGIES
----------------

  NO   OCC          E(Eh)            E(eV)
   0   2.0000     -19.140697      -520.8448
   1   2.0000     -10.278878      -279.7025
   2   2.0000     -10.201025      -277.5840
   3   2.0000     -10.198993      -277.5287
   4   2.0000      -1.023951       -27.8631
   5   2.0000      -0.807836       -21.9823
   6   2.0000      -0.656597       -17.8669
   7   2.0000      -0.545183       -14.8352
   8   2.0000      -0.512400       -13.9431
   9   2.0000      -0.443111       -12.0577
  10   2.0000      -0.434043       -11.8109
  11   2.0000      -0.380366       -10.3503
  12   2.0000      -0.369774       -10.0621
  13   2.0000      -0.297687        -8.1005
  14   2.0000      -0.253832        -6.9071
  15   0.0000      -0.055450        -1.5089
  16   0.0000       0.022707         0.6179
  17   0.0000       0.068903         1.8750
  18   0.0000       0.095092         2.5876
  19   0.0000       0.115312         3.1378

MULLIKEN ATOMIC CHARGES
-----------------------
   0 C :    0.190414
   1 O :   -0.229610
   2 C :   -0.091231
   3 C :    0.076826
   4 H :   -0.002811
   5 H :    0.002596
   6 H :    0.028028
   7 H :    0.025787
Sum of atomic charges:    0.0000000

LOEWDIN ATOMIC CHARGES
----------------------
   0 C :    0.014994
   1 O :   -0.041738
   2 C :   -0.071990
   3 C :   -0.008379
   4 H :   -0.001456
   5 H :    0.036947
   6 H :    0.037579
   7 H :    0.034043

  Mayer bond orders larger than 0.100000
B(  0-C ,  1-O ) :   2.1321 B(  0-C ,  2-C ) :   1.0302 B(  0-C ,  4-H ) :   0.9284
B(  2-C ,  3-C ) :   2.0281 B(  2-C ,  5-H ) :   0.9264 B(  3-C ,  6-H ) :   0.9225
B(  3-C ,  7-H ) :   0.9372

-----------------------------------------------------------------------------
         ABSORPTION SPECTRUM VIA TRANSITION ELECTRIC DIPOLE MOMENTS
-----------------------------------------------------------------------------
State   Energy    Wavelength  fosc         T2        TX        TY        TZ
        (cm-1)      (nm)                 (au**2)    (au)      (au)      (au)
-----------------------------------------------------------------------------
   1   29139.0    343.2   0.000021769   0.00025   0.01451  -0.00037  -0.00595

FINAL SINGLE POINT ENERGY      -191.656425373986

DIPOLE MOMENT
-------------
                                X             Y             Z
Electronic contribution:     -2.06002      -1.58029       0.57143
Nuclear contribution   :      2.39548       2.48196      -0.94274
                        -----------------------------------------
Total Dipole Moment    :      0.33547       0.90166      -0.37131
                        -----------------------------------------
Magnitude (a.u.)       :      1.03122
Magnitude (Debye)      :      2.62115

Rotational constants in cm-1:     0.824766     0.196741     0.166555
Rotational constants in MHz : 24725.873146  5898.137707  4993.191951

                             ****ORCA TERMINATED NORMALLY****
TOTAL RUN TIME: 0 days 0 hours 3 minutes 23 seconds 424 msec
