                         Program Version 5.0.3 -  RELEASE  -
|  1> ! HF-3c
|  2> !TightSCF
|  3> %scf
|  4>  ConvForced true
|  5>  convergence tight
|  6>  MaxIter 500
|  7> end
|  8>
|  9> %tddft
| 10>  nroots 1
| 11> end
| 12>
| 13> # 	28711
| 14> * xyz 0 1
| 15> 		C   -0.570946  -0.414973   0.000487
| 16> 		O   -0.547991  -1.576392   0.005174
| 17> 		C    0.606923   0.364506  -0.031962
| 18> 		C    1.819516  -0.164517   0.009440
| 19> 		H   -1.559881   0.134553   0.041602
| 20> 		H    0.459845   1.514742   0.133709
| 21> 		H    1.987748  -1.266897  -0.058182
| 22> 		H    2.649208   0.478311   0.073226
| 23> *
| 24>
| 25>                          ****END OF INPUT****

CARTESIAN COORDINATES (ANGSTROEM)
---------------------------------
  C     -0.570946   -0.414973    0.000487
  O     -0.547991   -1.576392    0.005174
  C      0.606923    0.364506   -0.031962
  C      1.819516   -0.164517    0.009440
  H     -1.559881    0.134553    0.041602
  H      0.459845    1.514742    0.133709
  H      1.987748   -1.266897   -0.058182
  H      2.649208    0.478311    0.073226

 Total Charge           Charge          ....    0
 Multiplicity           Mult            ....    1
 Number of Electrons    NEL             ....   30
 Basis Dimension        Dim             ....   24

ORBITAL ENERGIES
----------------

  NO   OCC          E(Eh)            E(eV)
   0   2.0000     -20.370344      -554.3052
   1   2.0000     -11.304820      -307.6198
   2   2.0000     -11.192028      -304.5506
   3   2.0000     -11.184602      -304.3485
   4   2.0000      -1.439185       -39.1622
   5   2.0000      -1.084831       -29.5198
   6   2.0000      -0.899674       -24.4814
   7   2.0000      -0.743682       -20.2366
   8   2.0000      -0.702697       -19.1213
   9   2.0000      -0.621981       -16.9250
  10   2.0000      -0.600586       -16.3428
  11   2.0000      -0.568823       -15.4785
  12   2.0000      -0.520107       -14.1528
  13   2.0000      -0.410543       -11.1715
  14   2.0000      -0.395754       -10.7690
  15   0.0000       0.135236         3.6800
  16   0.0000       0.336120         9.1463
  17   0.0000       0.521634        14.1944
  18   0.0000       0.632019        17.1981
  19   0.0000       0.649815        17.6824

MULLIKEN ATOMIC CHARGES
-----------------------
   0 C :    0.171494
   1 O :   -0.363365
   2 C :   -0.172440
   3 C :   -0.216702
   4 H :    0.131399
   5 H :    0.141462
   6 H :    0.163555
   7 H :    0.144597
Sum of atomic charges:   -0.0000000

LOEWDIN ATOMIC CHARGES
----------------------
   0 C :    0.140600
   1 O :   -0.254308
   2 C :   -0.137915
   3 C :   -0.115476
   4 H :    0.068776
   5 H :    0.096149
   6 H :    0.110840
   7 H :    0.091335

  Mayer bond orders larger than 0.100000
B(  0-C ,  1-O ) :   1.8936 B(  0-C ,  2-C ) :   1.0433 B(  0-C ,  4-H ) :   0.9168
B(  2-C ,  3-C ) :   1.9349 B(  2-C ,  5-H ) :   0.9551 B(  3-C ,  6-H ) :   0.9561
B(  3-C ,  7-H ) :   0.9659

-----------------------------------------------------------------------------
         ABSORPTION SPECTRUM VIA TRANSITION ELECTRIC DIPOLE MOMENTS
-----------------------------------------------------------------------------
State   Energy    Wavelength  fosc         T2        TX        TY        TZ
        (cm-1)      (nm)                 (au**2)    (au)      (au)      (au)
-----------------------------------------------------------------------------
   1   34247.1    292.0   0.000112436   0.00108   0.03012   0.00111   0.01312

Dispersion correction           -0.026194185
FINAL SINGLE POINT ENERGY      -189.319744134800

DIPOLE MOMENT
-------------
                                X             Y             Z
Electronic contribution:     -1.85590      -1.69700      -0.13205
Nuclear contribution   :      2.16209       2.59423       0.17799
                        -----------------------------------------
Total Dipole Moment    :      0.30619       0.89723       0.04595
                        -----------------------------------------
Magnitude (a.u.)       :      0.94915
Magnitude (Debye)      :      2.41255

Rotational constants in cm-1:     0.781327     0.225009     0.174852
Rotational constants in MHz : 23423.590844  6745.596961  5241.930370

                             ****ORCA TERMINATED NORMALLY****
TOTAL RUN TIME: 0 days 0 hours 0 minutes 14 seconds 767 msec
