                         Program Version 5.0.3 -  RELEASE  -
|  1> ! B3LYP cc-pVDZ
|  2> !TightSCF
|  3> %scf
|  4>  ConvForced true
|  5>  convergence tight
|  6>  MaxIter 500
|  7> end
|  8>
|  9> %tddft
| 10>  nroots 1
| 11> end
| 12>
| 13> # 	1640
| 14> * xyz 0 1
| 15> 		C   -1.181975  -0.267922  -0.056225
| 16> 		O   -1.151582  -1.434404   0.055414
| 17> 		C    0.042060   0.564755   0.070473
| 18> 		C    1.197053   0.061211  -0.073200
| 19> 		H   -2.083793   0.179853  -0.279488
| 20> 		H   -0.014659   1.550922   0.103524
| 21> 		H    0.997687  -1.150391  -0.031848
| 22> 		H    2.173707   0.564822   0.116275
| 23> *
| 24>
| 25>                          ****END OF INPUT****

CARTESIAN COORDINATES (ANGSTROEM)
---------------------------------
  C     -1.181975   -0.267922   -0.056225
  O     -1.151582   -1.434404    0.055414
  C      0.042060    0.564755    0.070473
  C      1.197053    0.061211   -0.073200
  H     -2.083793    0.179853   -0.279488
  H     -0.014659    1.550922    0.103524
  H      0.997687   -1.150391   -0.031848
  H      2.173707    0.564822    0.116275

 Total Charge           Charge          ....    0
 Multiplicity           Mult            ....    1
 Number of Electrons    NEL             ....   30
 Basis Dimension        Dim             ....   76

ORBITAL ENERGIES
----------------

  NO   OCC          E(Eh)            E(eV)
   0   2.0000     -19.140162      -520.8303
   1   2.0000     -10.266979      -279.3787
   2   2.0000     -10.203705      -277.6569
   3   2.0000     -10.178920      -276.9825
   4   2.0000      -1.073736       -29.2178
   5   2.0000      -0.807417       -21.9709
   6   2.0000      -0.651486       -17.7278
   7   2.0000      -0.545264       -14.8374
   8   2.0000      -0.529983       -14.4216
   9   2.0000      -0.446250       -12.1431
  10   2.0000      -0.441864       -12.0237
  11   2.0000      -0.410628       -11.1738
  12   2.0000      -0.346881        -9.4391
  13   2.0000      -0.296278        -8.0621
  14   2.0000      -0.261846        -7.1252
  15   0.0000      -0.055514        -1.5106
  16   0.0000       0.065079         1.7709
  17   0.0000       0.077730         2.1151
  18   0.0000       0.093042         2.5318
  19   0.0000       0.131804         3.5866

MULLIKEN ATOMIC CHARGES
-----------------------
   0 C :    0.214733
   1 O :   -0.165262
   2 C :   -0.034926
   3 C :    0.006047
   4 H :   -0.040150
   5 H :   -0.070526
   6 H :    0.052075
   7 H :    0.038009
Sum of atomic charges:    0.0000000

LOEWDIN ATOMIC CHARGES
----------------------
   0 C :   -0.031206
   1 O :    0.041790
   2 C :   -0.082690
   3 C :   -0.004505
   4 H :   -0.014186
   5 H :   -0.002548
   6 H :    0.055038
   7 H :    0.038306

  Mayer bond orders larger than 0.100000
B(  0-C ,  1-O ) :   2.2014 B(  0-C ,  2-C ) :   1.0266 B(  0-C ,  4-H ) :   0.9372
B(  2-C ,  3-C ) :   1.9998 B(  2-C ,  5-H ) :   0.9496 B(  3-C ,  6-H ) :   0.8916
B(  3-C ,  7-H ) :   0.9382

-----------------------------------------------------------------------------
         ABSORPTION SPECTRUM VIA TRANSITION ELECTRIC DIPOLE MOMENTS
-----------------------------------------------------------------------------
State   Energy    Wavelength  fosc         T2        TX        TY        TZ
        (cm-1)      (nm)                 (au**2)    (au)      (au)      (au)
-----------------------------------------------------------------------------
   1   31779.5    314.7   0.000145267   0.00150   0.01458  -0.00169  -0.03591

FINAL SINGLE POINT ENERGY      -191.620178134837

DIPOLE MOMENT
-------------
                                X             Y             Z
Electronic contribution:     -1.93792      -1.35601       0.06080
Nuclear contribution   :      2.10888       2.22880      -0.09085
                        -----------------------------------------
Total Dipole Moment    :      0.17096       0.87279      -0.03006
                        -----------------------------------------
Magnitude (a.u.)       :      0.88989
Magnitude (Debye)      :      2.26191

Rotational constants in cm-1:     0.837523     0.218275     0.174258
Rotational constants in MHz : 25108.293825  6543.713392  5224.128258

                             ****ORCA TERMINATED NORMALLY****
TOTAL RUN TIME: 0 days 0 hours 3 minutes 20 seconds 99 msec
