                         Program Version 5.0.3 -  RELEASE  -
|  1> ! B3LYP cc-pVDZ
|  2> !TightSCF
|  3> %scf
|  4>  ConvForced true
|  5>  convergence tight
|  6>  MaxIter 500
|  7> end
|  8>
|  9> %tddft
| 10>  nroots 1
| 11> end
| 12>
| 13> # 	8714
| 14> * xyz 0 1
| 15> 		C   -1.166852  -0.286235   0.102876
| 16> 		O   -2.096100  -0.457531   0.826381
| 17> 		C    0.032844   0.425186   0.345522
| 18> 		C    1.160773   0.091261  -0.272395
| 19> 		H   -1.242007  -0.874213  -0.863463
| 20> 		H    0.029208   1.152908   1.114831
| 21> 		H    1.188201  -0.705546  -1.146625
| 22> 		H    2.155900   0.667049  -0.138091
| 23> *
| 24>
| 25>                          ****END OF INPUT****

CARTESIAN COORDINATES (ANGSTROEM)
---------------------------------
  C     -1.166852   -0.286235    0.102876
  O     -2.096100   -0.457531    0.826381
  C      0.032844    0.425186    0.345522
  C      1.160773    0.091261   -0.272395
  H     -1.242007   -0.874213   -0.863463
  H      0.029208    1.152908    1.114831
  H      1.188201   -0.705546   -1.146625
  H      2.155900    0.667049   -0.138091

 Total Charge           Charge          ....    0
 Multiplicity           Mult            ....    1
 Number of Electrons    NEL             ....   30
 Basis Dimension        Dim             ....   76

ORBITAL ENERGIES
----------------

  NO   OCC          E(Eh)            E(eV)
   0   2.0000     -19.133125      -520.6388
   1   2.0000     -10.267977      -279.4059
   2   2.0000     -10.234370      -278.4914
   3   2.0000     -10.205550      -277.7071
   4   2.0000      -1.055461       -28.7205
   5   2.0000      -0.813112       -22.1259
   6   2.0000      -0.646288       -17.5864
   7   2.0000      -0.568087       -15.4584
   8   2.0000      -0.478620       -13.0239
   9   2.0000      -0.473082       -12.8732
  10   2.0000      -0.423767       -11.5313
  11   2.0000      -0.399353       -10.8669
  12   2.0000      -0.384156       -10.4534
  13   2.0000      -0.297996        -8.1089
  14   2.0000      -0.249806        -6.7976
  15   0.0000      -0.065041        -1.7699
  16   0.0000       0.051037         1.3888
  17   0.0000       0.064140         1.7453
  18   0.0000       0.077714         2.1147
  19   0.0000       0.117602         3.2001

MULLIKEN ATOMIC CHARGES
-----------------------
   0 C :    0.154640
   1 O :   -0.178387
   2 C :   -0.005727
   3 C :   -0.025733
   4 H :   -0.045654
   5 H :   -0.009519
   6 H :    0.053024
   7 H :    0.057356
Sum of atomic charges:    0.0000000

LOEWDIN ATOMIC CHARGES
----------------------
   0 C :   -0.066141
   1 O :    0.017408
   2 C :   -0.064335
   3 C :    0.000576
   4 H :   -0.010498
   5 H :    0.029847
   6 H :    0.046326
   7 H :    0.046816

  Mayer bond orders larger than 0.100000
B(  0-C ,  1-O ) :   2.1909 B(  0-C ,  2-C ) :   1.0883 B(  0-C ,  4-H ) :   0.9216
B(  2-C ,  3-C ) :   1.9257 B(  2-C ,  5-H ) :   0.9402 B(  3-C ,  6-H ) :   0.9361
B(  3-C ,  7-H ) :   0.9383

-----------------------------------------------------------------------------
         ABSORPTION SPECTRUM VIA TRANSITION ELECTRIC DIPOLE MOMENTS
-----------------------------------------------------------------------------
State   Energy    Wavelength  fosc         T2        TX        TY        TZ
        (cm-1)      (nm)                 (au**2)    (au)      (au)      (au)
-----------------------------------------------------------------------------
   1   28090.3    356.0   0.000228783   0.00268   0.04134  -0.03004  -0.00834

FINAL SINGLE POINT ENERGY      -191.667983125416

DIPOLE MOMENT
-------------
                                X             Y             Z
Electronic contribution:     -3.02455      -0.22953       1.45288
Nuclear contribution   :      4.05615       0.50840      -1.91777
                        -----------------------------------------
Total Dipole Moment    :      1.03160       0.27887      -0.46489
                        -----------------------------------------
Magnitude (a.u.)       :      1.16537
Magnitude (Debye)      :      2.96214

Rotational constants in cm-1:     1.536709     0.159467     0.146924
Rotational constants in MHz : 46069.366341  4780.691393  4404.665078

                             ****ORCA TERMINATED NORMALLY****
TOTAL RUN TIME: 0 days 0 hours 3 minutes 24 seconds 366 msec
