                         Program Version 5.0.3 -  RELEASE  -
|  1> ! B3LYP cc-pVDZ
|  2> !TightSCF
|  3> %scf
|  4>  ConvForced true
|  5>  convergence tight
|  6>  MaxIter 500
|  7> end
|  8>
|  9> %tddft
| 10>  nroots 1
| 11> end
| 12>
| 13> # 	19271
| 14> * xyz 0 1
| 15> 		C   -1.184940  -0.304792   0.029755
| 16> 		O   -1.691195  -0.981477   0.943110
| 17> 		C    0.037281   0.476177   0.273249
| 18> 		C    1.192732   0.005703  -0.162365
| 19> 		H   -1.597178  -0.321087  -1.009500
| 20> 		H   -0.121419   1.345747   0.902051
| 21> 		H    1.161585  -0.859453  -0.825628
| 22> 		H    2.188701   0.610800  -0.181914
| 23> *
| 24>
| 25>                          ****END OF INPUT****

CARTESIAN COORDINATES (ANGSTROEM)
---------------------------------
  C     -1.184940   -0.304792    0.029755
  O     -1.691195   -0.981477    0.943110
  C      0.037281    0.476177    0.273249
  C      1.192732    0.005703   -0.162365
  H     -1.597178   -0.321087   -1.009500
  H     -0.121419    1.345747    0.902051
  H      1.161585   -0.859453   -0.825628
  H      2.188701    0.610800   -0.181914

 Total Charge           Charge          ....    0
 Multiplicity           Mult            ....    1
 Number of Electrons    NEL             ....   30
 Basis Dimension        Dim             ....   76

ORBITAL ENERGIES
----------------

  NO   OCC          E(Eh)            E(eV)
   0   2.0000     -19.145593      -520.9781
   1   2.0000     -10.283582      -279.8305
   2   2.0000     -10.210866      -277.8518
   3   2.0000     -10.206460      -277.7319
   4   2.0000      -1.034233       -28.1429
   5   2.0000      -0.801985       -21.8231
   6   2.0000      -0.646854       -17.6018
   7   2.0000      -0.565987       -15.4013
   8   2.0000      -0.485724       -13.2172
   9   2.0000      -0.461272       -12.5518
  10   2.0000      -0.437357       -11.9011
  11   2.0000      -0.382575       -10.4104
  12   2.0000      -0.367483        -9.9997
  13   2.0000      -0.291208        -7.9242
  14   2.0000      -0.256094        -6.9687
  15   0.0000      -0.051710        -1.4071
  16   0.0000      -0.000416        -0.0113
  17   0.0000       0.080131         2.1805
  18   0.0000       0.087376         2.3776
  19   0.0000       0.103228         2.8090

MULLIKEN ATOMIC CHARGES
-----------------------
   0 C :    0.157046
   1 O :   -0.208007
   2 C :   -0.044303
   3 C :    0.000707
   4 H :    0.005187
   5 H :    0.017725
   6 H :    0.021505
   7 H :    0.050139
Sum of atomic charges:   -0.0000000

LOEWDIN ATOMIC CHARGES
----------------------
   0 C :    0.002454
   1 O :   -0.020712
   2 C :   -0.055151
   3 C :   -0.037694
   4 H :    0.001417
   5 H :    0.036424
   6 H :    0.026771
   7 H :    0.046491

  Mayer bond orders larger than 0.100000
B(  0-C ,  1-O ) :   2.1828 B(  0-C ,  2-C ) :   1.0031 B(  0-C ,  4-H ) :   0.9184
B(  2-C ,  3-C ) :   2.0166 B(  2-C ,  5-H ) :   0.9422 B(  3-C ,  6-H ) :   0.9382
B(  3-C ,  7-H ) :   0.9453

-----------------------------------------------------------------------------
         ABSORPTION SPECTRUM VIA TRANSITION ELECTRIC DIPOLE MOMENTS
-----------------------------------------------------------------------------
State   Energy    Wavelength  fosc         T2        TX        TY        TZ
        (cm-1)      (nm)                 (au**2)    (au)      (au)      (au)
-----------------------------------------------------------------------------
   1   30303.1    330.0   0.000720919   0.00783   0.08146  -0.00183  -0.03454

FINAL SINGLE POINT ENERGY      -191.651120299584

DIPOLE MOMENT
-------------
                                X             Y             Z
Electronic contribution:     -2.66918      -0.98207       1.43518
Nuclear contribution   :      3.17715       1.57323      -2.08407
                        -----------------------------------------
Total Dipole Moment    :      0.50797       0.59116      -0.64889
                        -----------------------------------------
Magnitude (a.u.)       :      1.01418
Magnitude (Debye)      :      2.57784

Rotational constants in cm-1:     1.009392     0.166721     0.163363
Rotational constants in MHz : 30260.797197  4998.156463  4897.501519

                             ****ORCA TERMINATED NORMALLY****
TOTAL RUN TIME: 0 days 0 hours 3 minutes 11 seconds 999 msec
