                         Program Version 5.0.3 -  RELEASE  -
|  1> ! B3LYP cc-pVDZ
|  2> !TightSCF
|  3> %scf
|  4>  ConvForced true
|  5>  convergence tight
|  6>  MaxIter 500
|  7> end
|  8>
|  9> %tddft
| 10>  nroots 1
| 11> end
| 12>
| 13> # 	5383
| 14> * xyz 0 1
| 15> 		C   -1.190557  -0.287365   0.035126
| 16> 		O   -1.288425  -1.406178   0.395383
| 17> 		C   -0.075022   0.560861   0.239747
| 18> 		C    1.181775  -0.023391  -0.069987
| 19> 		H   -1.895636   0.103714  -0.819449
| 20> 		H   -0.051494   1.495324   0.367748
| 21> 		H    1.332002  -1.090517  -0.143566
| 22> 		H    2.035659   0.588845   0.011569
| 23> *
| 24>
| 25>                          ****END OF INPUT****

CARTESIAN COORDINATES (ANGSTROEM)
---------------------------------
  C     -1.190557   -0.287365    0.035126
  O     -1.288425   -1.406178    0.395383
  C     -0.075022    0.560861    0.239747
  C      1.181775   -0.023391   -0.069987
  H     -1.895636    0.103714   -0.819449
  H     -0.051494    1.495324    0.367748
  H      1.332002   -1.090517   -0.143566
  H      2.035659    0.588845    0.011569

 Total Charge           Charge          ....    0
 Multiplicity           Mult            ....    1
 Number of Electrons    NEL             ....   30
 Basis Dimension        Dim             ....   76

ORBITAL ENERGIES
----------------

  NO   OCC          E(Eh)            E(eV)
   0   2.0000     -19.137123      -520.7476
   1   2.0000     -10.275039      -279.5980
   2   2.0000     -10.216147      -277.9955
   3   2.0000     -10.200129      -277.5596
   4   2.0000      -1.064928       -28.9782
   5   2.0000      -0.799924       -21.7671
   6   2.0000      -0.660006       -17.9597
   7   2.0000      -0.565630       -15.3916
   8   2.0000      -0.512227       -13.9384
   9   2.0000      -0.447168       -12.1681
  10   2.0000      -0.442264       -12.0346
  11   2.0000      -0.408821       -11.1246
  12   2.0000      -0.380383       -10.3508
  13   2.0000      -0.278422        -7.5762
  14   2.0000      -0.253477        -6.8975
  15   0.0000      -0.060181        -1.6376
  16   0.0000       0.012746         0.3468
  17   0.0000       0.084939         2.3113
  18   0.0000       0.096805         2.6342
  19   0.0000       0.118640         3.2284

MULLIKEN ATOMIC CHARGES
-----------------------
   0 C :    0.149254
   1 O :   -0.164965
   2 C :    0.031228
   3 C :    0.021238
   4 H :   -0.023438
   5 H :   -0.077074
   6 H :    0.040735
   7 H :    0.023023
Sum of atomic charges:   -0.0000000

LOEWDIN ATOMIC CHARGES
----------------------
   0 C :   -0.066958
   1 O :    0.028495
   2 C :   -0.023148
   3 C :    0.035942
   4 H :   -0.005154
   5 H :   -0.016339
   6 H :    0.028489
   7 H :    0.018673

  Mayer bond orders larger than 0.100000
B(  0-C ,  1-O ) :   2.2251 B(  0-C ,  2-C ) :   1.0406 B(  0-C ,  4-H ) :   0.8938
B(  2-C ,  3-C ) :   1.9577 B(  2-C ,  5-H ) :   0.9440 B(  3-C ,  6-H ) :   0.9551
B(  3-C ,  7-H ) :   0.9542

-----------------------------------------------------------------------------
         ABSORPTION SPECTRUM VIA TRANSITION ELECTRIC DIPOLE MOMENTS
-----------------------------------------------------------------------------
State   Energy    Wavelength  fosc         T2        TX        TY        TZ
        (cm-1)      (nm)                 (au**2)    (au)      (au)      (au)
-----------------------------------------------------------------------------
   1   30201.6    331.1   0.001406567   0.01533  -0.12369  -0.00285  -0.00497

FINAL SINGLE POINT ENERGY      -191.626113351189

DIPOLE MOMENT
-------------
                                X             Y             Z
Electronic contribution:     -2.18230      -1.42053       0.88204
Nuclear contribution   :      2.67030       2.24435      -1.09269
                        -----------------------------------------
Total Dipole Moment    :      0.48800       0.82382      -0.21065
                        -----------------------------------------
Magnitude (a.u.)       :      0.98041
Magnitude (Debye)      :      2.49200

Rotational constants in cm-1:     0.770802     0.210140     0.172737
Rotational constants in MHz : 23108.073768  6299.827822  5178.521419

                             ****ORCA TERMINATED NORMALLY****
TOTAL RUN TIME: 0 days 0 hours 3 minutes 22 seconds 210 msec
