                         Program Version 5.0.3 -  RELEASE  -
|  1> ! HF-3c
|  2> !TightSCF
|  3> %scf
|  4>  ConvForced true
|  5>  convergence tight
|  6>  MaxIter 500
|  7> end
|  8>
|  9> %tddft
| 10>  nroots 1
| 11> end
| 12>
| 13> # 	20086
| 14> * xyz 0 1
| 15> 		C   -0.586351  -0.389234   0.045115
| 16> 		O   -0.560513  -1.656365  -0.022045
| 17> 		C    0.656879   0.405677  -0.025970
| 18> 		C    1.833395  -0.135029   0.008542
| 19> 		H   -1.606750   0.208369   0.058038
| 20> 		H    0.460064   1.537477  -0.148764
| 21> 		H    1.886996  -1.371164   0.016112
| 22> 		H    2.460424   0.603891   0.091523
| 23> *
| 24>
| 25>                          ****END OF INPUT****

CARTESIAN COORDINATES (ANGSTROEM)
---------------------------------
  C     -0.586351   -0.389234    0.045115
  O     -0.560513   -1.656365   -0.022045
  C      0.656879    0.405677   -0.025970
  C      1.833395   -0.135029    0.008542
  H     -1.606750    0.208369    0.058038
  H      0.460064    1.537477   -0.148764
  H      1.886996   -1.371164    0.016112
  H      2.460424    0.603891    0.091523

 Total Charge           Charge          ....    0
 Multiplicity           Mult            ....    1
 Number of Electrons    NEL             ....   30
 Basis Dimension        Dim             ....   24

ORBITAL ENERGIES
----------------

  NO   OCC          E(Eh)            E(eV)
   0   2.0000     -20.340007      -553.4797
   1   2.0000     -11.274333      -306.7902
   2   2.0000     -11.186005      -304.3867
   3   2.0000     -11.182993      -304.3047
   4   2.0000      -1.354380       -36.8546
   5   2.0000      -1.092151       -29.7189
   6   2.0000      -0.888963       -24.1899
   7   2.0000      -0.715938       -19.4817
   8   2.0000      -0.692159       -18.8346
   9   2.0000      -0.589586       -16.0435
  10   2.0000      -0.582497       -15.8506
  11   2.0000      -0.521317       -14.1858
  12   2.0000      -0.505796       -13.7634
  13   2.0000      -0.408957       -11.1283
  14   2.0000      -0.390705       -10.6316
  15   0.0000       0.130711         3.5568
  16   0.0000       0.314638         8.5617
  17   0.0000       0.467873        12.7315
  18   0.0000       0.551825        15.0159
  19   0.0000       0.591518        16.0960

MULLIKEN ATOMIC CHARGES
-----------------------
   0 C :    0.154791
   1 O :   -0.356412
   2 C :   -0.166138
   3 C :   -0.250144
   4 H :    0.136629
   5 H :    0.137300
   6 H :    0.192330
   7 H :    0.151644
Sum of atomic charges:   -0.0000000

LOEWDIN ATOMIC CHARGES
----------------------
   0 C :    0.143341
   1 O :   -0.278657
   2 C :   -0.125857
   3 C :   -0.150320
   4 H :    0.081958
   5 H :    0.090767
   6 H :    0.146714
   7 H :    0.092055

  Mayer bond orders larger than 0.100000
B(  0-C ,  1-O ) :   1.8961 B(  0-C ,  2-C ) :   1.0325 B(  0-C ,  4-H ) :   0.9252
B(  2-C ,  3-C ) :   1.9497 B(  2-C ,  5-H ) :   0.9562 B(  3-C ,  6-H ) :   0.9403
B(  3-C ,  7-H ) :   0.9636

-----------------------------------------------------------------------------
         ABSORPTION SPECTRUM VIA TRANSITION ELECTRIC DIPOLE MOMENTS
-----------------------------------------------------------------------------
State   Energy    Wavelength  fosc         T2        TX        TY        TZ
        (cm-1)      (nm)                 (au**2)    (au)      (au)      (au)
-----------------------------------------------------------------------------
   1   29923.8    334.2   0.000034780   0.00038   0.00333  -0.00499   0.01862

Dispersion correction           -0.025936124
FINAL SINGLE POINT ENERGY      -189.302018099000

DIPOLE MOMENT
-------------
                                X             Y             Z
Electronic contribution:     -1.64385      -1.76736       0.02171
Nuclear contribution   :      1.84365       2.70382       0.01575
                        -----------------------------------------
Total Dipole Moment    :      0.19980       0.93646       0.03745
                        -----------------------------------------
Magnitude (a.u.)       :      0.95827
Magnitude (Debye)      :      2.43573

Rotational constants in cm-1:     0.725777     0.214567     0.165853
Rotational constants in MHz : 21758.253566  6432.560365  4972.153297

                             ****ORCA TERMINATED NORMALLY****
TOTAL RUN TIME: 0 days 0 hours 0 minutes 15 seconds 792 msec
