                         Program Version 5.0.3 -  RELEASE  -
|  1> ! B3LYP cc-pVDZ
|  2> !TightSCF
|  3> %scf
|  4>  ConvForced true
|  5>  convergence tight
|  6>  MaxIter 500
|  7> end
|  8>
|  9> %tddft
| 10>  nroots 1
| 11> end
| 12>
| 13> # 	29398
| 14> * xyz 0 1
| 15> 		C   -0.668652  -0.437779  -0.011843
| 16> 		O   -0.550930  -1.621864   0.017193
| 17> 		C    0.647087   0.421721  -0.025314
| 18> 		C    1.847449  -0.132942   0.004228
| 19> 		H   -1.499625  -0.001120  -0.030278
| 20> 		H    0.401899   1.554467   0.192709
| 21> 		H    2.107878  -1.210751  -0.151714
| 22> 		H    2.920466   0.445846   0.126748
| 23> *
| 24>
| 25>                          ****END OF INPUT****

CARTESIAN COORDINATES (ANGSTROEM)
---------------------------------
  C     -0.668652   -0.437779   -0.011843
  O     -0.550930   -1.621864    0.017193
  C      0.647087    0.421721   -0.025314
  C      1.847449   -0.132942    0.004228
  H     -1.499625   -0.001120   -0.030278
  H      0.401899    1.554467    0.192709
  H      2.107878   -1.210751   -0.151714
  H      2.920466    0.445846    0.126748

 Total Charge           Charge          ....    0
 Multiplicity           Mult            ....    1
 Number of Electrons    NEL             ....   30
 Basis Dimension        Dim             ....   76

ORBITAL ENERGIES
----------------

  NO   OCC          E(Eh)            E(eV)
   0   2.0000     -19.138854      -520.7947
   1   2.0000     -10.266861      -279.3755
   2   2.0000     -10.218619      -278.0628
   3   2.0000     -10.209841      -277.8239
   4   2.0000      -1.059516       -28.8309
   5   2.0000      -0.775426       -21.1004
   6   2.0000      -0.661023       -17.9873
   7   2.0000      -0.559387       -15.2217
   8   2.0000      -0.487867       -13.2755
   9   2.0000      -0.449313       -12.2264
  10   2.0000      -0.427297       -11.6273
  11   2.0000      -0.402379       -10.9493
  12   2.0000      -0.355454        -9.6724
  13   2.0000      -0.284850        -7.7512
  14   2.0000      -0.253728        -6.9043
  15   0.0000      -0.059815        -1.6277
  16   0.0000       0.052237         1.4214
  17   0.0000       0.056455         1.5362
  18   0.0000       0.082449         2.2436
  19   0.0000       0.125123         3.4048

MULLIKEN ATOMIC CHARGES
-----------------------
   0 C :    0.289230
   1 O :   -0.175219
   2 C :   -0.157173
   3 C :    0.002732
   4 H :   -0.074283
   5 H :    0.014837
   6 H :    0.048879
   7 H :    0.050998
Sum of atomic charges:   -0.0000000

LOEWDIN ATOMIC CHARGES
----------------------
   0 C :    0.003248
   1 O :    0.026583
   2 C :   -0.095802
   3 C :   -0.013650
   4 H :   -0.043089
   5 H :    0.036006
   6 H :    0.036981
   7 H :    0.049723

  Mayer bond orders larger than 0.100000
B(  0-C ,  1-O ) :   2.2280 B(  0-C ,  2-C ) :   1.0068 B(  0-C ,  4-H ) :   0.9368
B(  2-C ,  3-C ) :   1.9765 B(  2-C ,  5-H ) :   0.9309 B(  3-C ,  6-H ) :   0.9366
B(  3-C ,  7-H ) :   0.9461

-----------------------------------------------------------------------------
         ABSORPTION SPECTRUM VIA TRANSITION ELECTRIC DIPOLE MOMENTS
-----------------------------------------------------------------------------
State   Energy    Wavelength  fosc         T2        TX        TY        TZ
        (cm-1)      (nm)                 (au**2)    (au)      (au)      (au)
-----------------------------------------------------------------------------
   1   29191.0    342.6   0.000341541   0.00385  -0.06017  -0.01514   0.00125

FINAL SINGLE POINT ENERGY      -191.628000015730

DIPOLE MOMENT
-------------
                                X             Y             Z
Electronic contribution:     -2.41501      -1.76732      -0.11510
Nuclear contribution   :      2.53180       2.52628       0.12800
                        -----------------------------------------
Total Dipole Moment    :      0.11679       0.75897       0.01290
                        -----------------------------------------
Magnitude (a.u.)       :      0.76801
Magnitude (Debye)      :      1.95212

Rotational constants in cm-1:     0.736803     0.206190     0.161389
Rotational constants in MHz : 22088.790007  6181.413560  4838.329775

                             ****ORCA TERMINATED NORMALLY****
TOTAL RUN TIME: 0 days 0 hours 3 minutes 10 seconds 620 msec
