                         Program Version 5.0.3 -  RELEASE  -
|  1> ! B3LYP cc-pVDZ
|  2> !TightSCF
|  3> %scf
|  4>  ConvForced true
|  5>  convergence tight
|  6>  MaxIter 500
|  7> end
|  8>
|  9> %tddft
| 10>  nroots 1
| 11> end
| 12>
| 13> # 	12902
| 14> * xyz 0 1
| 15> 		C   -1.217895  -0.349690   0.042975
| 16> 		O   -1.312351  -1.523441   0.348686
| 17> 		C    0.025881   0.549395   0.105976
| 18> 		C    1.292851   0.032582  -0.009299
| 19> 		H   -2.250938   0.121093  -0.435836
| 20> 		H   -0.265687   1.615491   0.256980
| 21> 		H    1.537261  -1.029046  -0.270142
| 22> 		H    2.135426   0.598078  -0.100765
| 23> *
| 24>
| 25>                          ****END OF INPUT****

CARTESIAN COORDINATES (ANGSTROEM)
---------------------------------
  C     -1.217895   -0.349690    0.042975
  O     -1.312351   -1.523441    0.348686
  C      0.025881    0.549395    0.105976
  C      1.292851    0.032582   -0.009299
  H     -2.250938    0.121093   -0.435836
  H     -0.265687    1.615491    0.256980
  H      1.537261   -1.029046   -0.270142
  H      2.135426    0.598078   -0.100765

 Total Charge           Charge          ....    0
 Multiplicity           Mult            ....    1
 Number of Electrons    NEL             ....   30
 Basis Dimension        Dim             ....   76

ORBITAL ENERGIES
----------------

  NO   OCC          E(Eh)            E(eV)
   0   2.0000     -19.142403      -520.8913
   1   2.0000     -10.288297      -279.9588
   2   2.0000     -10.225480      -278.2494
   3   2.0000     -10.218760      -278.0666
   4   2.0000      -1.043780       -28.4027
   5   2.0000      -0.786192       -21.3934
   6   2.0000      -0.654015       -17.7966
   7   2.0000      -0.539325       -14.6758
   8   2.0000      -0.493378       -13.4255
   9   2.0000      -0.452102       -12.3023
  10   2.0000      -0.430020       -11.7014
  11   2.0000      -0.390287       -10.6202
  12   2.0000      -0.383198       -10.4273
  13   2.0000      -0.288480        -7.8499
  14   2.0000      -0.251814        -6.8522
  15   0.0000      -0.067811        -1.8452
  16   0.0000       0.030349         0.8258
  17   0.0000       0.065132         1.7723
  18   0.0000       0.088130         2.3981
  19   0.0000       0.099461         2.7065

MULLIKEN ATOMIC CHARGES
-----------------------
   0 C :    0.129495
   1 O :   -0.182122
   2 C :   -0.107680
   3 C :    0.082009
   4 H :   -0.008125
   5 H :    0.020406
   6 H :    0.049497
   7 H :    0.016521
Sum of atomic charges:    0.0000000

LOEWDIN ATOMIC CHARGES
----------------------
   0 C :   -0.035672
   1 O :   -0.009479
   2 C :   -0.068133
   3 C :    0.021959
   4 H :   -0.001673
   5 H :    0.036796
   6 H :    0.044580
   7 H :    0.011622

  Mayer bond orders larger than 0.100000
B(  0-C ,  1-O ) :   2.2040 B(  0-C ,  2-C ) :   0.9990 B(  0-C ,  4-H ) :   0.8902
B(  2-C ,  3-C ) :   1.9519 B(  2-C ,  5-H ) :   0.9449 B(  3-C ,  6-H ) :   0.9497
B(  3-C ,  7-H ) :   0.9528

-----------------------------------------------------------------------------
         ABSORPTION SPECTRUM VIA TRANSITION ELECTRIC DIPOLE MOMENTS
-----------------------------------------------------------------------------
State   Energy    Wavelength  fosc         T2        TX        TY        TZ
        (cm-1)      (nm)                 (au**2)    (au)      (au)      (au)
-----------------------------------------------------------------------------
   1   27893.2    358.5   0.000117116   0.00138  -0.03115  -0.00298   0.02008

FINAL SINGLE POINT ENERGY      -191.661696604171

DIPOLE MOMENT
-------------
                                X             Y             Z
Electronic contribution:     -1.79198      -1.72160       0.71686
Nuclear contribution   :      2.31643       2.56434      -0.96098
                        -----------------------------------------
Total Dipole Moment    :      0.52445       0.84274      -0.24412
                        -----------------------------------------
Magnitude (a.u.)       :      1.02218
Magnitude (Debye)      :      2.59817

Rotational constants in cm-1:     0.762437     0.185488     0.151708
Rotational constants in MHz : 22857.277287  5560.777001  4548.081328

                             ****ORCA TERMINATED NORMALLY****
TOTAL RUN TIME: 0 days 0 hours 3 minutes 11 seconds 842 msec
