                         Program Version 5.0.3 -  RELEASE  -
|  1> ! B3LYP cc-pVDZ
|  2> !TightSCF
|  3> %scf
|  4>  ConvForced true
|  5>  convergence tight
|  6>  MaxIter 500
|  7> end
|  8>
|  9> %tddft
| 10>  nroots 1
| 11> end
| 12>
| 13> # 	31306
| 14> * xyz 0 1
| 15> 		C   -0.593570  -0.455683   0.035432
| 16> 		O   -0.541095  -1.620410  -0.022352
| 17> 		C    0.638149   0.485421  -0.011889
| 18> 		C    1.794474  -0.214087   0.002426
| 19> 		H   -1.390024   0.271446   0.139717
| 20> 		H    0.406672   1.527966  -0.262141
| 21> 		H    1.880877  -1.163259   0.011483
| 22> 		H    2.741055   0.559310   0.150423
| 23> *
| 24>
| 25>                          ****END OF INPUT****

CARTESIAN COORDINATES (ANGSTROEM)
---------------------------------
  C     -0.593570   -0.455683    0.035432
  O     -0.541095   -1.620410   -0.022352
  C      0.638149    0.485421   -0.011889
  C      1.794474   -0.214087    0.002426
  H     -1.390024    0.271446    0.139717
  H      0.406672    1.527966   -0.262141
  H      1.880877   -1.163259    0.011483
  H      2.741055    0.559310    0.150423

 Total Charge           Charge          ....    0
 Multiplicity           Mult            ....    1
 Number of Electrons    NEL             ....   30
 Basis Dimension        Dim             ....   76

ORBITAL ENERGIES
----------------

  NO   OCC          E(Eh)            E(eV)
   0   2.0000     -19.146449      -521.0014
   1   2.0000     -10.272795      -279.5370
   2   2.0000     -10.209792      -277.8226
   3   2.0000     -10.200442      -277.5681
   4   2.0000      -1.074980       -29.2517
   5   2.0000      -0.786789       -21.4096
   6   2.0000      -0.655868       -17.8471
   7   2.0000      -0.551648       -15.0111
   8   2.0000      -0.493306       -13.4235
   9   2.0000      -0.467238       -12.7142
  10   2.0000      -0.429464       -11.6863
  11   2.0000      -0.409876       -11.1533
  12   2.0000      -0.374760       -10.1977
  13   2.0000      -0.283666        -7.7190
  14   2.0000      -0.248461        -6.7610
  15   0.0000      -0.061579        -1.6757
  16   0.0000       0.046296         1.2598
  17   0.0000       0.065585         1.7846
  18   0.0000       0.087557         2.3826
  19   0.0000       0.131287         3.5725

MULLIKEN ATOMIC CHARGES
-----------------------
   0 C :    0.202947
   1 O :   -0.153991
   2 C :   -0.169434
   3 C :    0.128624
   4 H :   -0.033976
   5 H :    0.008707
   6 H :   -0.024872
   7 H :    0.041994
Sum of atomic charges:   -0.0000000

LOEWDIN ATOMIC CHARGES
----------------------
   0 C :   -0.051026
   1 O :    0.044294
   2 C :   -0.080467
   3 C :    0.045475
   4 H :   -0.018489
   5 H :    0.028326
   6 H :   -0.020840
   7 H :    0.052728

  Mayer bond orders larger than 0.100000
B(  0-C ,  1-O ) :   2.2520 B(  0-C ,  2-C ) :   1.0191 B(  0-C ,  4-H ) :   0.9135
B(  2-C ,  3-C ) :   1.9596 B(  2-C ,  5-H ) :   0.9496 B(  3-C ,  6-H ) :   0.9369
B(  3-C ,  7-H ) :   0.9486

-----------------------------------------------------------------------------
         ABSORPTION SPECTRUM VIA TRANSITION ELECTRIC DIPOLE MOMENTS
-----------------------------------------------------------------------------
State   Energy    Wavelength  fosc         T2        TX        TY        TZ
        (cm-1)      (nm)                 (au**2)    (au)      (au)      (au)
-----------------------------------------------------------------------------
   1   28763.5    347.7   0.000352338   0.00403   0.05339   0.00624  -0.03381

FINAL SINGLE POINT ENERGY      -191.626255475865

DIPOLE MOMENT
-------------
                                X             Y             Z
Electronic contribution:     -2.02766      -2.11145      -0.03042
Nuclear contribution   :      2.25654       2.90756       0.03711
                        -----------------------------------------
Total Dipole Moment    :      0.22888       0.79611       0.00669
                        -----------------------------------------
Magnitude (a.u.)       :      0.82838
Magnitude (Debye)      :      2.10559

Rotational constants in cm-1:     0.718448     0.220698     0.169298
Rotational constants in MHz : 21538.522737  6616.355167  5075.418942

                             ****ORCA TERMINATED NORMALLY****
TOTAL RUN TIME: 0 days 0 hours 3 minutes 26 seconds 285 msec
