                         Program Version 5.0.3 -  RELEASE  -
|  1> ! HF-3c
|  2> !TightSCF
|  3> %scf
|  4>  ConvForced true
|  5>  convergence tight
|  6>  MaxIter 500
|  7> end
|  8>
|  9> %tddft
| 10>  nroots 1
| 11> end
| 12>
| 13> # 	16354
| 14> * xyz 0 1
| 15> 		C   -1.183505  -0.285637  -0.048791
| 16> 		O   -1.917495  -0.785036  -0.904570
| 17> 		C    0.040987   0.429224  -0.269535
| 18> 		C    1.147141   0.017026   0.162386
| 19> 		H   -1.324943  -0.609386   0.918101
| 20> 		H   -0.028391   1.373747  -0.765676
| 21> 		H    1.302130  -0.751030   0.683167
| 22> 		H    2.025944   0.593581   0.125481
| 23> *
| 24>
| 25>                          ****END OF INPUT****

CARTESIAN COORDINATES (ANGSTROEM)
---------------------------------
  C     -1.183505   -0.285637   -0.048791
  O     -1.917495   -0.785036   -0.904570
  C      0.040987    0.429224   -0.269535
  C      1.147141    0.017026    0.162386
  H     -1.324943   -0.609386    0.918101
  H     -0.028391    1.373747   -0.765676
  H      1.302130   -0.751030    0.683167
  H      2.025944    0.593581    0.125481

 Total Charge           Charge          ....    0
 Multiplicity           Mult            ....    1
 Number of Electrons    NEL             ....   30
 Basis Dimension        Dim             ....   24

ORBITAL ENERGIES
----------------

  NO   OCC          E(Eh)            E(eV)
   0   2.0000     -20.379384      -554.5512
   1   2.0000     -11.302272      -307.5505
   2   2.0000     -11.217488      -305.2434
   3   2.0000     -11.203250      -304.8559
   4   2.0000      -1.398083       -38.0438
   5   2.0000      -1.133070       -30.8324
   6   2.0000      -0.920719       -25.0540
   7   2.0000      -0.810861       -22.0646
   8   2.0000      -0.707634       -19.2557
   9   2.0000      -0.678863       -18.4728
  10   2.0000      -0.613913       -16.7054
  11   2.0000      -0.564669       -15.3654
  12   2.0000      -0.514878       -14.0105
  13   2.0000      -0.434303       -11.8180
  14   2.0000      -0.427344       -11.6286
  15   0.0000       0.145375         3.9559
  16   0.0000       0.256009         6.9663
  17   0.0000       0.597038        16.2462
  18   0.0000       0.661541        18.0015
  19   0.0000       0.787545        21.4302

MULLIKEN ATOMIC CHARGES
-----------------------
   0 C :    0.149469
   1 O :   -0.322618
   2 C :   -0.163432
   3 C :   -0.272289
   4 H :    0.144485
   5 H :    0.165118
   6 H :    0.143775
   7 H :    0.155491
Sum of atomic charges:    0.0000000

LOEWDIN ATOMIC CHARGES
----------------------
   0 C :    0.143133
   1 O :   -0.235141
   2 C :   -0.105265
   3 C :   -0.164914
   4 H :    0.073420
   5 H :    0.106952
   6 H :    0.081712
   7 H :    0.100104

  Mayer bond orders larger than 0.100000
B(  0-C ,  1-O ) :   1.9308 B(  0-C ,  2-C ) :   1.0116 B(  0-C ,  4-H ) :   0.9319
B(  2-C ,  3-C ) :   1.9884 B(  2-C ,  5-H ) :   0.9431 B(  3-C ,  6-H ) :   0.9652
B(  3-C ,  7-H ) :   0.9575

-----------------------------------------------------------------------------
         ABSORPTION SPECTRUM VIA TRANSITION ELECTRIC DIPOLE MOMENTS
-----------------------------------------------------------------------------
State   Energy    Wavelength  fosc         T2        TX        TY        TZ
        (cm-1)      (nm)                 (au**2)    (au)      (au)      (au)
-----------------------------------------------------------------------------
   1   31213.0    320.4   0.000118869   0.00125  -0.02569  -0.01470   0.01943

Dispersion correction           -0.026256369
FINAL SINGLE POINT ENERGY      -189.303559307973

DIPOLE MOMENT
-------------
                                X             Y             Z
Electronic contribution:     -3.05198      -0.78944      -1.29028
Nuclear contribution   :      3.74836       1.23105       1.92157
                        -----------------------------------------
Total Dipole Moment    :      0.69638       0.44161       0.63129
                        -----------------------------------------
Magnitude (a.u.)       :      1.03851
Magnitude (Debye)      :      2.63967

Rotational constants in cm-1:     1.344279     0.163700     0.158455
Rotational constants in MHz : 40300.457627  4907.602375  4750.350657

                             ****ORCA TERMINATED NORMALLY****
TOTAL RUN TIME: 0 days 0 hours 0 minutes 9 seconds 670 msec
