                         Program Version 5.0.3 -  RELEASE  -
|  1> ! B3LYP cc-pVDZ
|  2> !TightSCF
|  3> %scf
|  4>  ConvForced true
|  5>  convergence tight
|  6>  MaxIter 500
|  7> end
|  8>
|  9> %tddft
| 10>  nroots 1
| 11> end
| 12>
| 13> # 	23737
| 14> * xyz 0 1
| 15> 		C   -0.561044  -0.423794   0.037587
| 16> 		O   -0.594496  -1.645430  -0.024318
| 17> 		C    0.605064   0.424549  -0.050924
| 18> 		C    1.869732  -0.110062   0.019925
| 19> 		H   -1.584000   0.005912   0.231067
| 20> 		H    0.423666   1.463738  -0.086992
| 21> 		H    1.928772  -1.305340   0.079068
| 22> 		H    2.821504   0.488327   0.079790
| 23> *
| 24>
| 25>                          ****END OF INPUT****

CARTESIAN COORDINATES (ANGSTROEM)
---------------------------------
  C     -0.561044   -0.423794    0.037587
  O     -0.594496   -1.645430   -0.024318
  C      0.605064    0.424549   -0.050924
  C      1.869732   -0.110062    0.019925
  H     -1.584000    0.005912    0.231067
  H      0.423666    1.463738   -0.086992
  H      1.928772   -1.305340    0.079068
  H      2.821504    0.488327    0.079790

 Total Charge           Charge          ....    0
 Multiplicity           Mult            ....    1
 Number of Electrons    NEL             ....   30
 Basis Dimension        Dim             ....   76

ORBITAL ENERGIES
----------------

  NO   OCC          E(Eh)            E(eV)
   0   2.0000     -19.130894      -520.5781
   1   2.0000     -10.270629      -279.4780
   2   2.0000     -10.234730      -278.5012
   3   2.0000     -10.209380      -277.8114
   4   2.0000      -1.034952       -28.1625
   5   2.0000      -0.793213       -21.5844
   6   2.0000      -0.654969       -17.8226
   7   2.0000      -0.537447       -14.6247
   8   2.0000      -0.509758       -13.8712
   9   2.0000      -0.442349       -12.0369
  10   2.0000      -0.420239       -11.4353
  11   2.0000      -0.392261       -10.6740
  12   2.0000      -0.377451       -10.2710
  13   2.0000      -0.284767        -7.7489
  14   2.0000      -0.249963        -6.8018
  15   0.0000      -0.076133        -2.0717
  16   0.0000       0.055372         1.5068
  17   0.0000       0.070234         1.9112
  18   0.0000       0.077852         2.1185
  19   0.0000       0.121072         3.2945

MULLIKEN ATOMIC CHARGES
-----------------------
   0 C :    0.168007
   1 O :   -0.208685
   2 C :   -0.056954
   3 C :    0.007128
   4 H :   -0.019589
   5 H :   -0.017953
   6 H :    0.073450
   7 H :    0.054596
Sum of atomic charges:    0.0000000

LOEWDIN ATOMIC CHARGES
----------------------
   0 C :   -0.039163
   1 O :   -0.024573
   2 C :   -0.079580
   3 C :    0.025663
   4 H :   -0.000179
   5 H :    0.021473
   6 H :    0.057308
   7 H :    0.039052

  Mayer bond orders larger than 0.100000
B(  0-C ,  1-O ) :   2.1564 B(  0-C ,  2-C ) :   1.0751 B(  0-C ,  4-H ) :   0.9282
B(  1-O ,  3-C ) :   0.1004 B(  2-C ,  3-C ) :   1.9154 B(  2-C ,  5-H ) :   0.9521
B(  3-C ,  6-H ) :   0.9245 B(  3-C ,  7-H ) :   0.9446

-----------------------------------------------------------------------------
         ABSORPTION SPECTRUM VIA TRANSITION ELECTRIC DIPOLE MOMENTS
-----------------------------------------------------------------------------
State   Energy    Wavelength  fosc         T2        TX        TY        TZ
        (cm-1)      (nm)                 (au**2)    (au)      (au)      (au)
-----------------------------------------------------------------------------
   1   25599.9    390.6   0.000152510   0.00196   0.02803   0.00488   0.03394

FINAL SINGLE POINT ENERGY      -191.680590736868

DIPOLE MOMENT
-------------
                                X             Y             Z
Electronic contribution:     -1.71839      -1.46882      -0.21534
Nuclear contribution   :      2.21053       2.40102       0.28415
                        -----------------------------------------
Total Dipole Moment    :      0.49215       0.93221       0.06881
                        -----------------------------------------
Magnitude (a.u.)       :      1.05639
Magnitude (Debye)      :      2.68512

Rotational constants in cm-1:     0.755742     0.205634     0.162074
Rotational constants in MHz : 22656.577610  6164.745623  4858.848319

                             ****ORCA TERMINATED NORMALLY****
TOTAL RUN TIME: 0 days 0 hours 3 minutes 21 seconds 524 msec
