                         Program Version 5.0.3 -  RELEASE  -
|  1> ! HF-3c
|  2> !TightSCF
|  3> %scf
|  4>  ConvForced true
|  5>  convergence tight
|  6>  MaxIter 500
|  7> end
|  8>
|  9> %tddft
| 10>  nroots 1
| 11> end
| 12>
| 13> # 	20573
| 14> * xyz 0 1
| 15> 		C   -0.553962  -0.430045   0.033492
| 16> 		O   -0.580171  -1.613667  -0.027705
| 17> 		C    0.622201   0.415341  -0.055174
| 18> 		C    1.827744  -0.151193   0.043654
| 19> 		H   -1.359505   0.065410   0.328191
| 20> 		H    0.414130   1.448439  -0.167177
| 21> 		H    1.787941  -1.239687  -0.007616
| 22> 		H    2.731380   0.546214   0.012733
| 23> *
| 24>
| 25>                          ****END OF INPUT****

CARTESIAN COORDINATES (ANGSTROEM)
---------------------------------
  C     -0.553962   -0.430045    0.033492
  O     -0.580171   -1.613667   -0.027705
  C      0.622201    0.415341   -0.055174
  C      1.827744   -0.151193    0.043654
  H     -1.359505    0.065410    0.328191
  H      0.414130    1.448439   -0.167177
  H      1.787941   -1.239687   -0.007616
  H      2.731380    0.546214    0.012733

 Total Charge           Charge          ....    0
 Multiplicity           Mult            ....    1
 Number of Electrons    NEL             ....   30
 Basis Dimension        Dim             ....   24

ORBITAL ENERGIES
----------------

  NO   OCC          E(Eh)            E(eV)
   0   2.0000     -20.371948      -554.3489
   1   2.0000     -11.302520      -307.5572
   2   2.0000     -11.191819      -304.5449
   3   2.0000     -11.182207      -304.2833
   4   2.0000      -1.424064       -38.7507
   5   2.0000      -1.087909       -29.6035
   6   2.0000      -0.909799       -24.7569
   7   2.0000      -0.758240       -20.6327
   8   2.0000      -0.719751       -19.5854
   9   2.0000      -0.619563       -16.8592
  10   2.0000      -0.596966       -16.2443
  11   2.0000      -0.556570       -15.1450
  12   2.0000      -0.539888       -14.6911
  13   2.0000      -0.419226       -11.4077
  14   2.0000      -0.395085       -10.7508
  15   0.0000       0.133874         3.6429
  16   0.0000       0.306877         8.3505
  17   0.0000       0.562883        15.3168
  18   0.0000       0.616814        16.7844
  19   0.0000       0.676923        18.4200

MULLIKEN ATOMIC CHARGES
-----------------------
   0 C :    0.152365
   1 O :   -0.355111
   2 C :   -0.184811
   3 C :   -0.211640
   4 H :    0.134202
   5 H :    0.140756
   6 H :    0.168875
   7 H :    0.155363
Sum of atomic charges:   -0.0000000

LOEWDIN ATOMIC CHARGES
----------------------
   0 C :    0.140506
   1 O :   -0.253963
   2 C :   -0.141930
   3 C :   -0.113082
   4 H :    0.060434
   5 H :    0.087078
   6 H :    0.113275
   7 H :    0.107683

  Mayer bond orders larger than 0.100000
B(  0-C ,  1-O ) :   1.8994 B(  0-C ,  2-C ) :   1.0294 B(  0-C ,  4-H ) :   0.9332
B(  2-C ,  3-C ) :   1.9367 B(  2-C ,  5-H ) :   0.9618 B(  3-C ,  6-H ) :   0.9532
B(  3-C ,  7-H ) :   0.9611

-----------------------------------------------------------------------------
         ABSORPTION SPECTRUM VIA TRANSITION ELECTRIC DIPOLE MOMENTS
-----------------------------------------------------------------------------
State   Energy    Wavelength  fosc         T2        TX        TY        TZ
        (cm-1)      (nm)                 (au**2)    (au)      (au)      (au)
-----------------------------------------------------------------------------
   1   33667.3    297.0   0.000025637   0.00025   0.00435   0.00504  -0.01437

Dispersion correction           -0.026623983
FINAL SINGLE POINT ENERGY      -189.317023319488

DIPOLE MOMENT
-------------
                                X             Y             Z
Electronic contribution:     -1.79522      -1.66950      -0.10904
Nuclear contribution   :      2.19576       2.55903       0.15625
                        -----------------------------------------
Total Dipole Moment    :      0.40054       0.88953       0.04721
                        -----------------------------------------
Magnitude (a.u.)       :      0.97669
Magnitude (Debye)      :      2.48255

Rotational constants in cm-1:     0.795720     0.216452     0.170930
Rotational constants in MHz : 23855.097097  6489.065710  5124.343349

                             ****ORCA TERMINATED NORMALLY****
TOTAL RUN TIME: 0 days 0 hours 0 minutes 12 seconds 521 msec
