                         Program Version 5.0.3 -  RELEASE  -
|  1> ! B3LYP cc-pVDZ
|  2> !TightSCF
|  3> %scf
|  4>  ConvForced true
|  5>  convergence tight
|  6>  MaxIter 500
|  7> end
|  8>
|  9> %tddft
| 10>  nroots 1
| 11> end
| 12>
| 13> # 	19289
| 14> * xyz 0 1
| 15> 		C   -1.172273  -0.371327  -0.087516
| 16> 		O   -1.563680  -1.362077  -0.701407
| 17> 		C   -0.019296   0.505650  -0.275778
| 18> 		C    1.210128   0.099695   0.112320
| 19> 		H   -1.797417  -0.072803   0.947797
| 20> 		H   -0.093027   1.594800  -0.340909
| 21> 		H    1.304850  -1.031071   0.283183
| 22> 		H    2.153231   0.671373   0.046824
| 23> *
| 24>
| 25>                          ****END OF INPUT****

CARTESIAN COORDINATES (ANGSTROEM)
---------------------------------
  C     -1.172273   -0.371327   -0.087516
  O     -1.563680   -1.362077   -0.701407
  C     -0.019296    0.505650   -0.275778
  C      1.210128    0.099695    0.112320
  H     -1.797417   -0.072803    0.947797
  H     -0.093027    1.594800   -0.340909
  H      1.304850   -1.031071    0.283183
  H      2.153231    0.671373    0.046824

 Total Charge           Charge          ....    0
 Multiplicity           Mult            ....    1
 Number of Electrons    NEL             ....   30
 Basis Dimension        Dim             ....   76

ORBITAL ENERGIES
----------------

  NO   OCC          E(Eh)            E(eV)
   0   2.0000     -19.152430      -521.1641
   1   2.0000     -10.297115      -280.1987
   2   2.0000     -10.220152      -278.1045
   3   2.0000     -10.216977      -278.0181
   4   2.0000      -1.044603       -28.4251
   5   2.0000      -0.804802       -21.8998
   6   2.0000      -0.651566       -17.7300
   7   2.0000      -0.544239       -14.8095
   8   2.0000      -0.495435       -13.4815
   9   2.0000      -0.451977       -12.2989
  10   2.0000      -0.444043       -12.0830
  11   2.0000      -0.385504       -10.4901
  12   2.0000      -0.371433       -10.1072
  13   2.0000      -0.292580        -7.9615
  14   2.0000      -0.257897        -7.0177
  15   0.0000      -0.050450        -1.3728
  16   0.0000      -0.014241        -0.3875
  17   0.0000       0.073822         2.0088
  18   0.0000       0.081519         2.2182
  19   0.0000       0.097920         2.6645

MULLIKEN ATOMIC CHARGES
-----------------------
   0 C :    0.140752
   1 O :   -0.184680
   2 C :   -0.041706
   3 C :   -0.021293
   4 H :   -0.002224
   5 H :    0.020537
   6 H :    0.042996
   7 H :    0.045618
Sum of atomic charges:   -0.0000000

LOEWDIN ATOMIC CHARGES
----------------------
   0 C :   -0.020730
   1 O :   -0.007285
   2 C :   -0.070598
   3 C :   -0.018846
   4 H :    0.002503
   5 H :    0.042013
   6 H :    0.038397
   7 H :    0.034545

  Mayer bond orders larger than 0.100000
B(  0-C ,  1-O ) :   2.2065 B(  0-C ,  2-C ) :   0.9941 B(  0-C ,  4-H ) :   0.8799
B(  2-C ,  3-C ) :   1.9917 B(  2-C ,  5-H ) :   0.9301 B(  3-C ,  6-H ) :   0.9464
B(  3-C ,  7-H ) :   0.9492

-----------------------------------------------------------------------------
         ABSORPTION SPECTRUM VIA TRANSITION ELECTRIC DIPOLE MOMENTS
-----------------------------------------------------------------------------
State   Energy    Wavelength  fosc         T2        TX        TY        TZ
        (cm-1)      (nm)                 (au**2)    (au)      (au)      (au)
-----------------------------------------------------------------------------
   1   31703.1    315.4   0.002530037   0.02627   0.16139   0.00409   0.01443

FINAL SINGLE POINT ENERGY      -191.638071324322

DIPOLE MOMENT
-------------
                                X             Y             Z
Electronic contribution:     -2.39807      -1.47532      -1.37547
Nuclear contribution   :      3.00759       2.26709       1.76181
                        -----------------------------------------
Total Dipole Moment    :      0.60952       0.79178       0.38634
                        -----------------------------------------
Magnitude (a.u.)       :      1.07130
Magnitude (Debye)      :      2.72303

Rotational constants in cm-1:     0.932551     0.170380     0.154090
Rotational constants in MHz : 27957.170818  5107.862104  4619.493005

                             ****ORCA TERMINATED NORMALLY****
TOTAL RUN TIME: 0 days 0 hours 3 minutes 22 seconds 306 msec
