                         Program Version 5.0.3 -  RELEASE  -
|  1> ! HF-3c
|  2> !TightSCF
|  3> %scf
|  4>  ConvForced true
|  5>  convergence tight
|  6>  MaxIter 500
|  7> end
|  8>
|  9> %tddft
| 10>  nroots 1
| 11> end
| 12>
| 13> # 	13056
| 14> * xyz 0 1
| 15> 		C   -1.169876  -0.385167   0.043962
| 16> 		O   -2.053067  -0.792752   0.931004
| 17> 		C    0.061439   0.434800   0.339874
| 18> 		C    1.149438   0.157547  -0.228126
| 19> 		H   -1.164244  -0.616240  -1.118112
| 20> 		H   -0.222140   1.208321   0.992123
| 21> 		H    1.282359  -0.689431  -0.924100
| 22> 		H    2.095686   0.761564  -0.017797
| 23> *
| 24>
| 25>                          ****END OF INPUT****

CARTESIAN COORDINATES (ANGSTROEM)
---------------------------------
  C     -1.169876   -0.385167    0.043962
  O     -2.053067   -0.792752    0.931004
  C      0.061439    0.434800    0.339874
  C      1.149438    0.157547   -0.228126
  H     -1.164244   -0.616240   -1.118112
  H     -0.222140    1.208321    0.992123
  H      1.282359   -0.689431   -0.924100
  H      2.095686    0.761564   -0.017797

 Total Charge           Charge          ....    0
 Multiplicity           Mult            ....    1
 Number of Electrons    NEL             ....   30
 Basis Dimension        Dim             ....   24

ORBITAL ENERGIES
----------------

  NO   OCC          E(Eh)            E(eV)
   0   2.0000     -20.344319      -553.5971
   1   2.0000     -11.273106      -306.7568
   2   2.0000     -11.201642      -304.8122
   3   2.0000     -11.198036      -304.7140
   4   2.0000      -1.326262       -36.0894
   5   2.0000      -1.109419       -30.1888
   6   2.0000      -0.877825       -23.8868
   7   2.0000      -0.768813       -20.9205
   8   2.0000      -0.653083       -17.7713
   9   2.0000      -0.640340       -17.4245
  10   2.0000      -0.578646       -15.7458
  11   2.0000      -0.527576       -14.3561
  12   2.0000      -0.486072       -13.2267
  13   2.0000      -0.413914       -11.2632
  14   2.0000      -0.401974       -10.9383
  15   0.0000       0.138368         3.7652
  16   0.0000       0.275275         7.4906
  17   0.0000       0.487618        13.2688
  18   0.0000       0.551704        15.0126
  19   0.0000       0.623830        16.9753

MULLIKEN ATOMIC CHARGES
-----------------------
   0 C :    0.163368
   1 O :   -0.336936
   2 C :   -0.187170
   3 C :   -0.234802
   4 H :    0.137296
   5 H :    0.161448
   6 H :    0.145483
   7 H :    0.151313
Sum of atomic charges:   -0.0000000

LOEWDIN ATOMIC CHARGES
----------------------
   0 C :    0.158659
   1 O :   -0.271272
   2 C :   -0.128945
   3 C :   -0.144277
   4 H :    0.083688
   5 H :    0.102659
   6 H :    0.096071
   7 H :    0.103416

  Mayer bond orders larger than 0.100000
B(  0-C ,  1-O ) :   1.9270 B(  0-C ,  2-C ) :   0.9994 B(  0-C ,  4-H ) :   0.9218
B(  2-C ,  3-C ) :   1.9897 B(  2-C ,  5-H ) :   0.9485 B(  3-C ,  6-H ) :   0.9582
B(  3-C ,  7-H ) :   0.9548

-----------------------------------------------------------------------------
         ABSORPTION SPECTRUM VIA TRANSITION ELECTRIC DIPOLE MOMENTS
-----------------------------------------------------------------------------
State   Energy    Wavelength  fosc         T2        TX        TY        TZ
        (cm-1)      (nm)                 (au**2)    (au)      (au)      (au)
-----------------------------------------------------------------------------
   1   29102.4    343.6   0.000023060   0.00026   0.01307   0.00611   0.00725

Dispersion correction           -0.025427690
FINAL SINGLE POINT ENERGY      -189.325430324720

DIPOLE MOMENT
-------------
                                X             Y             Z
Electronic contribution:     -2.96630      -0.88384       1.28914
Nuclear contribution   :      3.87748       1.25152      -2.04239
                        -----------------------------------------
Total Dipole Moment    :      0.91118       0.36768      -0.75325
                        -----------------------------------------
Magnitude (a.u.)       :      1.23807
Magnitude (Debye)      :      3.14693

Rotational constants in cm-1:     1.339248     0.151176     0.142506
Rotational constants in MHz : 40149.636962  4532.157092  4272.236293

                             ****ORCA TERMINATED NORMALLY****
TOTAL RUN TIME: 0 days 0 hours 0 minutes 14 seconds 815 msec
