                         Program Version 5.0.3 -  RELEASE  -
|  1> ! HF-3c
|  2> !TightSCF
|  3> %scf
|  4>  ConvForced true
|  5>  convergence tight
|  6>  MaxIter 500
|  7> end
|  8>
|  9> %tddft
| 10>  nroots 1
| 11> end
| 12>
| 13> # 	4702
| 14> * xyz 0 1
| 15> 		C   -1.243784  -0.329411   0.006017
| 16> 		O   -1.238724  -1.467990  -0.264490
| 17> 		C   -0.014480   0.507461  -0.074903
| 18> 		C    1.224481  -0.040832   0.072971
| 19> 		H   -2.195832   0.132377   0.402923
| 20> 		H   -0.117132   1.488403  -0.192974
| 21> 		H    1.429130  -1.035282   0.092159
| 22> 		H    2.103974   0.681414  -0.048929
| 23> *
| 24>
| 25>                          ****END OF INPUT****

CARTESIAN COORDINATES (ANGSTROEM)
---------------------------------
  C     -1.243784   -0.329411    0.006017
  O     -1.238724   -1.467990   -0.264490
  C     -0.014480    0.507461   -0.074903
  C      1.224481   -0.040832    0.072971
  H     -2.195832    0.132377    0.402923
  H     -0.117132    1.488403   -0.192974
  H      1.429130   -1.035282    0.092159
  H      2.103974    0.681414   -0.048929

 Total Charge           Charge          ....    0
 Multiplicity           Mult            ....    1
 Number of Electrons    NEL             ....   30
 Basis Dimension        Dim             ....   24

ORBITAL ENERGIES
----------------

  NO   OCC          E(Eh)            E(eV)
   0   2.0000     -20.375577      -554.4476
   1   2.0000     -11.305114      -307.6278
   2   2.0000     -11.192810      -304.5718
   3   2.0000     -11.188285      -304.4487
   4   2.0000      -1.433623       -39.0109
   5   2.0000      -1.074115       -29.2281
   6   2.0000      -0.888172       -24.1684
   7   2.0000      -0.764473       -20.8024
   8   2.0000      -0.715788       -19.4776
   9   2.0000      -0.624441       -16.9919
  10   2.0000      -0.601682       -16.3726
  11   2.0000      -0.554709       -15.0944
  12   2.0000      -0.545226       -14.8363
  13   2.0000      -0.409363       -11.1393
  14   2.0000      -0.393686       -10.7127
  15   0.0000       0.139605         3.7988
  16   0.0000       0.291752         7.9390
  17   0.0000       0.540331        14.7031
  18   0.0000       0.640166        17.4198
  19   0.0000       0.693741        18.8776

MULLIKEN ATOMIC CHARGES
-----------------------
   0 C :    0.179090
   1 O :   -0.358750
   2 C :   -0.184206
   3 C :   -0.213372
   4 H :    0.136109
   5 H :    0.140428
   6 H :    0.153039
   7 H :    0.147661
Sum of atomic charges:    0.0000000

LOEWDIN ATOMIC CHARGES
----------------------
   0 C :    0.147854
   1 O :   -0.250285
   2 C :   -0.135404
   3 C :   -0.112654
   4 H :    0.073417
   5 H :    0.081981
   6 H :    0.093667
   7 H :    0.101424

  Mayer bond orders larger than 0.100000
B(  0-C ,  1-O ) :   1.9206 B(  0-C ,  2-C ) :   1.0089 B(  0-C ,  4-H ) :   0.9172
B(  2-C ,  3-C ) :   1.9523 B(  2-C ,  5-H ) :   0.9650 B(  3-C ,  6-H ) :   0.9658
B(  3-C ,  7-H ) :   0.9636

-----------------------------------------------------------------------------
         ABSORPTION SPECTRUM VIA TRANSITION ELECTRIC DIPOLE MOMENTS
-----------------------------------------------------------------------------
State   Energy    Wavelength  fosc         T2        TX        TY        TZ
        (cm-1)      (nm)                 (au**2)    (au)      (au)      (au)
-----------------------------------------------------------------------------
   1   34923.1    286.3   0.000015310   0.00014   0.01005   0.00517  -0.00407

Dispersion correction           -0.025647825
FINAL SINGLE POINT ENERGY      -189.314274783371

DIPOLE MOMENT
-------------
                                X             Y             Z
Electronic contribution:     -2.08855      -1.68020      -0.28975
Nuclear contribution   :      2.40280       2.54859       0.49753
                        -----------------------------------------
Total Dipole Moment    :      0.31425       0.86839       0.20778
                        -----------------------------------------
Magnitude (a.u.)       :      0.94658
Magnitude (Debye)      :      2.40603

Rotational constants in cm-1:     0.790716     0.205976     0.165722
Rotational constants in MHz : 23705.080754  6175.016144  4968.231555

                             ****ORCA TERMINATED NORMALLY****
TOTAL RUN TIME: 0 days 0 hours 0 minutes 16 seconds 87 msec
