                         Program Version 5.0.3 -  RELEASE  -
|  1> ! B3LYP cc-pVDZ
|  2> !TightSCF
|  3> %scf
|  4>  ConvForced true
|  5>  convergence tight
|  6>  MaxIter 500
|  7> end
|  8>
|  9> %tddft
| 10>  nroots 1
| 11> end
| 12>
| 13> # 	30169
| 14> * xyz 0 1
| 15> 		C   -0.593813  -0.485399   0.067801
| 16> 		O   -0.631844  -1.696111  -0.028631
| 17> 		C    0.626878   0.437646  -0.089295
| 18> 		C    1.900472  -0.051813  -0.002479
| 19> 		H   -1.519313   0.334982   0.153277
| 20> 		H    0.611966   1.561275   0.131021
| 21> 		H    2.046808  -1.065115   0.258379
| 22> 		H    2.834887   0.536278   0.207383
| 23> *
| 24>
| 25>                          ****END OF INPUT****

CARTESIAN COORDINATES (ANGSTROEM)
---------------------------------
  C     -0.593813   -0.485399    0.067801
  O     -0.631844   -1.696111   -0.028631
  C      0.626878    0.437646   -0.089295
  C      1.900472   -0.051813   -0.002479
  H     -1.519313    0.334982    0.153277
  H      0.611966    1.561275    0.131021
  H      2.046808   -1.065115    0.258379
  H      2.834887    0.536278    0.207383

 Total Charge           Charge          ....    0
 Multiplicity           Mult            ....    1
 Number of Electrons    NEL             ....   30
 Basis Dimension        Dim             ....   76

ORBITAL ENERGIES
----------------

  NO   OCC          E(Eh)            E(eV)
   0   2.0000     -19.156092      -521.2638
   1   2.0000     -10.298611      -280.2394
   2   2.0000     -10.218097      -278.0485
   3   2.0000     -10.217481      -278.0318
   4   2.0000      -1.053228       -28.6598
   5   2.0000      -0.787090       -21.4178
   6   2.0000      -0.648684       -17.6516
   7   2.0000      -0.541481       -14.7344
   8   2.0000      -0.489878       -13.3302
   9   2.0000      -0.453351       -12.3363
  10   2.0000      -0.414926       -11.2907
  11   2.0000      -0.402821       -10.9613
  12   2.0000      -0.375426       -10.2159
  13   2.0000      -0.287554        -7.8247
  14   2.0000      -0.262344        -7.1388
  15   0.0000      -0.077867        -2.1189
  16   0.0000       0.038074         1.0361
  17   0.0000       0.055033         1.4975
  18   0.0000       0.080962         2.2031
  19   0.0000       0.111782         3.0417

MULLIKEN ATOMIC CHARGES
-----------------------
   0 C :    0.165037
   1 O :   -0.175474
   2 C :   -0.133069
   3 C :    0.042840
   4 H :   -0.001983
   5 H :    0.026249
   6 H :    0.031626
   7 H :    0.044774
Sum of atomic charges:   -0.0000000

LOEWDIN ATOMIC CHARGES
----------------------
   0 C :   -0.033634
   1 O :    0.004051
   2 C :   -0.097147
   3 C :    0.023279
   4 H :   -0.000563
   5 H :    0.044803
   6 H :    0.020611
   7 H :    0.038601

  Mayer bond orders larger than 0.100000
B(  0-C ,  1-O ) :   2.1965 B(  0-C ,  2-C ) :   1.0033 B(  0-C ,  4-H ) :   0.8804
B(  2-C ,  3-C ) :   1.9301 B(  2-C ,  5-H ) :   0.9379 B(  3-C ,  6-H ) :   0.9529
B(  3-C ,  7-H ) :   0.9544

-----------------------------------------------------------------------------
         ABSORPTION SPECTRUM VIA TRANSITION ELECTRIC DIPOLE MOMENTS
-----------------------------------------------------------------------------
State   Energy    Wavelength  fosc         T2        TX        TY        TZ
        (cm-1)      (nm)                 (au**2)    (au)      (au)      (au)
-----------------------------------------------------------------------------
   1   28306.7    353.3   0.001303140   0.01516  -0.12006  -0.01965  -0.01888

FINAL SINGLE POINT ENERGY      -191.651130553495

DIPOLE MOMENT
-------------
                                X             Y             Z
Electronic contribution:     -2.04923      -2.22859      -0.48724
Nuclear contribution   :      2.56877       3.06908       0.70259
                        -----------------------------------------
Total Dipole Moment    :      0.51954       0.84049       0.21535
                        -----------------------------------------
Magnitude (a.u.)       :      1.01129
Magnitude (Debye)      :      2.57050

Rotational constants in cm-1:     0.757133     0.189149     0.152204
Rotational constants in MHz : 22698.271878  5670.542844  4562.948417

                             ****ORCA TERMINATED NORMALLY****
TOTAL RUN TIME: 0 days 0 hours 3 minutes 22 seconds 237 msec
