                         Program Version 5.0.3 -  RELEASE  -
|  1> ! HF-3c
|  2> !TightSCF
|  3> %scf
|  4>  ConvForced true
|  5>  convergence tight
|  6>  MaxIter 500
|  7> end
|  8>
|  9> %tddft
| 10>  nroots 1
| 11> end
| 12>
| 13> # 	387
| 14> * xyz 0 1
| 15> 		C   -1.206361  -0.307804  -0.034833
| 16> 		O   -1.521144  -1.251619   0.689983
| 17> 		C   -0.058546   0.524605   0.164031
| 18> 		C    1.153690   0.013316  -0.149766
| 19> 		H   -1.673726  -0.229765  -1.028752
| 20> 		H   -0.199905   1.574502   0.676528
| 21> 		H    1.375570  -1.024218  -0.392411
| 22> 		H    2.124213   0.633776   0.080608
| 23> *
| 24>
| 25>                          ****END OF INPUT****

CARTESIAN COORDINATES (ANGSTROEM)
---------------------------------
  C     -1.206361   -0.307804   -0.034833
  O     -1.521144   -1.251619    0.689983
  C     -0.058546    0.524605    0.164031
  C      1.153690    0.013316   -0.149766
  H     -1.673726   -0.229765   -1.028752
  H     -0.199905    1.574502    0.676528
  H      1.375570   -1.024218   -0.392411
  H      2.124213    0.633776    0.080608

 Total Charge           Charge          ....    0
 Multiplicity           Mult            ....    1
 Number of Electrons    NEL             ....   30
 Basis Dimension        Dim             ....   24

ORBITAL ENERGIES
----------------

  NO   OCC          E(Eh)            E(eV)
   0   2.0000     -20.365822      -554.1822
   1   2.0000     -11.292412      -307.2822
   2   2.0000     -11.189487      -304.4814
   3   2.0000     -11.176947      -304.1402
   4   2.0000      -1.389985       -37.8234
   5   2.0000      -1.074321       -29.2337
   6   2.0000      -0.882913       -24.0253
   7   2.0000      -0.751871       -20.4594
   8   2.0000      -0.674688       -18.3592
   9   2.0000      -0.620284       -16.8788
  10   2.0000      -0.602088       -16.3837
  11   2.0000      -0.528074       -14.3696
  12   2.0000      -0.485083       -13.1998
  13   2.0000      -0.412719       -11.2307
  14   2.0000      -0.391300       -10.6478
  15   0.0000       0.180312         4.9065
  16   0.0000       0.205039         5.5794
  17   0.0000       0.533467        14.5164
  18   0.0000       0.597139        16.2490
  19   0.0000       0.636284        17.3142

MULLIKEN ATOMIC CHARGES
-----------------------
   0 C :    0.152435
   1 O :   -0.336567
   2 C :   -0.168829
   3 C :   -0.226357
   4 H :    0.139462
   5 H :    0.159097
   6 H :    0.142868
   7 H :    0.137890
Sum of atomic charges:   -0.0000000

LOEWDIN ATOMIC CHARGES
----------------------
   0 C :    0.143483
   1 O :   -0.249237
   2 C :   -0.128243
   3 C :   -0.142293
   4 H :    0.075777
   5 H :    0.113077
   6 H :    0.092407
   7 H :    0.095028

  Mayer bond orders larger than 0.100000
B(  0-C ,  1-O ) :   1.9331 B(  0-C ,  2-C ) :   1.0138 B(  0-C ,  4-H ) :   0.9203
B(  2-C ,  3-C ) :   1.9832 B(  2-C ,  5-H ) :   0.9415 B(  3-C ,  6-H ) :   0.9650
B(  3-C ,  7-H ) :   0.9618

-----------------------------------------------------------------------------
         ABSORPTION SPECTRUM VIA TRANSITION ELECTRIC DIPOLE MOMENTS
-----------------------------------------------------------------------------
State   Energy    Wavelength  fosc         T2        TX        TY        TZ
        (cm-1)      (nm)                 (au**2)    (au)      (au)      (au)
-----------------------------------------------------------------------------
   1   32635.0    306.4   0.000122001   0.00123  -0.03213   0.00073  -0.01408

Dispersion correction           -0.025188280
FINAL SINGLE POINT ENERGY      -189.312675530314

DIPOLE MOMENT
-------------
                                X             Y             Z
Electronic contribution:     -2.62833      -1.23601       0.80485
Nuclear contribution   :      3.11817       1.97206      -1.29301
                        -----------------------------------------
Total Dipole Moment    :      0.48984       0.73605      -0.48816
                        -----------------------------------------
Magnitude (a.u.)       :      1.00995
Magnitude (Debye)      :      2.56710

Rotational constants in cm-1:     0.847058     0.184186     0.166241
Rotational constants in MHz : 25394.174231  5521.769193  4983.793819

                             ****ORCA TERMINATED NORMALLY****
TOTAL RUN TIME: 0 days 0 hours 0 minutes 15 seconds 515 msec
