                         Program Version 5.0.3 -  RELEASE  -
|  1> ! HF-3c
|  2> !TightSCF
|  3> %scf
|  4>  ConvForced true
|  5>  convergence tight
|  6>  MaxIter 500
|  7> end
|  8>
|  9> %tddft
| 10>  nroots 1
| 11> end
| 12>
| 13> # 	22550
| 14> * xyz 0 1
| 15> 		C   -0.621848  -0.465173  -0.019970
| 16> 		O   -0.566291  -1.612210   0.008269
| 17> 		C    0.672553   0.402908   0.014005
| 18> 		C    1.838699  -0.124303  -0.012798
| 19> 		H   -1.635446   0.145477   0.004337
| 20> 		H    0.605497   1.581676   0.041778
| 21> 		H    1.906018  -1.179604   0.041318
| 22> 		H    2.580498   0.517961   0.006591
| 23> *
| 24>
| 25>                          ****END OF INPUT****

CARTESIAN COORDINATES (ANGSTROEM)
---------------------------------
  C     -0.621848   -0.465173   -0.019970
  O     -0.566291   -1.612210    0.008269
  C      0.672553    0.402908    0.014005
  C      1.838699   -0.124303   -0.012798
  H     -1.635446    0.145477    0.004337
  H      0.605497    1.581676    0.041778
  H      1.906018   -1.179604    0.041318
  H      2.580498    0.517961    0.006591

 Total Charge           Charge          ....    0
 Multiplicity           Mult            ....    1
 Number of Electrons    NEL             ....   30
 Basis Dimension        Dim             ....   24

ORBITAL ENERGIES
----------------

  NO   OCC          E(Eh)            E(eV)
   0   2.0000     -20.396000      -555.0034
   1   2.0000     -11.316185      -307.9290
   2   2.0000     -11.183511      -304.3188
   3   2.0000     -11.181740      -304.2706
   4   2.0000      -1.457761       -39.6677
   5   2.0000      -1.091038       -29.6886
   6   2.0000      -0.871165       -23.7056
   7   2.0000      -0.740887       -20.1606
   8   2.0000      -0.713597       -19.4180
   9   2.0000      -0.628124       -17.0921
  10   2.0000      -0.615080       -16.7372
  11   2.0000      -0.571481       -15.5508
  12   2.0000      -0.529642       -14.4123
  13   2.0000      -0.415342       -11.3020
  14   2.0000      -0.403083       -10.9684
  15   0.0000       0.157712         4.2916
  16   0.0000       0.320187         8.7127
  17   0.0000       0.505697        13.7607
  18   0.0000       0.543571        14.7913
  19   0.0000       0.639694        17.4070

MULLIKEN ATOMIC CHARGES
-----------------------
   0 C :    0.204183
   1 O :   -0.364987
   2 C :   -0.143540
   3 C :   -0.280279
   4 H :    0.134334
   5 H :    0.138556
   6 H :    0.164542
   7 H :    0.147192
Sum of atomic charges:    0.0000000

LOEWDIN ATOMIC CHARGES
----------------------
   0 C :    0.157496
   1 O :   -0.244171
   2 C :   -0.109922
   3 C :   -0.169954
   4 H :    0.075061
   5 H :    0.094054
   6 H :    0.108006
   7 H :    0.089431

  Mayer bond orders larger than 0.100000
B(  0-C ,  1-O ) :   1.9477 B(  0-C ,  2-C ) :   0.9642 B(  0-C ,  4-H ) :   0.9056
B(  2-C ,  3-C ) :   1.9875 B(  2-C ,  5-H ) :   0.9570 B(  3-C ,  6-H ) :   0.9541
B(  3-C ,  7-H ) :   0.9639

-----------------------------------------------------------------------------
         ABSORPTION SPECTRUM VIA TRANSITION ELECTRIC DIPOLE MOMENTS
-----------------------------------------------------------------------------
State   Energy    Wavelength  fosc         T2        TX        TY        TZ
        (cm-1)      (nm)                 (au**2)    (au)      (au)      (au)
-----------------------------------------------------------------------------
   1   37166.3    269.1   0.000069202   0.00061  -0.02423  -0.00110   0.00498

Dispersion correction           -0.025800593
FINAL SINGLE POINT ENERGY      -189.293618144260

DIPOLE MOMENT
-------------
                                X             Y             Z
Electronic contribution:     -2.03733      -1.86448      -0.07716
Nuclear contribution   :      2.08418       2.78754       0.08822
                        -----------------------------------------
Total Dipole Moment    :      0.04685       0.92306       0.01105
                        -----------------------------------------
Magnitude (a.u.)       :      0.92432
Magnitude (Debye)      :      2.34943

Rotational constants in cm-1:     0.799728     0.209289     0.165924
Rotational constants in MHz : 23975.251720  6274.334916  4974.264961

                             ****ORCA TERMINATED NORMALLY****
TOTAL RUN TIME: 0 days 0 hours 0 minutes 11 seconds 442 msec
