                         Program Version 5.0.3 -  RELEASE  -
|  1> ! HF-3c
|  2> !TightSCF
|  3> %scf
|  4>  ConvForced true
|  5>  convergence tight
|  6>  MaxIter 500
|  7> end
|  8>
|  9> %tddft
| 10>  nroots 1
| 11> end
| 12>
| 13> # 	26692
| 14> * xyz 0 1
| 15> 		C   -0.563434  -0.436191  -0.038042
| 16> 		O   -0.558411  -1.612809   0.022284
| 17> 		C    0.561184   0.429383   0.012821
| 18> 		C    1.840255  -0.154116  -0.003871
| 19> 		H   -1.502083   0.084687  -0.098609
| 20> 		H    0.560748   1.536094   0.228290
| 21> 		H    1.900987  -1.182912  -0.019473
| 22> 		H    2.945002   0.322194  -0.111211
| 23> *
| 24>
| 25>                          ****END OF INPUT****

CARTESIAN COORDINATES (ANGSTROEM)
---------------------------------
  C     -0.563434   -0.436191   -0.038042
  O     -0.558411   -1.612809    0.022284
  C      0.561184    0.429383    0.012821
  C      1.840255   -0.154116   -0.003871
  H     -1.502083    0.084687   -0.098609
  H      0.560748    1.536094    0.228290
  H      1.900987   -1.182912   -0.019473
  H      2.945002    0.322194   -0.111211

 Total Charge           Charge          ....    0
 Multiplicity           Mult            ....    1
 Number of Electrons    NEL             ....   30
 Basis Dimension        Dim             ....   24

ORBITAL ENERGIES
----------------

  NO   OCC          E(Eh)            E(eV)
   0   2.0000     -20.363951      -554.1313
   1   2.0000     -11.303860      -307.5937
   2   2.0000     -11.191292      -304.5305
   3   2.0000     -11.179242      -304.2026
   4   2.0000      -1.422923       -38.7197
   5   2.0000      -1.064741       -28.9731
   6   2.0000      -0.894649       -24.3446
   7   2.0000      -0.750991       -20.4355
   8   2.0000      -0.705178       -19.1889
   9   2.0000      -0.615095       -16.7376
  10   2.0000      -0.573885       -15.6162
  11   2.0000      -0.557499       -15.1703
  12   2.0000      -0.522930       -14.2297
  13   2.0000      -0.412625       -11.2281
  14   2.0000      -0.371625       -10.1124
  15   0.0000       0.120774         3.2864
  16   0.0000       0.311453         8.4751
  17   0.0000       0.500317        13.6143
  18   0.0000       0.598492        16.2858
  19   0.0000       0.689622        18.7656

MULLIKEN ATOMIC CHARGES
-----------------------
   0 C :    0.159988
   1 O :   -0.364011
   2 C :   -0.187322
   3 C :   -0.185341
   4 H :    0.131402
   5 H :    0.148770
   6 H :    0.145043
   7 H :    0.151472
Sum of atomic charges:   -0.0000000

LOEWDIN ATOMIC CHARGES
----------------------
   0 C :    0.141442
   1 O :   -0.262393
   2 C :   -0.154384
   3 C :   -0.084633
   4 H :    0.064294
   5 H :    0.099980
   6 H :    0.087161
   7 H :    0.108533

  Mayer bond orders larger than 0.100000
B(  0-C ,  1-O ) :   1.8811 B(  0-C ,  2-C ) :   1.0603 B(  0-C ,  4-H ) :   0.9222
B(  2-C ,  3-C ) :   1.8962 B(  2-C ,  5-H ) :   0.9602 B(  3-C ,  6-H ) :   0.9662
B(  3-C ,  7-H ) :   0.9638

-----------------------------------------------------------------------------
         ABSORPTION SPECTRUM VIA TRANSITION ELECTRIC DIPOLE MOMENTS
-----------------------------------------------------------------------------
State   Energy    Wavelength  fosc         T2        TX        TY        TZ
        (cm-1)      (nm)                 (au**2)    (au)      (au)      (au)
-----------------------------------------------------------------------------
   1   33773.3    296.1   0.000026625   0.00026   0.01455   0.00084   0.00687

Dispersion correction           -0.025741539
FINAL SINGLE POINT ENERGY      -189.302421626680

DIPOLE MOMENT
-------------
                                X             Y             Z
Electronic contribution:     -1.97702      -1.56911      -0.01699
Nuclear contribution   :      2.50735       2.50161      -0.00102
                        -----------------------------------------
Total Dipole Moment    :      0.53033       0.93250      -0.01801
                        -----------------------------------------
Magnitude (a.u.)       :      1.07291
Magnitude (Debye)      :      2.72711

Rotational constants in cm-1:     0.745188     0.216277     0.167969
Rotational constants in MHz : 22340.168637  6483.806655  5035.579603

                             ****ORCA TERMINATED NORMALLY****
TOTAL RUN TIME: 0 days 0 hours 0 minutes 13 seconds 531 msec
