                         Program Version 5.0.3 -  RELEASE  -
|  1> ! HF-3c
|  2> !TightSCF
|  3> %scf
|  4>  ConvForced true
|  5>  convergence tight
|  6>  MaxIter 500
|  7> end
|  8>
|  9> %tddft
| 10>  nroots 1
| 11> end
| 12>
| 13> # 	16868
| 14> * xyz 0 1
| 15> 		C   -1.224917  -0.348784   0.000207
| 16> 		O   -1.494934  -1.250207  -0.744318
| 17> 		C   -0.076663   0.557633  -0.220353
| 18> 		C    1.196443   0.077495   0.276803
| 19> 		H   -1.742950  -0.082601   0.760007
| 20> 		H   -0.053977   1.541033  -0.748268
| 21> 		H    1.208557  -1.026445   0.564606
| 22> 		H    2.250404   0.556392   0.098844
| 23> *
| 24>
| 25>                          ****END OF INPUT****

CARTESIAN COORDINATES (ANGSTROEM)
---------------------------------
  C     -1.224917   -0.348784    0.000207
  O     -1.494934   -1.250207   -0.744318
  C     -0.076663    0.557633   -0.220353
  C      1.196443    0.077495    0.276803
  H     -1.742950   -0.082601    0.760007
  H     -0.053977    1.541033   -0.748268
  H      1.208557   -1.026445    0.564606
  H      2.250404    0.556392    0.098844

 Total Charge           Charge          ....    0
 Multiplicity           Mult            ....    1
 Number of Electrons    NEL             ....   30
 Basis Dimension        Dim             ....   24

ORBITAL ENERGIES
----------------

  NO   OCC          E(Eh)            E(eV)
   0   2.0000     -20.394116      -554.9521
   1   2.0000     -11.315829      -307.9194
   2   2.0000     -11.171745      -303.9986
   3   2.0000     -11.163207      -303.7663
   4   2.0000      -1.424576       -38.7647
   5   2.0000      -1.043787       -28.4029
   6   2.0000      -0.891098       -24.2480
   7   2.0000      -0.773798       -21.0561
   8   2.0000      -0.686995       -18.6941
   9   2.0000      -0.626732       -17.0542
  10   2.0000      -0.593529       -16.1507
  11   2.0000      -0.529351       -14.4044
  12   2.0000      -0.502195       -13.6654
  13   2.0000      -0.427435       -11.6311
  14   2.0000      -0.361289        -9.8312
  15   0.0000       0.172622         4.6973
  16   0.0000       0.190270         5.1775
  17   0.0000       0.560234        15.2447
  18   0.0000       0.595049        16.1921
  19   0.0000       0.611605        16.6426

MULLIKEN ATOMIC CHARGES
-----------------------
   0 C :    0.145312
   1 O :   -0.325117
   2 C :   -0.166436
   3 C :   -0.216978
   4 H :    0.143801
   5 H :    0.153018
   6 H :    0.128068
   7 H :    0.138332
Sum of atomic charges:    0.0000000

LOEWDIN ATOMIC CHARGES
----------------------
   0 C :    0.144207
   1 O :   -0.226455
   2 C :   -0.130817
   3 C :   -0.136751
   4 H :    0.065436
   5 H :    0.103865
   6 H :    0.084788
   7 H :    0.095726

  Mayer bond orders larger than 0.100000
B(  0-C ,  1-O ) :   1.9449 B(  0-C ,  2-C ) :   0.9942 B(  0-C ,  4-H ) :   0.9311
B(  2-C ,  3-C ) :   1.9736 B(  2-C ,  5-H ) :   0.9521 B(  3-C ,  6-H ) :   0.9683
B(  3-C ,  7-H ) :   0.9639

-----------------------------------------------------------------------------
         ABSORPTION SPECTRUM VIA TRANSITION ELECTRIC DIPOLE MOMENTS
-----------------------------------------------------------------------------
State   Energy    Wavelength  fosc         T2        TX        TY        TZ
        (cm-1)      (nm)                 (au**2)    (au)      (au)      (au)
-----------------------------------------------------------------------------
   1   33973.9    294.3   0.000036263   0.00035  -0.01016  -0.00836   0.01335

Dispersion correction           -0.024970986
FINAL SINGLE POINT ENERGY      -189.272053117871

DIPOLE MOMENT
-------------
                                X             Y             Z
Electronic contribution:     -2.68095      -1.29968      -0.86650
Nuclear contribution   :      3.11670       1.95485       1.33121
                        -----------------------------------------
Total Dipole Moment    :      0.43575       0.65518       0.46471
                        -----------------------------------------
Magnitude (a.u.)       :      0.91383
Magnitude (Debye)      :      2.32277

Rotational constants in cm-1:     0.851580     0.175915     0.160230
Rotational constants in MHz : 25529.727621  5273.794272  4803.585791

                             ****ORCA TERMINATED NORMALLY****
TOTAL RUN TIME: 0 days 0 hours 0 minutes 16 seconds 100 msec
