                         Program Version 5.0.3 -  RELEASE  -
|  1> ! HF-3c
|  2> !TightSCF
|  3> %scf
|  4>  ConvForced true
|  5>  convergence tight
|  6>  MaxIter 500
|  7> end
|  8>
|  9> %tddft
| 10>  nroots 1
| 11> end
| 12>
| 13> # 	28944
| 14> * xyz 0 1
| 15> 		C   -0.608030  -0.439248   0.034270
| 16> 		O   -0.548952  -1.548985  -0.010296
| 17> 		C    0.601388   0.353508  -0.011433
| 18> 		C    1.855726  -0.166436   0.008279
| 19> 		H   -1.520790   0.085944  -0.194528
| 20> 		H    0.379080   1.467404   0.085349
| 21> 		H    2.044842  -1.174280   0.058414
| 22> 		H    2.689615   0.486061  -0.159811
| 23> *
| 24>
| 25>                          ****END OF INPUT****

CARTESIAN COORDINATES (ANGSTROEM)
---------------------------------
  C     -0.608030   -0.439248    0.034270
  O     -0.548952   -1.548985   -0.010296
  C      0.601388    0.353508   -0.011433
  C      1.855726   -0.166436    0.008279
  H     -1.520790    0.085944   -0.194528
  H      0.379080    1.467404    0.085349
  H      2.044842   -1.174280    0.058414
  H      2.689615    0.486061   -0.159811

 Total Charge           Charge          ....    0
 Multiplicity           Mult            ....    1
 Number of Electrons    NEL             ....   30
 Basis Dimension        Dim             ....   24

ORBITAL ENERGIES
----------------

  NO   OCC          E(Eh)            E(eV)
   0   2.0000     -20.394361      -554.9588
   1   2.0000     -11.322640      -308.1047
   2   2.0000     -11.189583      -304.4840
   3   2.0000     -11.180762      -304.2440
   4   2.0000      -1.486279       -40.4437
   5   2.0000      -1.070854       -29.1394
   6   2.0000      -0.904645       -24.6166
   7   2.0000      -0.768666       -20.9165
   8   2.0000      -0.711501       -19.3609
   9   2.0000      -0.637193       -17.3389
  10   2.0000      -0.606654       -16.5079
  11   2.0000      -0.593477       -16.1493
  12   2.0000      -0.539653       -14.6847
  13   2.0000      -0.409340       -11.1387
  14   2.0000      -0.390236       -10.6189
  15   0.0000       0.136431         3.7125
  16   0.0000       0.322221         8.7681
  17   0.0000       0.561041        15.2667
  18   0.0000       0.648990        17.6599
  19   0.0000       0.719600        19.5813

MULLIKEN ATOMIC CHARGES
-----------------------
   0 C :    0.178136
   1 O :   -0.362380
   2 C :   -0.154449
   3 C :   -0.232700
   4 H :    0.133030
   5 H :    0.136662
   6 H :    0.154754
   7 H :    0.146946
Sum of atomic charges:    0.0000000

LOEWDIN ATOMIC CHARGES
----------------------
   0 C :    0.136065
   1 O :   -0.232700
   2 C :   -0.122236
   3 C :   -0.127103
   4 H :    0.064013
   5 H :    0.089934
   6 H :    0.096474
   7 H :    0.095552

  Mayer bond orders larger than 0.100000
B(  0-C ,  1-O ) :   1.9082 B(  0-C ,  2-C ) :   1.0157 B(  0-C ,  4-H ) :   0.9147
B(  2-C ,  3-C ) :   1.9464 B(  2-C ,  5-H ) :   0.9614 B(  3-C ,  6-H ) :   0.9633
B(  3-C ,  7-H ) :   0.9660

-----------------------------------------------------------------------------
         ABSORPTION SPECTRUM VIA TRANSITION ELECTRIC DIPOLE MOMENTS
-----------------------------------------------------------------------------
State   Energy    Wavelength  fosc         T2        TX        TY        TZ
        (cm-1)      (nm)                 (au**2)    (au)      (au)      (au)
-----------------------------------------------------------------------------
   1   35732.3    279.9   0.000387747   0.00357   0.05926   0.00250   0.00738

Dispersion correction           -0.026088298
FINAL SINGLE POINT ENERGY      -189.291966686289

DIPOLE MOMENT
-------------
                                X             Y             Z
Electronic contribution:     -1.99626      -1.73919       0.18544
Nuclear contribution   :      2.21688       2.59904      -0.19749
                        -----------------------------------------
Total Dipole Moment    :      0.22062       0.85985      -0.01205
                        -----------------------------------------
Magnitude (a.u.)       :      0.88778
Magnitude (Debye)      :      2.25657

Rotational constants in cm-1:     0.803841     0.220703     0.173491
Rotational constants in MHz : 24098.540718  6616.520856  5201.134375

                             ****ORCA TERMINATED NORMALLY****
TOTAL RUN TIME: 0 days 0 hours 0 minutes 10 seconds 560 msec
