                         Program Version 5.0.3 -  RELEASE  -
|  1> ! B3LYP cc-pVDZ
|  2> !TightSCF
|  3> %scf
|  4>  ConvForced true
|  5>  convergence tight
|  6>  MaxIter 500
|  7> end
|  8>
|  9> %tddft
| 10>  nroots 1
| 11> end
| 12>
| 13> # 	16501
| 14> * xyz 0 1
| 15> 		C   -1.219024  -0.380201  -0.069221
| 16> 		O   -1.235023  -1.573619   0.109745
| 17> 		C    0.044465   0.501664  -0.013778
| 18> 		C    1.213088  -0.026011  -0.049556
| 19> 		H   -2.175476   0.381513  -0.281874
| 20> 		H   -0.166182   1.393944   0.447415
| 21> 		H    1.403611  -0.921415  -0.323712
| 22> 		H    2.109766   0.602581   0.070221
| 23> *
| 24>
| 25>                          ****END OF INPUT****

CARTESIAN COORDINATES (ANGSTROEM)
---------------------------------
  C     -1.219024   -0.380201   -0.069221
  O     -1.235023   -1.573619    0.109745
  C      0.044465    0.501664   -0.013778
  C      1.213088   -0.026011   -0.049556
  H     -2.175476    0.381513   -0.281874
  H     -0.166182    1.393944    0.447415
  H      1.403611   -0.921415   -0.323712
  H      2.109766    0.602581    0.070221

 Total Charge           Charge          ....    0
 Multiplicity           Mult            ....    1
 Number of Electrons    NEL             ....   30
 Basis Dimension        Dim             ....   76

ORBITAL ENERGIES
----------------

  NO   OCC          E(Eh)            E(eV)
   0   2.0000     -19.152543      -521.1672
   1   2.0000     -10.291024      -280.0330
   2   2.0000     -10.194567      -277.4083
   3   2.0000     -10.192799      -277.3601
   4   2.0000      -1.055742       -28.7282
   5   2.0000      -0.806924       -21.9575
   6   2.0000      -0.655378       -17.8337
   7   2.0000      -0.553046       -15.0492
   8   2.0000      -0.497465       -13.5367
   9   2.0000      -0.462583       -12.5875
  10   2.0000      -0.432532       -11.7698
  11   2.0000      -0.397837       -10.8257
  12   2.0000      -0.387077       -10.5329
  13   2.0000      -0.298804        -8.1309
  14   2.0000      -0.256331        -6.9751
  15   0.0000      -0.060935        -1.6581
  16   0.0000       0.042507         1.1567
  17   0.0000       0.062430         1.6988
  18   0.0000       0.092464         2.5161
  19   0.0000       0.126172         3.4333

MULLIKEN ATOMIC CHARGES
-----------------------
   0 C :    0.131010
   1 O :   -0.168136
   2 C :   -0.100499
   3 C :    0.170070
   4 H :   -0.010706
   5 H :   -0.015445
   6 H :   -0.030273
   7 H :    0.023979
Sum of atomic charges:   -0.0000000

LOEWDIN ATOMIC CHARGES
----------------------
   0 C :   -0.026140
   1 O :    0.010630
   2 C :   -0.071457
   3 C :    0.043167
   4 H :   -0.006035
   5 H :    0.017207
   6 H :   -0.008146
   7 H :    0.040774

  Mayer bond orders larger than 0.100000
B(  0-C ,  1-O ) :   2.2278 B(  0-C ,  2-C ) :   1.0049 B(  0-C ,  4-H ) :   0.8758
B(  2-C ,  3-C ) :   2.0173 B(  2-C ,  5-H ) :   0.9384 B(  3-C ,  6-H ) :   0.9357
B(  3-C ,  7-H ) :   0.9405

-----------------------------------------------------------------------------
         ABSORPTION SPECTRUM VIA TRANSITION ELECTRIC DIPOLE MOMENTS
-----------------------------------------------------------------------------
State   Energy    Wavelength  fosc         T2        TX        TY        TZ
        (cm-1)      (nm)                 (au**2)    (au)      (au)      (au)
-----------------------------------------------------------------------------
   1   29911.8    334.3   0.000474722   0.00522  -0.06019  -0.00780  -0.03925

FINAL SINGLE POINT ENERGY      -191.632569194214

DIPOLE MOMENT
-------------
                                X             Y             Z
Electronic contribution:     -1.86771      -2.06904       0.04568
Nuclear contribution   :      2.29836       2.85943      -0.08593
                        -----------------------------------------
Total Dipole Moment    :      0.43065       0.79039      -0.04025
                        -----------------------------------------
Magnitude (a.u.)       :      0.90100
Magnitude (Debye)      :      2.29016

Rotational constants in cm-1:     0.786408     0.201068     0.161977
Rotational constants in MHz : 23575.922916  6027.880296  4855.954840

                             ****ORCA TERMINATED NORMALLY****
TOTAL RUN TIME: 0 days 0 hours 3 minutes 22 seconds 312 msec
