                         Program Version 5.0.3 -  RELEASE  -
|  1> ! B3LYP cc-pVDZ
|  2> !TightSCF
|  3> %scf
|  4>  ConvForced true
|  5>  convergence tight
|  6>  MaxIter 500
|  7> end
|  8>
|  9> %tddft
| 10>  nroots 1
| 11> end
| 12>
| 13> # 	10277
| 14> * xyz 0 1
| 15> 		C   -1.198707  -0.371559   0.004619
| 16> 		O   -2.055886  -0.610371   0.797976
| 17> 		C   -0.024751   0.400362   0.304980
| 18> 		C    1.162411   0.081845  -0.235883
| 19> 		H   -1.089494  -0.760248  -1.091374
| 20> 		H   -0.087585   1.269374   1.309773
| 21> 		H    1.232739  -0.721130  -1.142458
| 22> 		H    2.066263   0.686019   0.063320
| 23> *
| 24>
| 25>                          ****END OF INPUT****

CARTESIAN COORDINATES (ANGSTROEM)
---------------------------------
  C     -1.198707   -0.371559    0.004619
  O     -2.055886   -0.610371    0.797976
  C     -0.024751    0.400362    0.304980
  C      1.162411    0.081845   -0.235883
  H     -1.089494   -0.760248   -1.091374
  H     -0.087585    1.269374    1.309773
  H      1.232739   -0.721130   -1.142458
  H      2.066263    0.686019    0.063320

 Total Charge           Charge          ....    0
 Multiplicity           Mult            ....    1
 Number of Electrons    NEL             ....   30
 Basis Dimension        Dim             ....   76

ORBITAL ENERGIES
----------------

  NO   OCC          E(Eh)            E(eV)
   0   2.0000     -19.144254      -520.9416
   1   2.0000     -10.280142      -279.7369
   2   2.0000     -10.232789      -278.4484
   3   2.0000     -10.222891      -278.1790
   4   2.0000      -1.061049       -28.8726
   5   2.0000      -0.802173       -21.8282
   6   2.0000      -0.646474       -17.5915
   7   2.0000      -0.541456       -14.7338
   8   2.0000      -0.470311       -12.7978
   9   2.0000      -0.462242       -12.5783
  10   2.0000      -0.429334       -11.6828
  11   2.0000      -0.401038       -10.9128
  12   2.0000      -0.363450        -9.8900
  13   2.0000      -0.293853        -7.9962
  14   2.0000      -0.259833        -7.0704
  15   0.0000      -0.064025        -1.7422
  16   0.0000       0.027124         0.7381
  17   0.0000       0.046486         1.2649
  18   0.0000       0.065082         1.7710
  19   0.0000       0.111567         3.0359

MULLIKEN ATOMIC CHARGES
-----------------------
   0 C :    0.177252
   1 O :   -0.169964
   2 C :   -0.134781
   3 C :   -0.017311
   4 H :   -0.023858
   5 H :    0.052044
   6 H :    0.060836
   7 H :    0.055783
Sum of atomic charges:   -0.0000000

LOEWDIN ATOMIC CHARGES
----------------------
   0 C :   -0.069912
   1 O :    0.026475
   2 C :   -0.083987
   3 C :   -0.025145
   4 H :   -0.004312
   5 H :    0.061301
   6 H :    0.052298
   7 H :    0.043282

  Mayer bond orders larger than 0.100000
B(  0-C ,  1-O ) :   2.1994 B(  0-C ,  2-C ) :   1.0669 B(  0-C ,  4-H ) :   0.8921
B(  2-C ,  3-C ) :   1.9235 B(  2-C ,  5-H ) :   0.9124 B(  3-C ,  6-H ) :   0.9299
B(  3-C ,  7-H ) :   0.9351

-----------------------------------------------------------------------------
         ABSORPTION SPECTRUM VIA TRANSITION ELECTRIC DIPOLE MOMENTS
-----------------------------------------------------------------------------
State   Energy    Wavelength  fosc         T2        TX        TY        TZ
        (cm-1)      (nm)                 (au**2)    (au)      (au)      (au)
-----------------------------------------------------------------------------
   1   30365.7    329.3   0.000638686   0.00692   0.07970   0.01449   0.01905

FINAL SINGLE POINT ENERGY      -191.634431239206

DIPOLE MOMENT
-------------
                                X             Y             Z
Electronic contribution:     -3.15444      -0.68726       1.16958
Nuclear contribution   :      4.07622       0.97049      -1.65485
                        -----------------------------------------
Total Dipole Moment    :      0.92178       0.28323      -0.48526
                        -----------------------------------------
Magnitude (a.u.)       :      1.07953
Magnitude (Debye)      :      2.74394

Rotational constants in cm-1:     1.289047     0.161671     0.148376
Rotational constants in MHz : 38644.650177  4846.773025  4448.211431

                             ****ORCA TERMINATED NORMALLY****
TOTAL RUN TIME: 0 days 0 hours 3 minutes 19 seconds 333 msec
