                         Program Version 5.0.3 -  RELEASE  -
|  1> ! HF-3c
|  2> !TightSCF
|  3> %scf
|  4>  ConvForced true
|  5>  convergence tight
|  6>  MaxIter 500
|  7> end
|  8>
|  9> %tddft
| 10>  nroots 1
| 11> end
| 12>
| 13> # 	23381
| 14> * xyz 0 1
| 15> 		C   -0.548681  -0.408513   0.040121
| 16> 		O   -0.557516  -1.646826  -0.026632
| 17> 		C    0.607761   0.422412   0.003940
| 18> 		C    1.816779  -0.135483   0.013321
| 19> 		H   -1.511444   0.229804  -0.010419
| 20> 		H    0.496324   1.519112  -0.212905
| 21> 		H    1.676275  -1.281807   0.083568
| 22> 		H    2.791103   0.364340  -0.139519
| 23> *
| 24>
| 25>                          ****END OF INPUT****

CARTESIAN COORDINATES (ANGSTROEM)
---------------------------------
  C     -0.548681   -0.408513    0.040121
  O     -0.557516   -1.646826   -0.026632
  C      0.607761    0.422412    0.003940
  C      1.816779   -0.135483    0.013321
  H     -1.511444    0.229804   -0.010419
  H      0.496324    1.519112   -0.212905
  H      1.676275   -1.281807    0.083568
  H      2.791103    0.364340   -0.139519

 Total Charge           Charge          ....    0
 Multiplicity           Mult            ....    1
 Number of Electrons    NEL             ....   30
 Basis Dimension        Dim             ....   24

ORBITAL ENERGIES
----------------

  NO   OCC          E(Eh)            E(eV)
   0   2.0000     -20.348677      -553.7156
   1   2.0000     -11.287033      -307.1358
   2   2.0000     -11.190146      -304.4994
   3   2.0000     -11.181267      -304.2577
   4   2.0000      -1.377280       -37.4777
   5   2.0000      -1.085357       -29.5341
   6   2.0000      -0.891420       -24.2568
   7   2.0000      -0.720525       -19.6065
   8   2.0000      -0.701790       -19.0967
   9   2.0000      -0.604523       -16.4499
  10   2.0000      -0.583359       -15.8740
  11   2.0000      -0.534750       -14.5513
  12   2.0000      -0.507160       -13.8005
  13   2.0000      -0.411869       -11.2075
  14   2.0000      -0.386306       -10.5119
  15   0.0000       0.123674         3.3653
  16   0.0000       0.316262         8.6059
  17   0.0000       0.542698        14.7676
  18   0.0000       0.575555        15.6617
  19   0.0000       0.624328        16.9888

MULLIKEN ATOMIC CHARGES
-----------------------
   0 C :    0.161462
   1 O :   -0.362304
   2 C :   -0.194687
   3 C :   -0.200097
   4 H :    0.132767
   5 H :    0.141133
   6 H :    0.169554
   7 H :    0.152172
Sum of atomic charges:   -0.0000000

LOEWDIN ATOMIC CHARGES
----------------------
   0 C :    0.149165
   1 O :   -0.278805
   2 C :   -0.155256
   3 C :   -0.102716
   4 H :    0.074588
   5 H :    0.092172
   6 H :    0.119189
   7 H :    0.101663

  Mayer bond orders larger than 0.100000
B(  0-C ,  1-O ) :   1.8802 B(  0-C ,  2-C ) :   1.0606 B(  0-C ,  4-H ) :   0.9216
B(  2-C ,  3-C ) :   1.9148 B(  2-C ,  5-H ) :   0.9566 B(  3-C ,  6-H ) :   0.9469
B(  3-C ,  7-H ) :   0.9636

-----------------------------------------------------------------------------
         ABSORPTION SPECTRUM VIA TRANSITION ELECTRIC DIPOLE MOMENTS
-----------------------------------------------------------------------------
State   Energy    Wavelength  fosc         T2        TX        TY        TZ
        (cm-1)      (nm)                 (au**2)    (au)      (au)      (au)
-----------------------------------------------------------------------------
   1   31605.9    316.4   0.000050334   0.00052  -0.00706  -0.00352   0.02150

Dispersion correction           -0.026369954
FINAL SINGLE POINT ENERGY      -189.332484697191

DIPOLE MOMENT
-------------
                                X             Y             Z
Electronic contribution:     -1.68405      -1.62221       0.22225
Nuclear contribution   :      2.08206       2.56806      -0.26117
                        -----------------------------------------
Total Dipole Moment    :      0.39801       0.94585      -0.03892
                        -----------------------------------------
Magnitude (a.u.)       :      1.02691
Magnitude (Debye)      :      2.61020

Rotational constants in cm-1:     0.743637     0.218390     0.169170
Rotational constants in MHz : 22293.669040  6547.158647  5071.593716

                             ****ORCA TERMINATED NORMALLY****
TOTAL RUN TIME: 0 days 0 hours 0 minutes 13 seconds 203 msec
