                         Program Version 5.0.3 -  RELEASE  -
|  1> ! B3LYP cc-pVDZ
|  2> !TightSCF
|  3> %scf
|  4>  ConvForced true
|  5>  convergence tight
|  6>  MaxIter 500
|  7> end
|  8>
|  9> %tddft
| 10>  nroots 1
| 11> end
| 12>
| 13> # 	32009
| 14> * xyz 0 1
| 15> 		C   -0.474525  -0.468158  -0.033689
| 16> 		O   -0.635722  -1.649725   0.017868
| 17> 		C    0.628283   0.431609   0.026213
| 18> 		C    1.810546  -0.094615  -0.020868
| 19> 		H   -1.648995   0.162639   0.010580
| 20> 		H    0.562475   1.496680  -0.013687
| 21> 		H    1.914621  -1.169210  -0.079677
| 22> 		H    2.854420   0.492905   0.145582
| 23> *
| 24>
| 25>                          ****END OF INPUT****

CARTESIAN COORDINATES (ANGSTROEM)
---------------------------------
  C     -0.474525   -0.468158   -0.033689
  O     -0.635722   -1.649725    0.017868
  C      0.628283    0.431609    0.026213
  C      1.810546   -0.094615   -0.020868
  H     -1.648995    0.162639    0.010580
  H      0.562475    1.496680   -0.013687
  H      1.914621   -1.169210   -0.079677
  H      2.854420    0.492905    0.145582

 Total Charge           Charge          ....    0
 Multiplicity           Mult            ....    1
 Number of Electrons    NEL             ....   30
 Basis Dimension        Dim             ....   76

ORBITAL ENERGIES
----------------

  NO   OCC          E(Eh)            E(eV)
   0   2.0000     -19.146846      -521.0122
   1   2.0000     -10.288686      -279.9694
   2   2.0000     -10.227557      -278.3060
   3   2.0000     -10.208800      -277.7956
   4   2.0000      -1.061241       -28.8778
   5   2.0000      -0.825568       -22.4648
   6   2.0000      -0.652055       -17.7433
   7   2.0000      -0.550841       -14.9891
   8   2.0000      -0.497527       -13.5384
   9   2.0000      -0.458783       -12.4841
  10   2.0000      -0.413961       -11.2644
  11   2.0000      -0.411127       -11.1873
  12   2.0000      -0.385354       -10.4860
  13   2.0000      -0.306713        -8.3461
  14   2.0000      -0.245730        -6.6867
  15   0.0000      -0.072874        -1.9830
  16   0.0000       0.042028         1.1436
  17   0.0000       0.070419         1.9162
  18   0.0000       0.080230         2.1832
  19   0.0000       0.114228         3.1083

MULLIKEN ATOMIC CHARGES
-----------------------
   0 C :    0.123366
   1 O :   -0.157449
   2 C :   -0.027098
   3 C :    0.034096
   4 H :   -0.062324
   5 H :   -0.003808
   6 H :    0.036372
   7 H :    0.056845
Sum of atomic charges:    0.0000000

LOEWDIN ATOMIC CHARGES
----------------------
   0 C :   -0.050371
   1 O :    0.017249
   2 C :   -0.091772
   3 C :    0.039203
   4 H :   -0.036027
   5 H :    0.038287
   6 H :    0.029925
   7 H :    0.053506

  Mayer bond orders larger than 0.100000
B(  0-C ,  1-O ) :   2.2182 B(  0-C ,  2-C ) :   1.0541 B(  0-C ,  4-H ) :   0.8675
B(  2-C ,  3-C ) :   1.9355 B(  2-C ,  5-H ) :   0.9499 B(  3-C ,  6-H ) :   0.9322
B(  3-C ,  7-H ) :   0.9406

-----------------------------------------------------------------------------
         ABSORPTION SPECTRUM VIA TRANSITION ELECTRIC DIPOLE MOMENTS
-----------------------------------------------------------------------------
State   Energy    Wavelength  fosc         T2        TX        TY        TZ
        (cm-1)      (nm)                 (au**2)    (au)      (au)      (au)
-----------------------------------------------------------------------------
   1   25907.5    386.0   0.000460215   0.00585   0.02751  -0.00870  -0.07082

FINAL SINGLE POINT ENERGY      -191.652725793987

DIPOLE MOMENT
-------------
                                X             Y             Z
Electronic contribution:     -1.47918      -1.90931      -0.07900
Nuclear contribution   :      2.29403       2.71079       0.05859
                        -----------------------------------------
Total Dipole Moment    :      0.81484       0.80148      -0.02041
                        -----------------------------------------
Magnitude (a.u.)       :      1.14314
Magnitude (Debye)      :      2.90562

Rotational constants in cm-1:     0.829272     0.204947     0.164527
Rotational constants in MHz : 24860.955610  6144.158764  4932.388929

                             ****ORCA TERMINATED NORMALLY****
TOTAL RUN TIME: 0 days 0 hours 3 minutes 21 seconds 302 msec
