                         Program Version 5.0.3 -  RELEASE  -
|  1> ! B3LYP cc-pVDZ
|  2> !TightSCF
|  3> %scf
|  4>  ConvForced true
|  5>  convergence tight
|  6>  MaxIter 500
|  7> end
|  8>
|  9> %tddft
| 10>  nroots 1
| 11> end
| 12>
| 13> # 	17285
| 14> * xyz 0 1
| 15> 		C   -1.218675  -0.310047   0.023765
| 16> 		O   -1.392767  -1.423652  -0.509309
| 17> 		C   -0.043341   0.525993  -0.227819
| 18> 		C    1.280240   0.038820   0.044932
| 19> 		H   -1.882690   0.013266   0.757595
| 20> 		H   -0.315945   1.489779  -0.477244
| 21> 		H    1.452693  -0.933946   0.377919
| 22> 		H    2.133922   0.580372  -0.051484
| 23> *
| 24>
| 25>                          ****END OF INPUT****

CARTESIAN COORDINATES (ANGSTROEM)
---------------------------------
  C     -1.218675   -0.310047    0.023765
  O     -1.392767   -1.423652   -0.509309
  C     -0.043341    0.525993   -0.227819
  C      1.280240    0.038820    0.044932
  H     -1.882690    0.013266    0.757595
  H     -0.315945    1.489779   -0.477244
  H      1.452693   -0.933946    0.377919
  H      2.133922    0.580372   -0.051484

 Total Charge           Charge          ....    0
 Multiplicity           Mult            ....    1
 Number of Electrons    NEL             ....   30
 Basis Dimension        Dim             ....   76

ORBITAL ENERGIES
----------------

  NO   OCC          E(Eh)            E(eV)
   0   2.0000     -19.135769      -520.7107
   1   2.0000     -10.270882      -279.4849
   2   2.0000     -10.215406      -277.9753
   3   2.0000     -10.214423      -277.9486
   4   2.0000      -1.024694       -27.8834
   5   2.0000      -0.784970       -21.3601
   6   2.0000      -0.674976       -18.3670
   7   2.0000      -0.569911       -15.5081
   8   2.0000      -0.501506       -13.6467
   9   2.0000      -0.453484       -12.3399
  10   2.0000      -0.436158       -11.8685
  11   2.0000      -0.401674       -10.9301
  12   2.0000      -0.364675        -9.9233
  13   2.0000      -0.275508        -7.4969
  14   2.0000      -0.251304        -6.8383
  15   0.0000      -0.061430        -1.6716
  16   0.0000      -0.003165        -0.0861
  17   0.0000       0.086011         2.3405
  18   0.0000       0.099557         2.7091
  19   0.0000       0.118086         3.2133

MULLIKEN ATOMIC CHARGES
-----------------------
   0 C :    0.193810
   1 O :   -0.222418
   2 C :   -0.065711
   3 C :    0.083517
   4 H :   -0.015933
   5 H :   -0.009935
   6 H :    0.021765
   7 H :    0.014905
Sum of atomic charges:   -0.0000000

LOEWDIN ATOMIC CHARGES
----------------------
   0 C :   -0.004006
   1 O :   -0.032583
   2 C :   -0.031146
   3 C :    0.032440
   4 H :   -0.009310
   5 H :    0.015511
   6 H :    0.020484
   7 H :    0.008608

  Mayer bond orders larger than 0.100000
B(  0-C ,  1-O ) :   2.1694 B(  0-C ,  2-C ) :   1.0438 B(  0-C ,  4-H ) :   0.9313
B(  2-C ,  3-C ) :   1.9644 B(  2-C ,  5-H ) :   0.9457 B(  3-C ,  6-H ) :   0.9570
B(  3-C ,  7-H ) :   0.9642

-----------------------------------------------------------------------------
         ABSORPTION SPECTRUM VIA TRANSITION ELECTRIC DIPOLE MOMENTS
-----------------------------------------------------------------------------
State   Energy    Wavelength  fosc         T2        TX        TY        TZ
        (cm-1)      (nm)                 (au**2)    (au)      (au)      (au)
-----------------------------------------------------------------------------
   1   28485.2    351.1   0.000103502   0.00120  -0.03246  -0.01170  -0.00236

FINAL SINGLE POINT ENERGY      -191.645434850177

DIPOLE MOMENT
-------------
                                X             Y             Z
Electronic contribution:     -2.23710      -1.42043      -0.77235
Nuclear contribution   :      2.67025       2.30447       1.19665
                        -----------------------------------------
Total Dipole Moment    :      0.43315       0.88404       0.42430
                        -----------------------------------------
Magnitude (a.u.)       :      1.07199
Magnitude (Debye)      :      2.72479

Rotational constants in cm-1:     0.788500     0.184551     0.157854
Rotational constants in MHz : 23638.644260  5532.699770  4732.343763

                             ****ORCA TERMINATED NORMALLY****
TOTAL RUN TIME: 0 days 0 hours 3 minutes 21 seconds 771 msec
