                         Program Version 5.0.3 -  RELEASE  -
|  1> ! HF-3c
|  2> !TightSCF
|  3> %scf
|  4>  ConvForced true
|  5>  convergence tight
|  6>  MaxIter 500
|  7> end
|  8>
|  9> %tddft
| 10>  nroots 1
| 11> end
| 12>
| 13> # 	27984
| 14> * xyz 0 1
| 15> 		C   -0.612232  -0.411632  -0.013218
| 16> 		O   -0.564080  -1.652781   0.007542
| 17> 		C    0.655197   0.448550  -0.012206
| 18> 		C    1.807679  -0.151392  -0.005363
| 19> 		H   -1.491118  -0.030310   0.020759
| 20> 		H    0.610484   1.551325   0.165438
| 21> 		H    2.060146  -1.161215   0.072217
| 22> 		H    2.718828   0.493021  -0.005682
| 23> *
| 24>
| 25>                          ****END OF INPUT****

CARTESIAN COORDINATES (ANGSTROEM)
---------------------------------
  C     -0.612232   -0.411632   -0.013218
  O     -0.564080   -1.652781    0.007542
  C      0.655197    0.448550   -0.012206
  C      1.807679   -0.151392   -0.005363
  H     -1.491118   -0.030310    0.020759
  H      0.610484    1.551325    0.165438
  H      2.060146   -1.161215    0.072217
  H      2.718828    0.493021   -0.005682

 Total Charge           Charge          ....    0
 Multiplicity           Mult            ....    1
 Number of Electrons    NEL             ....   30
 Basis Dimension        Dim             ....   24

ORBITAL ENERGIES
----------------

  NO   OCC          E(Eh)            E(eV)
   0   2.0000     -20.363415      -554.1167
   1   2.0000     -11.293824      -307.3206
   2   2.0000     -11.195398      -304.6423
   3   2.0000     -11.189992      -304.4952
   4   2.0000      -1.385035       -37.6887
   5   2.0000      -1.083352       -29.4795
   6   2.0000      -0.900256       -24.4972
   7   2.0000      -0.777182       -21.1482
   8   2.0000      -0.707057       -19.2400
   9   2.0000      -0.619415       -16.8551
  10   2.0000      -0.588654       -16.0181
  11   2.0000      -0.536255       -14.5922
  12   2.0000      -0.523802       -14.2534
  13   2.0000      -0.424836       -11.5604
  14   2.0000      -0.400348       -10.8940
  15   0.0000       0.133232         3.6254
  16   0.0000       0.294243         8.0067
  17   0.0000       0.530567        14.4375
  18   0.0000       0.570123        15.5138
  19   0.0000       0.695039        18.9130

MULLIKEN ATOMIC CHARGES
-----------------------
   0 C :    0.133736
   1 O :   -0.334429
   2 C :   -0.167208
   3 C :   -0.225446
   4 H :    0.141714
   5 H :    0.151611
   6 H :    0.158799
   7 H :    0.141225
Sum of atomic charges:    0.0000000

LOEWDIN ATOMIC CHARGES
----------------------
   0 C :    0.136322
   1 O :   -0.249676
   2 C :   -0.123024
   3 C :   -0.124794
   4 H :    0.066468
   5 H :    0.100887
   6 H :    0.100294
   7 H :    0.093524

  Mayer bond orders larger than 0.100000
B(  0-C ,  1-O ) :   1.9160 B(  0-C ,  2-C ) :   1.0063 B(  0-C ,  4-H ) :   0.9469
B(  2-C ,  3-C ) :   1.9670 B(  2-C ,  5-H ) :   0.9553 B(  3-C ,  6-H ) :   0.9607
B(  3-C ,  7-H ) :   0.9618

-----------------------------------------------------------------------------
         ABSORPTION SPECTRUM VIA TRANSITION ELECTRIC DIPOLE MOMENTS
-----------------------------------------------------------------------------
State   Energy    Wavelength  fosc         T2        TX        TY        TZ
        (cm-1)      (nm)                 (au**2)    (au)      (au)      (au)
-----------------------------------------------------------------------------
   1   30655.0    326.2   0.000019444   0.00021   0.01389   0.00057   0.00395

Dispersion correction           -0.025632761
FINAL SINGLE POINT ENERGY      -189.325144627370

DIPOLE MOMENT
-------------
                                X             Y             Z
Electronic contribution:     -2.16994      -1.65801      -0.17751
Nuclear contribution   :      2.49766       2.58724       0.23684
                        -----------------------------------------
Total Dipole Moment    :      0.32772       0.92923       0.05933
                        -----------------------------------------
Magnitude (a.u.)       :      0.98711
Magnitude (Debye)      :      2.50904

Rotational constants in cm-1:     0.750689     0.210122     0.164293
Rotational constants in MHz : 22505.096037  6299.298021  4925.376735

                             ****ORCA TERMINATED NORMALLY****
TOTAL RUN TIME: 0 days 0 hours 0 minutes 16 seconds 74 msec
