                         Program Version 5.0.3 -  RELEASE  -
|  1> ! B3LYP cc-pVDZ
|  2> !TightSCF
|  3> %scf
|  4>  ConvForced true
|  5>  convergence tight
|  6>  MaxIter 500
|  7> end
|  8>
|  9> %tddft
| 10>  nroots 1
| 11> end
| 12>
| 13> # 	28758
| 14> * xyz 0 1
| 15> 		C   -0.612748  -0.415235   0.033246
| 16> 		O   -0.507516  -1.578827  -0.017427
| 17> 		C    0.620237   0.411914   0.002653
| 18> 		C    1.796305  -0.191097   0.015475
| 19> 		H   -1.707164   0.139901  -0.088605
| 20> 		H    0.630349   1.343755  -0.122393
| 21> 		H    1.859064  -1.271659   0.006366
| 22> 		H    2.715969   0.420350  -0.143044
| 23> *
| 24>
| 25>                          ****END OF INPUT****

CARTESIAN COORDINATES (ANGSTROEM)
---------------------------------
  C     -0.612748   -0.415235    0.033246
  O     -0.507516   -1.578827   -0.017427
  C      0.620237    0.411914    0.002653
  C      1.796305   -0.191097    0.015475
  H     -1.707164    0.139901   -0.088605
  H      0.630349    1.343755   -0.122393
  H      1.859064   -1.271659    0.006366
  H      2.715969    0.420350   -0.143044

 Total Charge           Charge          ....    0
 Multiplicity           Mult            ....    1
 Number of Electrons    NEL             ....   30
 Basis Dimension        Dim             ....   76

ORBITAL ENERGIES
----------------

  NO   OCC          E(Eh)            E(eV)
   0   2.0000     -19.140644      -520.8434
   1   2.0000     -10.281664      -279.7783
   2   2.0000     -10.205250      -277.6990
   3   2.0000     -10.184219      -277.1267
   4   2.0000      -1.074866       -29.2486
   5   2.0000      -0.800255       -21.7761
   6   2.0000      -0.642412       -17.4809
   7   2.0000      -0.551327       -15.0024
   8   2.0000      -0.512898       -13.9567
   9   2.0000      -0.452051       -12.3009
  10   2.0000      -0.419954       -11.4275
  11   2.0000      -0.414759       -11.2862
  12   2.0000      -0.386739       -10.5237
  13   2.0000      -0.287930        -7.8350
  14   2.0000      -0.257118        -6.9965
  15   0.0000      -0.061846        -1.6829
  16   0.0000       0.060465         1.6453
  17   0.0000       0.073282         1.9941
  18   0.0000       0.088284         2.4023
  19   0.0000       0.129152         3.5144

MULLIKEN ATOMIC CHARGES
-----------------------
   0 C :    0.132739
   1 O :   -0.147002
   2 C :    0.010338
   3 C :    0.057353
   4 H :   -0.016362
   5 H :   -0.099592
   6 H :    0.030048
   7 H :    0.032478
Sum of atomic charges:    0.0000000

LOEWDIN ATOMIC CHARGES
----------------------
   0 C :   -0.056435
   1 O :    0.039472
   2 C :   -0.059556
   3 C :    0.036159
   4 H :   -0.004100
   5 H :   -0.020142
   6 H :    0.027232
   7 H :    0.037369

  Mayer bond orders larger than 0.100000
B(  0-C ,  1-O ) :   2.2312 B(  0-C ,  2-C ) :   1.0120 B(  0-C ,  4-H ) :   0.8902
B(  2-C ,  3-C ) :   1.9946 B(  2-C ,  5-H ) :   0.9440 B(  3-C ,  6-H ) :   0.9300
B(  3-C ,  7-H ) :   0.9408

-----------------------------------------------------------------------------
         ABSORPTION SPECTRUM VIA TRANSITION ELECTRIC DIPOLE MOMENTS
-----------------------------------------------------------------------------
State   Energy    Wavelength  fosc         T2        TX        TY        TZ
        (cm-1)      (nm)                 (au**2)    (au)      (au)      (au)
-----------------------------------------------------------------------------
   1   30108.1    332.1   0.000215156   0.00235  -0.00044  -0.02166   0.04340

FINAL SINGLE POINT ENERGY      -191.637582152527

DIPOLE MOMENT
-------------
                                X             Y             Z
Electronic contribution:     -1.79257      -1.61432       0.28152
Nuclear contribution   :      2.12721       2.38144      -0.32562
                        -----------------------------------------
Total Dipole Moment    :      0.33465       0.76711      -0.04410
                        -----------------------------------------
Magnitude (a.u.)       :      0.83809
Magnitude (Debye)      :      2.13026

Rotational constants in cm-1:     0.757357     0.227648     0.175271
Rotational constants in MHz : 22705.005113  6824.720742  5254.496938

                             ****ORCA TERMINATED NORMALLY****
TOTAL RUN TIME: 0 days 0 hours 3 minutes 20 seconds 665 msec
