                         Program Version 5.0.3 -  RELEASE  -
|  1> ! HF-3c
|  2> !TightSCF
|  3> %scf
|  4>  ConvForced true
|  5>  convergence tight
|  6>  MaxIter 500
|  7> end
|  8>
|  9> %tddft
| 10>  nroots 1
| 11> end
| 12>
| 13> # 	29561
| 14> * xyz 0 1
| 15> 		C   -0.558872  -0.388532   0.008607
| 16> 		O   -0.526004  -1.602020  -0.007089
| 17> 		C    0.553143   0.400353  -0.044337
| 18> 		C    1.832493  -0.184570   0.020937
| 19> 		H   -1.607225   0.276878   0.153691
| 20> 		H    0.432414   1.468303   0.105556
| 21> 		H    1.989867  -1.385918   0.055697
| 22> 		H    2.701175   0.425579  -0.026288
| 23> *
| 24>
| 25>                          ****END OF INPUT****

CARTESIAN COORDINATES (ANGSTROEM)
---------------------------------
  C     -0.558872   -0.388532    0.008607
  O     -0.526004   -1.602020   -0.007089
  C      0.553143    0.400353   -0.044337
  C      1.832493   -0.184570    0.020937
  H     -1.607225    0.276878    0.153691
  H      0.432414    1.468303    0.105556
  H      1.989867   -1.385918    0.055697
  H      2.701175    0.425579   -0.026288

 Total Charge           Charge          ....    0
 Multiplicity           Mult            ....    1
 Number of Electrons    NEL             ....   30
 Basis Dimension        Dim             ....   24

ORBITAL ENERGIES
----------------

  NO   OCC          E(Eh)            E(eV)
   0   2.0000     -20.336753      -553.3912
   1   2.0000     -11.283505      -307.0398
   2   2.0000     -11.200013      -304.7679
   3   2.0000     -11.179632      -304.2133
   4   2.0000      -1.385930       -37.7131
   5   2.0000      -1.071096       -29.1460
   6   2.0000      -0.894901       -24.3515
   7   2.0000      -0.713537       -19.4163
   8   2.0000      -0.694782       -18.9060
   9   2.0000      -0.601620       -16.3709
  10   2.0000      -0.570400       -15.5214
  11   2.0000      -0.540394       -14.7049
  12   2.0000      -0.519644       -14.1402
  13   2.0000      -0.395641       -10.7659
  14   2.0000      -0.365963        -9.9584
  15   0.0000       0.111233         3.0268
  16   0.0000       0.326840         8.8938
  17   0.0000       0.490161        13.3380
  18   0.0000       0.531039        14.4503
  19   0.0000       0.656055        17.8522

MULLIKEN ATOMIC CHARGES
-----------------------
   0 C :    0.166276
   1 O :   -0.373954
   2 C :   -0.203771
   3 C :   -0.166364
   4 H :    0.123007
   5 H :    0.141882
   6 H :    0.171840
   7 H :    0.141086
Sum of atomic charges:    0.0000000

LOEWDIN ATOMIC CHARGES
----------------------
   0 C :    0.140420
   1 O :   -0.284470
   2 C :   -0.164363
   3 C :   -0.068362
   4 H :    0.072541
   5 H :    0.090782
   6 H :    0.125137
   7 H :    0.088315

  Mayer bond orders larger than 0.100000
B(  0-C ,  1-O ) :   1.8527 B(  0-C ,  2-C ) :   1.1065 B(  0-C ,  4-H ) :   0.9061
B(  1-O ,  3-C ) :   0.1077 B(  2-C ,  3-C ) :   1.8629 B(  2-C ,  5-H ) :   0.9600
B(  3-C ,  6-H ) :   0.9543 B(  3-C ,  7-H ) :   0.9689

-----------------------------------------------------------------------------
         ABSORPTION SPECTRUM VIA TRANSITION ELECTRIC DIPOLE MOMENTS
-----------------------------------------------------------------------------
State   Energy    Wavelength  fosc         T2        TX        TY        TZ
        (cm-1)      (nm)                 (au**2)    (au)      (au)      (au)
-----------------------------------------------------------------------------
   1   30906.4    323.6   0.000139594   0.00149  -0.03287  -0.00409  -0.01974

Dispersion correction           -0.025900189
FINAL SINGLE POINT ENERGY      -189.304502711260

DIPOLE MOMENT
-------------
                                X             Y             Z
Electronic contribution:     -1.63416      -1.62162      -0.18571
Nuclear contribution   :      2.14396       2.52128       0.27071
                        -----------------------------------------
Total Dipole Moment    :      0.50979       0.89965       0.08501
                        -----------------------------------------
Magnitude (a.u.)       :      1.03754
Magnitude (Debye)      :      2.63722

Rotational constants in cm-1:     0.694729     0.228864     0.172397
Rotational constants in MHz : 20827.460419  6861.179246  5168.324323

                             ****ORCA TERMINATED NORMALLY****
TOTAL RUN TIME: 0 days 0 hours 0 minutes 11 seconds 400 msec
