                         Program Version 5.0.3 -  RELEASE  -
|  1> ! B3LYP cc-pVDZ
|  2> !TightSCF
|  3> %scf
|  4>  ConvForced true
|  5>  convergence tight
|  6>  MaxIter 500
|  7> end
|  8>
|  9> %tddft
| 10>  nroots 1
| 11> end
| 12>
| 13> # 	23689
| 14> * xyz 0 1
| 15> 		C   -0.571705  -0.510610  -0.018648
| 16> 		O   -0.649308  -1.641686   0.001456
| 17> 		C    0.647739   0.414596  -0.003668
| 18> 		C    1.902158  -0.073652  -0.009232
| 19> 		H   -1.456510   0.101680   0.219663
| 20> 		H    0.509652   1.632784  -0.059698
| 21> 		H    2.008539  -1.112937   0.047727
| 22> 		H    2.676235   0.691033   0.146613
| 23> *
| 24>
| 25>                          ****END OF INPUT****

CARTESIAN COORDINATES (ANGSTROEM)
---------------------------------
  C     -0.571705   -0.510610   -0.018648
  O     -0.649308   -1.641686    0.001456
  C      0.647739    0.414596   -0.003668
  C      1.902158   -0.073652   -0.009232
  H     -1.456510    0.101680    0.219663
  H      0.509652    1.632784   -0.059698
  H      2.008539   -1.112937    0.047727
  H      2.676235    0.691033    0.146613

 Total Charge           Charge          ....    0
 Multiplicity           Mult            ....    1
 Number of Electrons    NEL             ....   30
 Basis Dimension        Dim             ....   76

ORBITAL ENERGIES
----------------

  NO   OCC          E(Eh)            E(eV)
   0   2.0000     -19.145720      -520.9815
   1   2.0000     -10.273140      -279.5464
   2   2.0000     -10.213028      -277.9106
   3   2.0000     -10.207191      -277.7518
   4   2.0000      -1.096103       -29.8265
   5   2.0000      -0.787763       -21.4361
   6   2.0000      -0.647431       -17.6175
   7   2.0000      -0.532929       -14.5017
   8   2.0000      -0.509423       -13.8621
   9   2.0000      -0.460481       -12.5303
  10   2.0000      -0.426045       -11.5933
  11   2.0000      -0.421096       -11.4586
  12   2.0000      -0.381493       -10.3810
  13   2.0000      -0.289544        -7.8789
  14   2.0000      -0.253069        -6.8864
  15   0.0000      -0.060048        -1.6340
  16   0.0000       0.050758         1.3812
  17   0.0000       0.067580         1.8389
  18   0.0000       0.096491         2.6257
  19   0.0000       0.120946         3.2911

MULLIKEN ATOMIC CHARGES
-----------------------
   0 C :    0.195515
   1 O :   -0.116006
   2 C :   -0.225293
   3 C :    0.111654
   4 H :   -0.047314
   5 H :    0.029141
   6 H :    0.016985
   7 H :    0.035317
Sum of atomic charges:    0.0000000

LOEWDIN ATOMIC CHARGES
----------------------
   0 C :   -0.085642
   1 O :    0.080466
   2 C :   -0.092136
   3 C :    0.013099
   4 H :   -0.022399
   5 H :    0.047983
   6 H :    0.019836
   7 H :    0.038792

  Mayer bond orders larger than 0.100000
B(  0-C ,  1-O ) :   2.2958 B(  0-C ,  2-C ) :   0.9948 B(  0-C ,  4-H ) :   0.9023
B(  2-C ,  3-C ) :   1.9770 B(  2-C ,  5-H ) :   0.9330 B(  3-C ,  6-H ) :   0.9366
B(  3-C ,  7-H ) :   0.9389

-----------------------------------------------------------------------------
         ABSORPTION SPECTRUM VIA TRANSITION ELECTRIC DIPOLE MOMENTS
-----------------------------------------------------------------------------
State   Energy    Wavelength  fosc         T2        TX        TY        TZ
        (cm-1)      (nm)                 (au**2)    (au)      (au)      (au)
-----------------------------------------------------------------------------
   1   30067.6    332.6   0.000181451   0.00199   0.02579   0.00070  -0.03635

FINAL SINGLE POINT ENERGY      -191.641598483088

DIPOLE MOMENT
-------------
                                X             Y             Z
Electronic contribution:     -1.93857      -2.28536      -0.30366
Nuclear contribution   :      2.34544       3.02020       0.33232
                        -----------------------------------------
Total Dipole Moment    :      0.40688       0.73484       0.02866
                        -----------------------------------------
Magnitude (a.u.)       :      0.84045
Magnitude (Debye)      :      2.13625

Rotational constants in cm-1:     0.836740     0.192756     0.156904
Rotational constants in MHz : 25084.834488  5778.685032  4703.850809

                             ****ORCA TERMINATED NORMALLY****
TOTAL RUN TIME: 0 days 0 hours 3 minutes 20 seconds 516 msec
