                         Program Version 5.0.3 -  RELEASE  -
|  1> ! HF-3c
|  2> !TightSCF
|  3> %scf
|  4>  ConvForced true
|  5>  convergence tight
|  6>  MaxIter 500
|  7> end
|  8>
|  9> %tddft
| 10>  nroots 1
| 11> end
| 12>
| 13> # 	3006
| 14> * xyz 0 1
| 15> 		C   -1.187428  -0.356713  -0.028431
| 16> 		O   -1.367999  -1.433551  -0.500084
| 17> 		C    0.086441   0.502978  -0.148968
| 18> 		C    1.272442   0.072366   0.068482
| 19> 		H   -2.014524   0.144571   0.460870
| 20> 		H   -0.235701   1.534829  -0.247491
| 21> 		H    1.394532  -1.006342   0.468633
| 22> 		H    2.117677   0.586635  -0.126891
| 23> *
| 24>
| 25>                          ****END OF INPUT****

CARTESIAN COORDINATES (ANGSTROEM)
---------------------------------
  C     -1.187428   -0.356713   -0.028431
  O     -1.367999   -1.433551   -0.500084
  C      0.086441    0.502978   -0.148968
  C      1.272442    0.072366    0.068482
  H     -2.014524    0.144571    0.460870
  H     -0.235701    1.534829   -0.247491
  H      1.394532   -1.006342    0.468633
  H      2.117677    0.586635   -0.126891

 Total Charge           Charge          ....    0
 Multiplicity           Mult            ....    1
 Number of Electrons    NEL             ....   30
 Basis Dimension        Dim             ....   24

ORBITAL ENERGIES
----------------

  NO   OCC          E(Eh)            E(eV)
   0   2.0000     -20.381933      -554.6206
   1   2.0000     -11.301978      -307.5425
   2   2.0000     -11.195221      -304.6375
   3   2.0000     -11.192688      -304.5685
   4   2.0000      -1.421602       -38.6838
   5   2.0000      -1.090292       -29.6684
   6   2.0000      -0.892620       -24.2894
   7   2.0000      -0.758509       -20.6401
   8   2.0000      -0.699098       -19.0234
   9   2.0000      -0.642358       -17.4794
  10   2.0000      -0.613926       -16.7058
  11   2.0000      -0.539186       -14.6720
  12   2.0000      -0.532265       -14.4837
  13   2.0000      -0.423400       -11.5213
  14   2.0000      -0.399941       -10.8829
  15   0.0000       0.157327         4.2811
  16   0.0000       0.281528         7.6608
  17   0.0000       0.494763        13.4632
  18   0.0000       0.622942        16.9511
  19   0.0000       0.675854        18.3909

MULLIKEN ATOMIC CHARGES
-----------------------
   0 C :    0.176761
   1 O :   -0.349080
   2 C :   -0.164030
   3 C :   -0.244876
   4 H :    0.132161
   5 H :    0.146151
   6 H :    0.156771
   7 H :    0.146141
Sum of atomic charges:   -0.0000000

LOEWDIN ATOMIC CHARGES
----------------------
   0 C :    0.150876
   1 O :   -0.244752
   2 C :   -0.118619
   3 C :   -0.147076
   4 H :    0.066742
   5 H :    0.094070
   6 H :    0.109608
   7 H :    0.089152

  Mayer bond orders larger than 0.100000
B(  0-C ,  1-O ) :   1.9414 B(  0-C ,  2-C ) :   0.9769 B(  0-C ,  4-H ) :   0.9243
B(  2-C ,  3-C ) :   1.9951 B(  2-C ,  5-H ) :   0.9519 B(  3-C ,  6-H ) :   0.9539
B(  3-C ,  7-H ) :   0.9631

-----------------------------------------------------------------------------
         ABSORPTION SPECTRUM VIA TRANSITION ELECTRIC DIPOLE MOMENTS
-----------------------------------------------------------------------------
State   Energy    Wavelength  fosc         T2        TX        TY        TZ
        (cm-1)      (nm)                 (au**2)    (au)      (au)      (au)
-----------------------------------------------------------------------------
   1   34643.6    288.7   0.000401332   0.00381  -0.06052  -0.01229   0.00023

Dispersion correction           -0.025314336
FINAL SINGLE POINT ENERGY      -189.316852869324

DIPOLE MOMENT
-------------
                                X             Y             Z
Electronic contribution:     -2.11240      -1.62871      -0.68851
Nuclear contribution   :      2.41064       2.44007       1.10137
                        -----------------------------------------
Total Dipole Moment    :      0.29823       0.81136       0.41286
                        -----------------------------------------
Magnitude (a.u.)       :      0.95797
Magnitude (Debye)      :      2.43496

Rotational constants in cm-1:     0.884365     0.183203     0.157113
Rotational constants in MHz : 26512.594866  5492.288090  4710.114258

                             ****ORCA TERMINATED NORMALLY****
TOTAL RUN TIME: 0 days 0 hours 0 minutes 14 seconds 981 msec
