                         Program Version 5.0.3 -  RELEASE  -
|  1> ! HF-3c
|  2> !TightSCF
|  3> %scf
|  4>  ConvForced true
|  5>  convergence tight
|  6>  MaxIter 500
|  7> end
|  8>
|  9> %tddft
| 10>  nroots 1
| 11> end
| 12>
| 13> # 	10527
| 14> * xyz 0 1
| 15> 		C   -1.188126  -0.362177  -0.064440
| 16> 		O   -1.569641  -1.276422  -0.728564
| 17> 		C    0.010466   0.456285  -0.240351
| 18> 		C    1.191930   0.077454   0.141614
| 19> 		H   -1.688176  -0.185269   0.965655
| 20> 		H   -0.078374   1.592415  -0.760573
| 21> 		H    1.320227  -1.029971   0.576825
| 22> 		H    1.991425   0.675427   0.046836
| 23> *
| 24>
| 25>                          ****END OF INPUT****

CARTESIAN COORDINATES (ANGSTROEM)
---------------------------------
  C     -1.188126   -0.362177   -0.064440
  O     -1.569641   -1.276422   -0.728564
  C      0.010466    0.456285   -0.240351
  C      1.191930    0.077454    0.141614
  H     -1.688176   -0.185269    0.965655
  H     -0.078374    1.592415   -0.760573
  H      1.320227   -1.029971    0.576825
  H      1.991425    0.675427    0.046836

 Total Charge           Charge          ....    0
 Multiplicity           Mult            ....    1
 Number of Electrons    NEL             ....   30
 Basis Dimension        Dim             ....   24

ORBITAL ENERGIES
----------------

  NO   OCC          E(Eh)            E(eV)
   0   2.0000     -20.383096      -554.6522
   1   2.0000     -11.305970      -307.6511
   2   2.0000     -11.191765      -304.5434
   3   2.0000     -11.178171      -304.1735
   4   2.0000      -1.420443       -38.6522
   5   2.0000      -1.086823       -29.5739
   6   2.0000      -0.886716       -24.1288
   7   2.0000      -0.738286       -20.0898
   8   2.0000      -0.671263       -18.2660
   9   2.0000      -0.646593       -17.5947
  10   2.0000      -0.609940       -16.5973
  11   2.0000      -0.535303       -14.5663
  12   2.0000      -0.491887       -13.3849
  13   2.0000      -0.416960       -11.3461
  14   2.0000      -0.400040       -10.8857
  15   0.0000       0.191074         5.1994
  16   0.0000       0.226595         6.1660
  17   0.0000       0.489819        13.3287
  18   0.0000       0.543491        14.7892
  19   0.0000       0.631821        17.1927

MULLIKEN ATOMIC CHARGES
-----------------------
   0 C :    0.177723
   1 O :   -0.344867
   2 C :   -0.152704
   3 C :   -0.254979
   4 H :    0.133864
   5 H :    0.156406
   6 H :    0.145331
   7 H :    0.139225
Sum of atomic charges:    0.0000000

LOEWDIN ATOMIC CHARGES
----------------------
   0 C :    0.151814
   1 O :   -0.243196
   2 C :   -0.118466
   3 C :   -0.167184
   4 H :    0.074140
   5 H :    0.116017
   6 H :    0.103315
   7 H :    0.083559

  Mayer bond orders larger than 0.100000
B(  0-C ,  1-O ) :   1.9476 B(  0-C ,  2-C ) :   0.9962 B(  0-C ,  4-H ) :   0.9079
B(  2-C ,  3-C ) :   2.0014 B(  2-C ,  5-H ) :   0.9339 B(  3-C ,  6-H ) :   0.9569
B(  3-C ,  7-H ) :   0.9654

-----------------------------------------------------------------------------
         ABSORPTION SPECTRUM VIA TRANSITION ELECTRIC DIPOLE MOMENTS
-----------------------------------------------------------------------------
State   Energy    Wavelength  fosc         T2        TX        TY        TZ
        (cm-1)      (nm)                 (au**2)    (au)      (au)      (au)
-----------------------------------------------------------------------------
   1   35230.7    283.8   0.000063764   0.00060  -0.00753   0.01781   0.01490

Dispersion correction           -0.025168769
FINAL SINGLE POINT ENERGY      -189.287249125247

DIPOLE MOMENT
-------------
                                X             Y             Z
Electronic contribution:     -2.58927      -1.38752      -1.10613
Nuclear contribution   :      2.99776       2.13120       1.62560
                        -----------------------------------------
Total Dipole Moment    :      0.40849       0.74368       0.51947
                        -----------------------------------------
Magnitude (a.u.)       :      0.99487
Magnitude (Debye)      :      2.52876

Rotational constants in cm-1:     0.965414     0.173461     0.160806
Rotational constants in MHz : 28942.386620  5200.223934  4820.854348

                             ****ORCA TERMINATED NORMALLY****
TOTAL RUN TIME: 0 days 0 hours 0 minutes 16 seconds 96 msec
