                         Program Version 5.0.3 -  RELEASE  -
|  1> ! B3LYP cc-pVDZ
|  2> !TightSCF
|  3> %scf
|  4>  ConvForced true
|  5>  convergence tight
|  6>  MaxIter 500
|  7> end
|  8>
|  9> %tddft
| 10>  nroots 1
| 11> end
| 12>
| 13> # 	23339
| 14> * xyz 0 1
| 15> 		C   -0.574191  -0.430172  -0.024390
| 16> 		O   -0.556817  -1.620064   0.006417
| 17> 		C    0.621029   0.433366   0.064573
| 18> 		C    1.806474  -0.161769  -0.015664
| 19> 		H   -1.502866   0.116976  -0.099361
| 20> 		H    0.585016   1.555557  -0.184588
| 21> 		H    1.976287  -1.256954  -0.035227
| 22> 		H    2.681195   0.452207  -0.085082
| 23> *
| 24>
| 25>                          ****END OF INPUT****

CARTESIAN COORDINATES (ANGSTROEM)
---------------------------------
  C     -0.574191   -0.430172   -0.024390
  O     -0.556817   -1.620064    0.006417
  C      0.621029    0.433366    0.064573
  C      1.806474   -0.161769   -0.015664
  H     -1.502866    0.116976   -0.099361
  H      0.585016    1.555557   -0.184588
  H      1.976287   -1.256954   -0.035227
  H      2.681195    0.452207   -0.085082

 Total Charge           Charge          ....    0
 Multiplicity           Mult            ....    1
 Number of Electrons    NEL             ....   30
 Basis Dimension        Dim             ....   76

ORBITAL ENERGIES
----------------

  NO   OCC          E(Eh)            E(eV)
   0   2.0000     -19.136050      -520.7184
   1   2.0000     -10.269126      -279.4371
   2   2.0000     -10.209847      -277.8241
   3   2.0000     -10.204020      -277.6655
   4   2.0000      -1.056538       -28.7499
   5   2.0000      -0.795497       -21.6466
   6   2.0000      -0.654943       -17.8219
   7   2.0000      -0.541956       -14.7474
   8   2.0000      -0.508966       -13.8497
   9   2.0000      -0.447815       -12.1857
  10   2.0000      -0.418758       -11.3950
  11   2.0000      -0.405155       -11.0248
  12   2.0000      -0.378297       -10.2940
  13   2.0000      -0.288752        -7.8573
  14   2.0000      -0.255152        -6.9430
  15   0.0000      -0.065530        -1.7832
  16   0.0000       0.056837         1.5466
  17   0.0000       0.068760         1.8711
  18   0.0000       0.093639         2.5481
  19   0.0000       0.123981         3.3737

MULLIKEN ATOMIC CHARGES
-----------------------
   0 C :    0.210205
   1 O :   -0.178930
   2 C :   -0.160115
   3 C :    0.080875
   4 H :   -0.035125
   5 H :    0.017134
   6 H :    0.045941
   7 H :    0.020015
Sum of atomic charges:   -0.0000000

LOEWDIN ATOMIC CHARGES
----------------------
   0 C :   -0.045600
   1 O :    0.014620
   2 C :   -0.096285
   3 C :    0.035223
   4 H :   -0.013625
   5 H :    0.043469
   6 H :    0.037057
   7 H :    0.025140

  Mayer bond orders larger than 0.100000
B(  0-C ,  1-O ) :   2.2156 B(  0-C ,  2-C ) :   1.0435 B(  0-C ,  4-H ) :   0.9234
B(  2-C ,  3-C ) :   1.9639 B(  2-C ,  5-H ) :   0.9335 B(  3-C ,  6-H ) :   0.9428
B(  3-C ,  7-H ) :   0.9414

-----------------------------------------------------------------------------
         ABSORPTION SPECTRUM VIA TRANSITION ELECTRIC DIPOLE MOMENTS
-----------------------------------------------------------------------------
State   Energy    Wavelength  fosc         T2        TX        TY        TZ
        (cm-1)      (nm)                 (au**2)    (au)      (au)      (au)
-----------------------------------------------------------------------------
   1   28896.2    346.1   0.000584480   0.00666   0.07380   0.02323  -0.02593

FINAL SINGLE POINT ENERGY      -191.668716345966

DIPOLE MOMENT
-------------
                                X             Y             Z
Electronic contribution:     -1.94303      -1.76038       0.26915
Nuclear contribution   :      2.34966       2.60117      -0.37848
                        -----------------------------------------
Total Dipole Moment    :      0.40663       0.84079      -0.10933
                        -----------------------------------------
Magnitude (a.u.)       :      0.94033
Magnitude (Debye)      :      2.39012

Rotational constants in cm-1:     0.751911     0.218324     0.169583
Rotational constants in MHz : 22541.730089  6545.185416  5083.975360

                             ****ORCA TERMINATED NORMALLY****
TOTAL RUN TIME: 0 days 0 hours 3 minutes 17 seconds 44 msec
