                         Program Version 5.0.3 -  RELEASE  -
|  1> ! HF-3c
|  2> !TightSCF
|  3> %scf
|  4>  ConvForced true
|  5>  convergence tight
|  6>  MaxIter 500
|  7> end
|  8>
|  9> %tddft
| 10>  nroots 1
| 11> end
| 12>
| 13> # 	30783
| 14> * xyz 0 1
| 15> 		C   -0.509014  -0.393682  -0.019489
| 16> 		O   -0.602507  -1.680255   0.004869
| 17> 		C    0.616778   0.401618  -0.003855
| 18> 		C    1.810377  -0.100941  -0.006227
| 19> 		H   -1.627406   0.264758   0.140660
| 20> 		H    0.569795   1.442717   0.020210
| 21> 		H    1.919376  -1.087115   0.041657
| 22> 		H    2.814341   0.419469   0.074927
| 23> *
| 24>
| 25>                          ****END OF INPUT****

CARTESIAN COORDINATES (ANGSTROEM)
---------------------------------
  C     -0.509014   -0.393682   -0.019489
  O     -0.602507   -1.680255    0.004869
  C      0.616778    0.401618   -0.003855
  C      1.810377   -0.100941   -0.006227
  H     -1.627406    0.264758    0.140660
  H      0.569795    1.442717    0.020210
  H      1.919376   -1.087115    0.041657
  H      2.814341    0.419469    0.074927

 Total Charge           Charge          ....    0
 Multiplicity           Mult            ....    1
 Number of Electrons    NEL             ....   30
 Basis Dimension        Dim             ....   24

ORBITAL ENERGIES
----------------

  NO   OCC          E(Eh)            E(eV)
   0   2.0000     -20.333815      -553.3112
   1   2.0000     -11.277068      -306.8646
   2   2.0000     -11.210486      -305.0528
   3   2.0000     -11.207917      -304.9829
   4   2.0000      -1.338571       -36.4244
   5   2.0000      -1.119512       -30.4635
   6   2.0000      -0.909876       -24.7590
   7   2.0000      -0.760904       -20.7053
   8   2.0000      -0.690908       -18.8006
   9   2.0000      -0.618508       -16.8305
  10   2.0000      -0.567860       -15.4523
  11   2.0000      -0.528778       -14.3888
  12   2.0000      -0.526762       -14.3339
  13   2.0000      -0.399498       -10.8709
  14   2.0000      -0.393482       -10.7072
  15   0.0000       0.108502         2.9525
  16   0.0000       0.323147         8.7933
  17   0.0000       0.447054        12.1650
  18   0.0000       0.591735        16.1019
  19   0.0000       0.625876        17.0309

MULLIKEN ATOMIC CHARGES
-----------------------
   0 C :    0.164019
   1 O :   -0.349279
   2 C :   -0.215087
   3 C :   -0.197566
   4 H :    0.128841
   5 H :    0.155941
   6 H :    0.155162
   7 H :    0.157968
Sum of atomic charges:    0.0000000

LOEWDIN ATOMIC CHARGES
----------------------
   0 C :    0.145939
   1 O :   -0.280336
   2 C :   -0.155557
   3 C :   -0.090550
   4 H :    0.083584
   5 H :    0.097557
   6 H :    0.091786
   7 H :    0.107577

  Mayer bond orders larger than 0.100000
B(  0-C ,  1-O ) :   1.8661 B(  0-C ,  2-C ) :   1.0910 B(  0-C ,  4-H ) :   0.9131
B(  2-C ,  3-C ) :   1.9011 B(  2-C ,  5-H ) :   0.9514 B(  3-C ,  6-H ) :   0.9618
B(  3-C ,  7-H ) :   0.9611

-----------------------------------------------------------------------------
         ABSORPTION SPECTRUM VIA TRANSITION ELECTRIC DIPOLE MOMENTS
-----------------------------------------------------------------------------
State   Energy    Wavelength  fosc         T2        TX        TY        TZ
        (cm-1)      (nm)                 (au**2)    (au)      (au)      (au)
-----------------------------------------------------------------------------
   1   27288.3    366.5   0.000047492   0.00057   0.00667  -0.00585  -0.02223

Dispersion correction           -0.026117603
FINAL SINGLE POINT ENERGY      -189.309815504911

DIPOLE MOMENT
-------------
                                X             Y             Z
Electronic contribution:     -1.78471      -1.70727      -0.21077
Nuclear contribution   :      2.29048       2.76182       0.26021
                        -----------------------------------------
Total Dipole Moment    :      0.50577       1.05455       0.04944
                        -----------------------------------------
Magnitude (a.u.)       :      1.17061
Magnitude (Debye)      :      2.97546

Rotational constants in cm-1:     0.777822     0.209683     0.165268
Rotational constants in MHz : 23318.531683  6286.134047  4954.598526

                             ****ORCA TERMINATED NORMALLY****
TOTAL RUN TIME: 0 days 0 hours 0 minutes 13 seconds 22 msec
