                         Program Version 5.0.3 -  RELEASE  -
|  1> ! HF-3c
|  2> !TightSCF
|  3> %scf
|  4>  ConvForced true
|  5>  convergence tight
|  6>  MaxIter 500
|  7> end
|  8>
|  9> %tddft
| 10>  nroots 1
| 11> end
| 12>
| 13> # 	13256
| 14> * xyz 0 1
| 15> 		C   -1.256048  -0.416301   0.093947
| 16> 		O   -1.934415  -0.746194   1.023992
| 17> 		C    0.028124   0.408295   0.350493
| 18> 		C    1.104036   0.111393  -0.343651
| 19> 		H   -1.276894  -0.650313  -1.027840
| 20> 		H    0.086495   1.353694   1.067726
| 21> 		H    1.192598  -0.728791  -1.016259
| 22> 		H    2.089329   0.690014  -0.118789
| 23> *
| 24>
| 25>                          ****END OF INPUT****

CARTESIAN COORDINATES (ANGSTROEM)
---------------------------------
  C     -1.256048   -0.416301    0.093947
  O     -1.934415   -0.746194    1.023992
  C      0.028124    0.408295    0.350493
  C      1.104036    0.111393   -0.343651
  H     -1.276894   -0.650313   -1.027840
  H      0.086495    1.353694    1.067726
  H      1.192598   -0.728791   -1.016259
  H      2.089329    0.690014   -0.118789

 Total Charge           Charge          ....    0
 Multiplicity           Mult            ....    1
 Number of Electrons    NEL             ....   30
 Basis Dimension        Dim             ....   24

ORBITAL ENERGIES
----------------

  NO   OCC          E(Eh)            E(eV)
   0   2.0000     -20.383617      -554.6664
   1   2.0000     -11.305233      -307.6310
   2   2.0000     -11.176012      -304.1148
   3   2.0000     -11.169917      -303.9489
   4   2.0000      -1.416644       -38.5488
   5   2.0000      -1.070112       -29.1192
   6   2.0000      -0.857506       -23.3339
   7   2.0000      -0.755074       -20.5466
   8   2.0000      -0.662025       -18.0146
   9   2.0000      -0.633140       -17.2286
  10   2.0000      -0.583366       -15.8742
  11   2.0000      -0.535409       -14.5692
  12   2.0000      -0.518609       -14.1121
  13   2.0000      -0.402221       -10.9450
  14   2.0000      -0.395700       -10.7675
  15   0.0000       0.161749         4.4014
  16   0.0000       0.277457         7.5500
  17   0.0000       0.518920        14.1205
  18   0.0000       0.534195        14.5362
  19   0.0000       0.590067        16.0565

MULLIKEN ATOMIC CHARGES
-----------------------
   0 C :    0.185384
   1 O :   -0.348115
   2 C :   -0.157106
   3 C :   -0.250429
   4 H :    0.147659
   5 H :    0.153455
   6 H :    0.130868
   7 H :    0.138284
Sum of atomic charges:   -0.0000000

LOEWDIN ATOMIC CHARGES
----------------------
   0 C :    0.159288
   1 O :   -0.246062
   2 C :   -0.122322
   3 C :   -0.162877
   4 H :    0.085908
   5 H :    0.108296
   6 H :    0.082774
   7 H :    0.094994

  Mayer bond orders larger than 0.100000
B(  0-C ,  1-O ) :   1.9481 B(  0-C ,  2-C ) :   0.9758 B(  0-C ,  4-H ) :   0.9098
B(  2-C ,  3-C ) :   1.9881 B(  2-C ,  5-H ) :   0.9489 B(  3-C ,  6-H ) :   0.9654
B(  3-C ,  7-H ) :   0.9610

-----------------------------------------------------------------------------
         ABSORPTION SPECTRUM VIA TRANSITION ELECTRIC DIPOLE MOMENTS
-----------------------------------------------------------------------------
State   Energy    Wavelength  fosc         T2        TX        TY        TZ
        (cm-1)      (nm)                 (au**2)    (au)      (au)      (au)
-----------------------------------------------------------------------------
   1   34648.2    288.6   0.000039367   0.00037   0.01509  -0.00569   0.01068

Dispersion correction           -0.025120221
FINAL SINGLE POINT ENERGY      -189.314652128861

DIPOLE MOMENT
-------------
                                X             Y             Z
Electronic contribution:     -3.28534      -0.97332       1.39516
Nuclear contribution   :      3.97168       1.28627      -2.12040
                        -----------------------------------------
Total Dipole Moment    :      0.68634       0.31295      -0.72524
                        -----------------------------------------
Magnitude (a.u.)       :      1.04641
Magnitude (Debye)      :      2.65977

Rotational constants in cm-1:     1.229212     0.158245     0.147214
Rotational constants in MHz : 36850.834680  4744.070131  4413.362214

                             ****ORCA TERMINATED NORMALLY****
TOTAL RUN TIME: 0 days 0 hours 0 minutes 9 seconds 285 msec
