                         Program Version 5.0.3 -  RELEASE  -
|  1> ! HF-3c
|  2> !TightSCF
|  3> %scf
|  4>  ConvForced true
|  5>  convergence tight
|  6>  MaxIter 500
|  7> end
|  8>
|  9> %tddft
| 10>  nroots 1
| 11> end
| 12>
| 13> # 	253
| 14> * xyz 0 1
| 15> 		C   -1.212078  -0.374724  -0.057613
| 16> 		O   -1.773080  -1.152516  -0.836441
| 17> 		C   -0.012372   0.412094  -0.282583
| 18> 		C    1.172888   0.079105   0.180344
| 19> 		H   -1.414501  -0.281352   1.034476
| 20> 		H   -0.111595   1.457015  -0.719615
| 21> 		H    1.301399  -0.879838   0.697707
| 22> 		H    2.154799   0.730948   0.040269
| 23> *
| 24>
| 25>                          ****END OF INPUT****

CARTESIAN COORDINATES (ANGSTROEM)
---------------------------------
  C     -1.212078   -0.374724   -0.057613
  O     -1.773080   -1.152516   -0.836441
  C     -0.012372    0.412094   -0.282583
  C      1.172888    0.079105    0.180344
  H     -1.414501   -0.281352    1.034476
  H     -0.111595    1.457015   -0.719615
  H      1.301399   -0.879838    0.697707
  H      2.154799    0.730948    0.040269

 Total Charge           Charge          ....    0
 Multiplicity           Mult            ....    1
 Number of Electrons    NEL             ....   30
 Basis Dimension        Dim             ....   24

ORBITAL ENERGIES
----------------

  NO   OCC          E(Eh)            E(eV)
   0   2.0000     -20.378653      -554.5313
   1   2.0000     -11.299959      -307.4875
   2   2.0000     -11.188313      -304.4495
   3   2.0000     -11.177609      -304.1582
   4   2.0000      -1.390049       -37.8252
   5   2.0000      -1.087233       -29.5851
   6   2.0000      -0.888186       -24.1688
   7   2.0000      -0.752141       -20.4668
   8   2.0000      -0.671089       -18.2613
   9   2.0000      -0.629990       -17.1429
  10   2.0000      -0.603203       -16.4140
  11   2.0000      -0.530850       -14.4452
  12   2.0000      -0.490511       -13.3475
  13   2.0000      -0.423137       -11.5141
  14   2.0000      -0.394377       -10.7315
  15   0.0000       0.170008         4.6262
  16   0.0000       0.227991         6.2040
  17   0.0000       0.537092        14.6150
  18   0.0000       0.595094        16.1933
  19   0.0000       0.623333        16.9618

MULLIKEN ATOMIC CHARGES
-----------------------
   0 C :    0.164445
   1 O :   -0.331132
   2 C :   -0.177064
   3 C :   -0.230601
   4 H :    0.141747
   5 H :    0.154285
   6 H :    0.132126
   7 H :    0.146194
Sum of atomic charges:   -0.0000000

LOEWDIN ATOMIC CHARGES
----------------------
   0 C :    0.154093
   1 O :   -0.243073
   2 C :   -0.133315
   3 C :   -0.150067
   4 H :    0.079058
   5 H :    0.105863
   6 H :    0.084314
   7 H :    0.103126

  Mayer bond orders larger than 0.100000
B(  0-C ,  1-O ) :   1.9465 B(  0-C ,  2-C ) :   1.0020 B(  0-C ,  4-H ) :   0.9154
B(  2-C ,  3-C ) :   1.9946 B(  2-C ,  5-H ) :   0.9409 B(  3-C ,  6-H ) :   0.9650
B(  3-C ,  7-H ) :   0.9592

-----------------------------------------------------------------------------
         ABSORPTION SPECTRUM VIA TRANSITION ELECTRIC DIPOLE MOMENTS
-----------------------------------------------------------------------------
State   Energy    Wavelength  fosc         T2        TX        TY        TZ
        (cm-1)      (nm)                 (au**2)    (au)      (au)      (au)
-----------------------------------------------------------------------------
   1   32766.1    305.2   0.000144464   0.00145   0.03404  -0.00627  -0.01592

Dispersion correction           -0.025240736
FINAL SINGLE POINT ENERGY      -189.318371058766

DIPOLE MOMENT
-------------
                                X             Y             Z
Electronic contribution:     -2.97135      -1.34594      -1.27838
Nuclear contribution   :      3.60172       2.02179       1.93237
                        -----------------------------------------
Total Dipole Moment    :      0.63037       0.67585       0.65399
                        -----------------------------------------
Magnitude (a.u.)       :      1.13218
Magnitude (Debye)      :      2.87778

Rotational constants in cm-1:     1.112480     0.159810     0.154362
Rotational constants in MHz : 33351.302716  4790.983523  4627.661494

                             ****ORCA TERMINATED NORMALLY****
TOTAL RUN TIME: 0 days 0 hours 0 minutes 11 seconds 195 msec
