                         Program Version 5.0.3 -  RELEASE  -
|  1> ! HF-3c
|  2> !TightSCF
|  3> %scf
|  4>  ConvForced true
|  5>  convergence tight
|  6>  MaxIter 500
|  7> end
|  8>
|  9> %tddft
| 10>  nroots 1
| 11> end
| 12>
| 13> # 	25618
| 14> * xyz 0 1
| 15> 		C   -0.563739  -0.454505  -0.026257
| 16> 		O   -0.580840  -1.637596   0.011180
| 17> 		C    0.647354   0.438709   0.041179
| 18> 		C    1.811195  -0.128389  -0.003318
| 19> 		H   -1.508800   0.234672  -0.114962
| 20> 		H    0.349710   1.580780  -0.015987
| 21> 		H    1.954203  -1.236736  -0.047546
| 22> 		H    2.808887   0.409867  -0.142900
| 23> *
| 24>
| 25>                          ****END OF INPUT****

CARTESIAN COORDINATES (ANGSTROEM)
---------------------------------
  C     -0.563739   -0.454505   -0.026257
  O     -0.580840   -1.637596    0.011180
  C      0.647354    0.438709    0.041179
  C      1.811195   -0.128389   -0.003318
  H     -1.508800    0.234672   -0.114962
  H      0.349710    1.580780   -0.015987
  H      1.954203   -1.236736   -0.047546
  H      2.808887    0.409867   -0.142900

 Total Charge           Charge          ....    0
 Multiplicity           Mult            ....    1
 Number of Electrons    NEL             ....   30
 Basis Dimension        Dim             ....   24

ORBITAL ENERGIES
----------------

  NO   OCC          E(Eh)            E(eV)
   0   2.0000     -20.372371      -554.3604
   1   2.0000     -11.296320      -307.3885
   2   2.0000     -11.187253      -304.4206
   3   2.0000     -11.182898      -304.3021
   4   2.0000      -1.418363       -38.5956
   5   2.0000      -1.077749       -29.3271
   6   2.0000      -0.875212       -23.8157
   7   2.0000      -0.724267       -19.7083
   8   2.0000      -0.686484       -18.6802
   9   2.0000      -0.620614       -16.8878
  10   2.0000      -0.585761       -15.9394
  11   2.0000      -0.550472       -14.9791
  12   2.0000      -0.512178       -13.9371
  13   2.0000      -0.403385       -10.9767
  14   2.0000      -0.395785       -10.7699
  15   0.0000       0.149702         4.0736
  16   0.0000       0.321570         8.7504
  17   0.0000       0.477117        12.9830
  18   0.0000       0.580762        15.8033
  19   0.0000       0.616694        16.7811

MULLIKEN ATOMIC CHARGES
-----------------------
   0 C :    0.194085
   1 O :   -0.367222
   2 C :   -0.177781
   3 C :   -0.217014
   4 H :    0.122224
   5 H :    0.145297
   6 H :    0.157836
   7 H :    0.142576
Sum of atomic charges:   -0.0000000

LOEWDIN ATOMIC CHARGES
----------------------
   0 C :    0.159880
   1 O :   -0.261542
   2 C :   -0.142549
   3 C :   -0.122917
   4 H :    0.064648
   5 H :    0.100567
   6 H :    0.105934
   7 H :    0.095979

  Mayer bond orders larger than 0.100000
B(  0-C ,  1-O ) :   1.9260 B(  0-C ,  2-C ) :   0.9947 B(  0-C ,  4-H ) :   0.9115
B(  2-C ,  3-C ) :   1.9677 B(  2-C ,  5-H ) :   0.9539 B(  3-C ,  6-H ) :   0.9536
B(  3-C ,  7-H ) :   0.9601

-----------------------------------------------------------------------------
         ABSORPTION SPECTRUM VIA TRANSITION ELECTRIC DIPOLE MOMENTS
-----------------------------------------------------------------------------
State   Energy    Wavelength  fosc         T2        TX        TY        TZ
        (cm-1)      (nm)                 (au**2)    (au)      (au)      (au)
-----------------------------------------------------------------------------
   1   34987.4    285.8   0.000056296   0.00053   0.02246   0.00054  -0.00500

Dispersion correction           -0.025601888
FINAL SINGLE POINT ENERGY      -189.318353809307

DIPOLE MOMENT
-------------
                                X             Y             Z
Electronic contribution:     -1.90332      -1.75988       0.20295
Nuclear contribution   :      2.22358       2.71329      -0.30098
                        -----------------------------------------
Total Dipole Moment    :      0.32026       0.95341      -0.09802
                        -----------------------------------------
Magnitude (a.u.)       :      1.01052
Magnitude (Debye)      :      2.56855

Rotational constants in cm-1:     0.750814     0.211839     0.165440
Rotational constants in MHz : 22508.849241  6350.784409  4959.779480

                             ****ORCA TERMINATED NORMALLY****
TOTAL RUN TIME: 0 days 0 hours 0 minutes 12 seconds 819 msec
