                         Program Version 5.0.3 -  RELEASE  -
|  1> ! HF-3c
|  2> !TightSCF
|  3> %scf
|  4>  ConvForced true
|  5>  convergence tight
|  6>  MaxIter 500
|  7> end
|  8>
|  9> %tddft
| 10>  nroots 1
| 11> end
| 12>
| 13> # 	1455
| 14> * xyz 0 1
| 15> 		C   -1.196665  -0.342098  -0.046426
| 16> 		O   -2.078144  -0.449850  -0.724248
| 17> 		C   -0.059319   0.467888  -0.317508
| 18> 		C    1.182545   0.040896   0.308058
| 19> 		H   -1.192900  -0.870276   0.831384
| 20> 		H   -0.011058   1.464062  -1.162614
| 21> 		H    1.248496  -0.904855   1.004886
| 22> 		H    2.102345   0.617007   0.080775
| 23> *
| 24>
| 25>                          ****END OF INPUT****

CARTESIAN COORDINATES (ANGSTROEM)
---------------------------------
  C     -1.196665   -0.342098   -0.046426
  O     -2.078144   -0.449850   -0.724248
  C     -0.059319    0.467888   -0.317508
  C      1.182545    0.040896    0.308058
  H     -1.192900   -0.870276    0.831384
  H     -0.011058    1.464062   -1.162614
  H      1.248496   -0.904855    1.004886
  H      2.102345    0.617007    0.080775

 Total Charge           Charge          ....    0
 Multiplicity           Mult            ....    1
 Number of Electrons    NEL             ....   30
 Basis Dimension        Dim             ....   24

ORBITAL ENERGIES
----------------

  NO   OCC          E(Eh)            E(eV)
   0   2.0000     -20.380302      -554.5762
   1   2.0000     -11.319645      -308.0232
   2   2.0000     -11.177276      -304.1491
   3   2.0000     -11.171387      -303.9889
   4   2.0000      -1.473589       -40.0984
   5   2.0000      -1.047562       -28.5056
   6   2.0000      -0.868084       -23.6218
   7   2.0000      -0.785780       -21.3822
   8   2.0000      -0.657165       -17.8824
   9   2.0000      -0.634176       -17.2568
  10   2.0000      -0.592205       -16.1147
  11   2.0000      -0.556230       -15.1358
  12   2.0000      -0.507701       -13.8152
  13   2.0000      -0.406669       -11.0660
  14   2.0000      -0.358960        -9.7678
  15   0.0000       0.134447         3.6585
  16   0.0000       0.312365         8.4999
  17   0.0000       0.437943        11.9170
  18   0.0000       0.558598        15.2002
  19   0.0000       0.647294        17.6138

MULLIKEN ATOMIC CHARGES
-----------------------
   0 C :    0.158551
   1 O :   -0.368038
   2 C :   -0.147497
   3 C :   -0.210806
   4 H :    0.131647
   5 H :    0.160229
   6 H :    0.140413
   7 H :    0.135501
Sum of atomic charges:   -0.0000000

LOEWDIN ATOMIC CHARGES
----------------------
   0 C :    0.127899
   1 O :   -0.243325
   2 C :   -0.131674
   3 C :   -0.121034
   4 H :    0.058742
   5 H :    0.123254
   6 H :    0.097866
   7 H :    0.088271

  Mayer bond orders larger than 0.100000
B(  0-C ,  1-O ) :   1.8851 B(  0-C ,  2-C ) :   1.0437 B(  0-C ,  4-H ) :   0.9181
B(  2-C ,  3-C ) :   1.9121 B(  2-C ,  5-H ) :   0.9467 B(  3-C ,  6-H ) :   0.9633
B(  3-C ,  7-H ) :   0.9692

-----------------------------------------------------------------------------
         ABSORPTION SPECTRUM VIA TRANSITION ELECTRIC DIPOLE MOMENTS
-----------------------------------------------------------------------------
State   Energy    Wavelength  fosc         T2        TX        TY        TZ
        (cm-1)      (nm)                 (au**2)    (au)      (au)      (au)
-----------------------------------------------------------------------------
   1   37278.8    268.2   0.000084314   0.00074  -0.02534  -0.00958  -0.00330

Dispersion correction           -0.025137590
FINAL SINGLE POINT ENERGY      -189.235282015655

DIPOLE MOMENT
-------------
                                X             Y             Z
Electronic contribution:     -3.09845      -0.43032      -0.99742
Nuclear contribution   :      4.13155       0.60876       1.46974
                        -----------------------------------------
Total Dipole Moment    :      1.03310       0.17844       0.47232
                        -----------------------------------------
Magnitude (a.u.)       :      1.14988
Magnitude (Debye)      :      2.92275

Rotational constants in cm-1:     1.315722     0.163462     0.148157
Rotational constants in MHz : 39444.346341  4900.454410  4441.639336

                             ****ORCA TERMINATED NORMALLY****
TOTAL RUN TIME: 0 days 0 hours 0 minutes 15 seconds 835 msec
