                         Program Version 5.0.3 -  RELEASE  -
|  1> ! HF-3c
|  2> !TightSCF
|  3> %scf
|  4>  ConvForced true
|  5>  convergence tight
|  6>  MaxIter 500
|  7> end
|  8>
|  9> %tddft
| 10>  nroots 1
| 11> end
| 12>
| 13> # 	12096
| 14> * xyz 0 1
| 15> 		C   -1.176181  -0.308150   0.005114
| 16> 		O   -2.052634  -0.380528   0.796773
| 17> 		C    0.054469   0.413210   0.316240
| 18> 		C    1.211968   0.045938  -0.241745
| 19> 		H   -1.124031  -0.877243  -0.941281
| 20> 		H   -0.114560   1.230474   1.122540
| 21> 		H    1.148538  -0.816591  -1.069494
| 22> 		H    2.026180   0.683891  -0.036994
| 23> *
| 24>
| 25>                          ****END OF INPUT****

CARTESIAN COORDINATES (ANGSTROEM)
---------------------------------
  C     -1.176181   -0.308150    0.005114
  O     -2.052634   -0.380528    0.796773
  C      0.054469    0.413210    0.316240
  C      1.211968    0.045938   -0.241745
  H     -1.124031   -0.877243   -0.941281
  H     -0.114560    1.230474    1.122540
  H      1.148538   -0.816591   -1.069494
  H      2.026180    0.683891   -0.036994

 Total Charge           Charge          ....    0
 Multiplicity           Mult            ....    1
 Number of Electrons    NEL             ....   30
 Basis Dimension        Dim             ....   24

ORBITAL ENERGIES
----------------

  NO   OCC          E(Eh)            E(eV)
   0   2.0000     -20.373415      -554.3888
   1   2.0000     -11.299911      -307.4862
   2   2.0000     -11.184234      -304.3385
   3   2.0000     -11.180658      -304.2412
   4   2.0000      -1.424004       -38.7491
   5   2.0000      -1.080734       -29.4083
   6   2.0000      -0.876284       -23.8449
   7   2.0000      -0.769810       -20.9476
   8   2.0000      -0.652170       -17.7465
   9   2.0000      -0.647167       -17.6103
  10   2.0000      -0.584608       -15.9080
  11   2.0000      -0.550405       -14.9773
  12   2.0000      -0.526739       -14.3333
  13   2.0000      -0.409736       -11.1495
  14   2.0000      -0.391871       -10.6634
  15   0.0000       0.141519         3.8509
  16   0.0000       0.305760         8.3202
  17   0.0000       0.502359        13.6699
  18   0.0000       0.590661        16.0727
  19   0.0000       0.624768        17.0008

MULLIKEN ATOMIC CHARGES
-----------------------
   0 C :    0.170154
   1 O :   -0.355052
   2 C :   -0.159058
   3 C :   -0.237482
   4 H :    0.130155
   5 H :    0.155014
   6 H :    0.148516
   7 H :    0.147753
Sum of atomic charges:    0.0000000

LOEWDIN ATOMIC CHARGES
----------------------
   0 C :    0.144929
   1 O :   -0.251050
   2 C :   -0.121878
   3 C :   -0.146978
   4 H :    0.067158
   5 H :    0.106163
   6 H :    0.107063
   7 H :    0.094593

  Mayer bond orders larger than 0.100000
B(  0-C ,  1-O ) :   1.9106 B(  0-C ,  2-C ) :   1.0226 B(  0-C ,  4-H ) :   0.9182
B(  2-C ,  3-C ) :   1.9537 B(  2-C ,  5-H ) :   0.9512 B(  3-C ,  6-H ) :   0.9567
B(  3-C ,  7-H ) :   0.9642

-----------------------------------------------------------------------------
         ABSORPTION SPECTRUM VIA TRANSITION ELECTRIC DIPOLE MOMENTS
-----------------------------------------------------------------------------
State   Energy    Wavelength  fosc         T2        TX        TY        TZ
        (cm-1)      (nm)                 (au**2)    (au)      (au)      (au)
-----------------------------------------------------------------------------
   1   34170.8    292.6   0.000170956   0.00165  -0.02685   0.01539   0.02625

Dispersion correction           -0.025916036
FINAL SINGLE POINT ENERGY      -189.315525254869

DIPOLE MOMENT
-------------
                                X             Y             Z
Electronic contribution:     -2.92823      -0.37596       1.08895
Nuclear contribution   :      3.78892       0.47357      -1.71446
                        -----------------------------------------
Total Dipole Moment    :      0.86069       0.09761      -0.62551
                        -----------------------------------------
Magnitude (a.u.)       :      1.06845
Magnitude (Debye)      :      2.71578

Rotational constants in cm-1:     1.391030     0.163914     0.149749
Rotational constants in MHz : 41702.029267  4914.032281  4489.353643

                             ****ORCA TERMINATED NORMALLY****
TOTAL RUN TIME: 0 days 0 hours 0 minutes 11 seconds 482 msec
