                         Program Version 5.0.3 -  RELEASE  -
|  1> ! B3LYP cc-pVDZ
|  2> !TightSCF
|  3> %scf
|  4>  ConvForced true
|  5>  convergence tight
|  6>  MaxIter 500
|  7> end
|  8>
|  9> %tddft
| 10>  nroots 1
| 11> end
| 12>
| 13> # 	31659
| 14> * xyz 0 1
| 15> 		C   -0.560036  -0.440628  -0.035001
| 16> 		O   -0.619038  -1.676960   0.005837
| 17> 		C    0.655432   0.456018   0.026295
| 18> 		C    1.882979  -0.106577   0.022627
| 19> 		H   -1.490746  -0.006330   0.074328
| 20> 		H    0.381540   1.575804  -0.059059
| 21> 		H    1.787860  -1.291938  -0.060684
| 22> 		H    2.572341   0.641993  -0.227829
| 23> *
| 24>
| 25>                          ****END OF INPUT****

CARTESIAN COORDINATES (ANGSTROEM)
---------------------------------
  C     -0.560036   -0.440628   -0.035001
  O     -0.619038   -1.676960    0.005837
  C      0.655432    0.456018    0.026295
  C      1.882979   -0.106577    0.022627
  H     -1.490746   -0.006330    0.074328
  H      0.381540    1.575804   -0.059059
  H      1.787860   -1.291938   -0.060684
  H      2.572341    0.641993   -0.227829

 Total Charge           Charge          ....    0
 Multiplicity           Mult            ....    1
 Number of Electrons    NEL             ....   30
 Basis Dimension        Dim             ....   76

ORBITAL ENERGIES
----------------

  NO   OCC          E(Eh)            E(eV)
   0   2.0000     -19.138586      -520.7874
   1   2.0000     -10.268577      -279.4222
   2   2.0000     -10.218928      -278.0712
   3   2.0000     -10.215366      -277.9742
   4   2.0000      -1.031279       -28.0625
   5   2.0000      -0.794995       -21.6329
   6   2.0000      -0.657662       -17.8959
   7   2.0000      -0.537893       -14.6368
   8   2.0000      -0.510495       -13.8913
   9   2.0000      -0.434660       -11.8277
  10   2.0000      -0.418495       -11.3878
  11   2.0000      -0.388156       -10.5622
  12   2.0000      -0.379814       -10.3353
  13   2.0000      -0.288510        -7.8508
  14   2.0000      -0.253526        -6.8988
  15   0.0000      -0.075658        -2.0588
  16   0.0000       0.048258         1.3132
  17   0.0000       0.063086         1.7167
  18   0.0000       0.078464         2.1351
  19   0.0000       0.124907         3.3989

MULLIKEN ATOMIC CHARGES
-----------------------
   0 C :    0.216708
   1 O :   -0.221761
   2 C :   -0.159689
   3 C :    0.070546
   4 H :   -0.030398
   5 H :    0.017067
   6 H :    0.079030
   7 H :    0.028498
Sum of atomic charges:   -0.0000000

LOEWDIN ATOMIC CHARGES
----------------------
   0 C :   -0.010494
   1 O :   -0.031380
   2 C :   -0.082335
   3 C :    0.004914
   4 H :   -0.014626
   5 H :    0.038664
   6 H :    0.068206
   7 H :    0.027052

  Mayer bond orders larger than 0.100000
B(  0-C ,  1-O ) :   2.1348 B(  0-C ,  2-C ) :   1.0596 B(  0-C ,  4-H ) :   0.9411
B(  2-C ,  3-C ) :   1.9331 B(  2-C ,  5-H ) :   0.9447 B(  3-C ,  6-H ) :   0.9085
B(  3-C ,  7-H ) :   0.9369

-----------------------------------------------------------------------------
         ABSORPTION SPECTRUM VIA TRANSITION ELECTRIC DIPOLE MOMENTS
-----------------------------------------------------------------------------
State   Energy    Wavelength  fosc         T2        TX        TY        TZ
        (cm-1)      (nm)                 (au**2)    (au)      (au)      (au)
-----------------------------------------------------------------------------
   1   26130.0    382.7   0.000185370   0.00234  -0.00452   0.01711  -0.04497

FINAL SINGLE POINT ENERGY      -191.656113234663

DIPOLE MOMENT
-------------
                                X             Y             Z
Electronic contribution:     -1.56355      -1.68837       0.14707
Nuclear contribution   :      1.88936       2.65215      -0.25527
                        -----------------------------------------
Total Dipole Moment    :      0.32581       0.96378      -0.10819
                        -----------------------------------------
Magnitude (a.u.)       :      1.02310
Magnitude (Debye)      :      2.60051

Rotational constants in cm-1:     0.764951     0.199745     0.158669
Rotational constants in MHz : 22932.649074  5988.194792  4756.771543

                             ****ORCA TERMINATED NORMALLY****
TOTAL RUN TIME: 0 days 0 hours 3 minutes 26 seconds 572 msec
