                         Program Version 5.0.3 -  RELEASE  -
|  1> ! B3LYP cc-pVDZ
|  2> !TightSCF
|  3> %scf
|  4>  ConvForced true
|  5>  convergence tight
|  6>  MaxIter 500
|  7> end
|  8>
|  9> %tddft
| 10>  nroots 1
| 11> end
| 12>
| 13> # 	31747
| 14> * xyz 0 1
| 15> 		C   -0.544278  -0.388524  -0.010853
| 16> 		O   -0.627288  -1.688443   0.008152
| 17> 		C    0.614990   0.373102   0.022175
| 18> 		C    1.860871  -0.088745  -0.028823
| 19> 		H   -1.453664   0.179834  -0.054072
| 20> 		H    0.657654   1.478261  -0.013737
| 21> 		H    2.101403  -1.020483   0.025669
| 22> 		H    2.635180   0.666403   0.128201
| 23> *
| 24>
| 25>                          ****END OF INPUT****

CARTESIAN COORDINATES (ANGSTROEM)
---------------------------------
  C     -0.544278   -0.388524   -0.010853
  O     -0.627288   -1.688443    0.008152
  C      0.614990    0.373102    0.022175
  C      1.860871   -0.088745   -0.028823
  H     -1.453664    0.179834   -0.054072
  H      0.657654    1.478261   -0.013737
  H      2.101403   -1.020483    0.025669
  H      2.635180    0.666403    0.128201

 Total Charge           Charge          ....    0
 Multiplicity           Mult            ....    1
 Number of Electrons    NEL             ....   30
 Basis Dimension        Dim             ....   76

ORBITAL ENERGIES
----------------

  NO   OCC          E(Eh)            E(eV)
   0   2.0000     -19.134700      -520.6817
   1   2.0000     -10.270291      -279.4688
   2   2.0000     -10.208868      -277.7974
   3   2.0000     -10.205391      -277.7028
   4   2.0000      -0.995509       -27.0892
   5   2.0000      -0.815988       -22.2042
   6   2.0000      -0.686471       -18.6798
   7   2.0000      -0.561733       -15.2855
   8   2.0000      -0.519191       -14.1279
   9   2.0000      -0.442973       -12.0539
  10   2.0000      -0.417481       -11.3602
  11   2.0000      -0.381683       -10.3861
  12   2.0000      -0.381009       -10.3678
  13   2.0000      -0.287844        -7.8326
  14   2.0000      -0.253787        -6.9059
  15   0.0000      -0.090230        -2.4553
  16   0.0000       0.054324         1.4782
  17   0.0000       0.064518         1.7556
  18   0.0000       0.103596         2.8190
  19   0.0000       0.129184         3.5153

MULLIKEN ATOMIC CHARGES
-----------------------
   0 C :    0.222621
   1 O :   -0.262745
   2 C :   -0.108957
   3 C :    0.164446
   4 H :   -0.013643
   5 H :   -0.005896
   6 H :   -0.025398
   7 H :    0.029571
Sum of atomic charges:   -0.0000000

LOEWDIN ATOMIC CHARGES
----------------------
   0 C :    0.005514
   1 O :   -0.086775
   2 C :   -0.079391
   3 C :    0.082777
   4 H :    0.001662
   5 H :    0.043278
   6 H :   -0.008473
   7 H :    0.041408

  Mayer bond orders larger than 0.100000
B(  0-C ,  1-O ) :   2.0854 B(  0-C ,  2-C ) :   1.1329 B(  0-C ,  4-H ) :   0.9309
B(  1-O ,  3-C ) :   0.1295 B(  2-C ,  3-C ) :   1.9423 B(  2-C ,  5-H ) :   0.9337
B(  3-C ,  6-H ) :   0.9492 B(  3-C ,  7-H ) :   0.9383

-----------------------------------------------------------------------------
         ABSORPTION SPECTRUM VIA TRANSITION ELECTRIC DIPOLE MOMENTS
-----------------------------------------------------------------------------
State   Energy    Wavelength  fosc         T2        TX        TY        TZ
        (cm-1)      (nm)                 (au**2)    (au)      (au)      (au)
-----------------------------------------------------------------------------
   1   22739.2    439.8   0.000078838   0.00114  -0.02112  -0.00348   0.02614

FINAL SINGLE POINT ENERGY      -191.669961136349

DIPOLE MOMENT
-------------
                                X             Y             Z
Electronic contribution:     -1.94254      -1.93318      -0.07066
Nuclear contribution   :      2.53611       3.00947       0.08039
                        -----------------------------------------
Total Dipole Moment    :      0.59358       1.07629       0.00973
                        -----------------------------------------
Magnitude (a.u.)       :      1.22915
Magnitude (Debye)      :      3.12426

Rotational constants in cm-1:     0.801517     0.201211     0.160954
Rotational constants in MHz : 24028.882006  6032.162120  4825.290576

                             ****ORCA TERMINATED NORMALLY****
TOTAL RUN TIME: 0 days 0 hours 3 minutes 5 seconds 271 msec
