                         Program Version 5.0.3 -  RELEASE  -
|  1> ! B3LYP cc-pVDZ
|  2> !TightSCF
|  3> %scf
|  4>  ConvForced true
|  5>  convergence tight
|  6>  MaxIter 500
|  7> end
|  8>
|  9> %tddft
| 10>  nroots 1
| 11> end
| 12>
| 13> # 	30851
| 14> * xyz 0 1
| 15> 		C   -0.599030  -0.438983  -0.081354
| 16> 		O   -0.550313  -1.602215   0.040180
| 17> 		C    0.606491   0.423001   0.017680
| 18> 		C    1.851681  -0.169311   0.015773
| 19> 		H   -1.531633   0.107144   0.068083
| 20> 		H    0.553208   1.559663   0.180800
| 21> 		H    1.972447  -1.228480  -0.271801
| 22> 		H    2.552562   0.462661  -0.034268
| 23> *
| 24>
| 25>                          ****END OF INPUT****

CARTESIAN COORDINATES (ANGSTROEM)
---------------------------------
  C     -0.599030   -0.438983   -0.081354
  O     -0.550313   -1.602215    0.040180
  C      0.606491    0.423001    0.017680
  C      1.851681   -0.169311    0.015773
  H     -1.531633    0.107144    0.068083
  H      0.553208    1.559663    0.180800
  H      1.972447   -1.228480   -0.271801
  H      2.552562    0.462661   -0.034268

 Total Charge           Charge          ....    0
 Multiplicity           Mult            ....    1
 Number of Electrons    NEL             ....   30
 Basis Dimension        Dim             ....   76

ORBITAL ENERGIES
----------------

  NO   OCC          E(Eh)            E(eV)
   0   2.0000     -19.138471      -520.7843
   1   2.0000     -10.269420      -279.4451
   2   2.0000     -10.208341      -277.7831
   3   2.0000     -10.199232      -277.5352
   4   2.0000      -1.070615       -29.1329
   5   2.0000      -0.787312       -21.4239
   6   2.0000      -0.660449       -17.9717
   7   2.0000      -0.543467       -14.7885
   8   2.0000      -0.511286       -13.9128
   9   2.0000      -0.449816       -12.2401
  10   2.0000      -0.420857       -11.4521
  11   2.0000      -0.411029       -11.1847
  12   2.0000      -0.388591       -10.5741
  13   2.0000      -0.281733        -7.6663
  14   2.0000      -0.253859        -6.9079
  15   0.0000      -0.069909        -1.9023
  16   0.0000       0.052733         1.4349
  17   0.0000       0.071707         1.9513
  18   0.0000       0.101814         2.7705
  19   0.0000       0.122697         3.3388

MULLIKEN ATOMIC CHARGES
-----------------------
   0 C :    0.200502
   1 O :   -0.156442
   2 C :   -0.193488
   3 C :    0.154529
   4 H :   -0.032691
   5 H :    0.013745
   6 H :    0.042304
   7 H :   -0.028460
Sum of atomic charges:    0.0000000

LOEWDIN ATOMIC CHARGES
----------------------
   0 C :   -0.066136
   1 O :    0.040344
   2 C :   -0.071207
   3 C :    0.048987
   4 H :   -0.012880
   5 H :    0.037975
   6 H :    0.040132
   7 H :   -0.017215

  Mayer bond orders larger than 0.100000
B(  0-C ,  1-O ) :   2.2286 B(  0-C ,  2-C ) :   1.0352 B(  0-C ,  4-H ) :   0.9201
B(  2-C ,  3-C ) :   1.9601 B(  2-C ,  5-H ) :   0.9406 B(  3-C ,  6-H ) :   0.9476
B(  3-C ,  7-H ) :   0.9333

-----------------------------------------------------------------------------
         ABSORPTION SPECTRUM VIA TRANSITION ELECTRIC DIPOLE MOMENTS
-----------------------------------------------------------------------------
State   Energy    Wavelength  fosc         T2        TX        TY        TZ
        (cm-1)      (nm)                 (au**2)    (au)      (au)      (au)
-----------------------------------------------------------------------------
   1   28047.2    356.5   0.000202613   0.00238   0.03906   0.00090   0.02919

FINAL SINGLE POINT ENERGY      -191.645419375472

DIPOLE MOMENT
-------------
                                X             Y             Z
Electronic contribution:     -1.84890      -1.81789      -0.03843
Nuclear contribution   :      2.17002       2.63271      -0.05372
                        -----------------------------------------
Total Dipole Moment    :      0.32112       0.81482      -0.09215
                        -----------------------------------------
Magnitude (a.u.)       :      0.88065
Magnitude (Debye)      :      2.23843

Rotational constants in cm-1:     0.742013     0.217357     0.168871
Rotational constants in MHz : 22244.990318  6516.207855  5062.616492

                             ****ORCA TERMINATED NORMALLY****
TOTAL RUN TIME: 0 days 0 hours 3 minutes 22 seconds 316 msec
