                         Program Version 5.0.3 -  RELEASE  -
|  1> ! HF-3c
|  2> !TightSCF
|  3> %scf
|  4>  ConvForced true
|  5>  convergence tight
|  6>  MaxIter 500
|  7> end
|  8>
|  9> %tddft
| 10>  nroots 1
| 11> end
| 12>
| 13> # 	15994
| 14> * xyz 0 1
| 15> 		C   -1.215769  -0.247278  -0.007433
| 16> 		O   -1.878682  -0.613895  -1.011917
| 17> 		C    0.055929   0.460581  -0.237444
| 18> 		C    1.182983   0.042744   0.200709
| 19> 		H   -1.387325  -0.697466   1.015325
| 20> 		H    0.137379   1.281500  -1.045463
| 21> 		H    0.975432  -0.923826   0.824194
| 22> 		H    2.162447   0.668602   0.276745
| 23> *
| 24>
| 25>                          ****END OF INPUT****

CARTESIAN COORDINATES (ANGSTROEM)
---------------------------------
  C     -1.215769   -0.247278   -0.007433
  O     -1.878682   -0.613895   -1.011917
  C      0.055929    0.460581   -0.237444
  C      1.182983    0.042744    0.200709
  H     -1.387325   -0.697466    1.015325
  H      0.137379    1.281500   -1.045463
  H      0.975432   -0.923826    0.824194
  H      2.162447    0.668602    0.276745

 Total Charge           Charge          ....    0
 Multiplicity           Mult            ....    1
 Number of Electrons    NEL             ....   30
 Basis Dimension        Dim             ....   24

ORBITAL ENERGIES
----------------

  NO   OCC          E(Eh)            E(eV)
   0   2.0000     -20.361684      -554.0696
   1   2.0000     -11.289288      -307.1971
   2   2.0000     -11.184081      -304.3343
   3   2.0000     -11.177016      -304.1421
   4   2.0000      -1.373333       -37.3703
   5   2.0000      -1.092384       -29.7253
   6   2.0000      -0.867910       -23.6170
   7   2.0000      -0.753942       -20.5158
   8   2.0000      -0.656810       -17.8727
   9   2.0000      -0.631265       -17.1776
  10   2.0000      -0.579472       -15.7682
  11   2.0000      -0.509629       -13.8677
  12   2.0000      -0.496896       -13.5212
  13   2.0000      -0.424806       -11.5596
  14   2.0000      -0.390507       -10.6262
  15   0.0000       0.139402         3.7933
  16   0.0000       0.278806         7.5867
  17   0.0000       0.541180        14.7263
  18   0.0000       0.548855        14.9351
  19   0.0000       0.558440        15.1959

MULLIKEN ATOMIC CHARGES
-----------------------
   0 C :    0.150103
   1 O :   -0.331431
   2 C :   -0.173428
   3 C :   -0.230073
   4 H :    0.145076
   5 H :    0.153936
   6 H :    0.129301
   7 H :    0.156517
Sum of atomic charges:   -0.0000000

LOEWDIN ATOMIC CHARGES
----------------------
   0 C :    0.141888
   1 O :   -0.249999
   2 C :   -0.130681
   3 C :   -0.150661
   4 H :    0.084904
   5 H :    0.105259
   6 H :    0.088320
   7 H :    0.110970

  Mayer bond orders larger than 0.100000
B(  0-C ,  1-O ) :   1.9192 B(  0-C ,  2-C ) :   1.0161 B(  0-C ,  4-H ) :   0.9243
B(  2-C ,  3-C ) :   1.9804 B(  2-C ,  5-H ) :   0.9431 B(  3-C ,  6-H ) :   0.9581
B(  3-C ,  7-H ) :   0.9566

-----------------------------------------------------------------------------
         ABSORPTION SPECTRUM VIA TRANSITION ELECTRIC DIPOLE MOMENTS
-----------------------------------------------------------------------------
State   Energy    Wavelength  fosc         T2        TX        TY        TZ
        (cm-1)      (nm)                 (au**2)    (au)      (au)      (au)
-----------------------------------------------------------------------------
   1   29922.8    334.2   0.000324099   0.00357  -0.04021   0.01898  -0.03986

Dispersion correction           -0.025674162
FINAL SINGLE POINT ENERGY      -189.311941217670

DIPOLE MOMENT
-------------
                                X             Y             Z
Electronic contribution:     -2.90080      -0.46745      -1.28037
Nuclear contribution   :      3.61670       0.73048       2.04069
                        -----------------------------------------
Total Dipole Moment    :      0.71590       0.26303       0.76033
                        -----------------------------------------
Magnitude (a.u.)       :      1.07694
Magnitude (Debye)      :      2.73736

Rotational constants in cm-1:     1.173691     0.163342     0.155528
Rotational constants in MHz : 35186.363830  4896.878360  4662.601519

                             ****ORCA TERMINATED NORMALLY****
TOTAL RUN TIME: 0 days 0 hours 0 minutes 11 seconds 891 msec
