                         Program Version 5.0.3 -  RELEASE  -
|  1> ! HF-3c
|  2> !TightSCF
|  3> %scf
|  4>  ConvForced true
|  5>  convergence tight
|  6>  MaxIter 500
|  7> end
|  8>
|  9> %tddft
| 10>  nroots 1
| 11> end
| 12>
| 13> # 	25884
| 14> * xyz 0 1
| 15> 		C   -0.581027  -0.420806  -0.014356
| 16> 		O   -0.573687  -1.615391   0.016907
| 17> 		C    0.617764   0.374918  -0.020691
| 18> 		C    1.840076  -0.112050   0.007068
| 19> 		H   -1.590433   0.072948   0.018956
| 20> 		H    0.646808   1.464180   0.100953
| 21> 		H    1.951692  -1.142047  -0.220333
| 22> 		H    2.688699   0.370051   0.182795
| 23> *
| 24>
| 25>                          ****END OF INPUT****

CARTESIAN COORDINATES (ANGSTROEM)
---------------------------------
  C     -0.581027   -0.420806   -0.014356
  O     -0.573687   -1.615391    0.016907
  C      0.617764    0.374918   -0.020691
  C      1.840076   -0.112050    0.007068
  H     -1.590433    0.072948    0.018956
  H      0.646808    1.464180    0.100953
  H      1.951692   -1.142047   -0.220333
  H      2.688699    0.370051    0.182795

 Total Charge           Charge          ....    0
 Multiplicity           Mult            ....    1
 Number of Electrons    NEL             ....   30
 Basis Dimension        Dim             ....   24

ORBITAL ENERGIES
----------------

  NO   OCC          E(Eh)            E(eV)
   0   2.0000     -20.370204      -554.3014
   1   2.0000     -11.305706      -307.6439
   2   2.0000     -11.196223      -304.6647
   3   2.0000     -11.194924      -304.6294
   4   2.0000      -1.418148       -38.5898
   5   2.0000      -1.096223       -29.8297
   6   2.0000      -0.905421       -24.6378
   7   2.0000      -0.761370       -20.7179
   8   2.0000      -0.722630       -19.6638
   9   2.0000      -0.632020       -17.1981
  10   2.0000      -0.610261       -16.6060
  11   2.0000      -0.555612       -15.1190
  12   2.0000      -0.525815       -14.3081
  13   2.0000      -0.421291       -11.4639
  14   2.0000      -0.400990       -10.9115
  15   0.0000       0.125819         3.4237
  16   0.0000       0.317770         8.6470
  17   0.0000       0.555946        15.1281
  18   0.0000       0.620890        16.8953
  19   0.0000       0.707493        19.2519

MULLIKEN ATOMIC CHARGES
-----------------------
   0 C :    0.163974
   1 O :   -0.350527
   2 C :   -0.176423
   3 C :   -0.230084
   4 H :    0.141578
   5 H :    0.149118
   6 H :    0.156046
   7 H :    0.146320
Sum of atomic charges:    0.0000000

LOEWDIN ATOMIC CHARGES
----------------------
   0 C :    0.142562
   1 O :   -0.252616
   2 C :   -0.131161
   3 C :   -0.121006
   4 H :    0.078051
   5 H :    0.096883
   6 H :    0.099577
   7 H :    0.087710

  Mayer bond orders larger than 0.100000
B(  0-C ,  1-O ) :   1.8986 B(  0-C ,  2-C ) :   1.0403 B(  0-C ,  4-H ) :   0.9234
B(  2-C ,  3-C ) :   1.9393 B(  2-C ,  5-H ) :   0.9559 B(  3-C ,  6-H ) :   0.9599
B(  3-C ,  7-H ) :   0.9683

-----------------------------------------------------------------------------
         ABSORPTION SPECTRUM VIA TRANSITION ELECTRIC DIPOLE MOMENTS
-----------------------------------------------------------------------------
State   Energy    Wavelength  fosc         T2        TX        TY        TZ
        (cm-1)      (nm)                 (au**2)    (au)      (au)      (au)
-----------------------------------------------------------------------------
   1   32651.5    306.3   0.000047917   0.00048  -0.01887  -0.00039  -0.01126

Dispersion correction           -0.026107140
FINAL SINGLE POINT ENERGY      -189.326342871604

DIPOLE MOMENT
-------------
                                X             Y             Z
Electronic contribution:     -2.03997      -1.60255      -0.07385
Nuclear contribution   :      2.31127       2.50635       0.07635
                        -----------------------------------------
Total Dipole Moment    :      0.27130       0.90379       0.00250
                        -----------------------------------------
Magnitude (a.u.)       :      0.94364
Magnitude (Debye)      :      2.39854

Rotational constants in cm-1:     0.810482     0.212762     0.168881
Rotational constants in MHz : 24297.648715  6378.441292  5062.911045

                             ****ORCA TERMINATED NORMALLY****
TOTAL RUN TIME: 0 days 0 hours 0 minutes 13 seconds 739 msec
