                         Program Version 5.0.3 -  RELEASE  -
|  1> ! B3LYP cc-pVDZ
|  2> !TightSCF
|  3> %scf
|  4>  ConvForced true
|  5>  convergence tight
|  6>  MaxIter 500
|  7> end
|  8>
|  9> %tddft
| 10>  nroots 1
| 11> end
| 12>
| 13> # 	24965
| 14> * xyz 0 1
| 15> 		C   -0.614502  -0.432603   0.037123
| 16> 		O   -0.552173  -1.623467  -0.006929
| 17> 		C    0.628828   0.430862  -0.056893
| 18> 		C    1.835224  -0.151300   0.000734
| 19> 		H   -1.568320   0.012751   0.046586
| 20> 		H    0.377586   1.655200   0.080997
| 21> 		H    1.976576  -1.155685  -0.037231
| 22> 		H    2.883414   0.344099   0.263602
| 23> *
| 24>
| 25>                          ****END OF INPUT****

CARTESIAN COORDINATES (ANGSTROEM)
---------------------------------
  C     -0.614502   -0.432603    0.037123
  O     -0.552173   -1.623467   -0.006929
  C      0.628828    0.430862   -0.056893
  C      1.835224   -0.151300    0.000734
  H     -1.568320    0.012751    0.046586
  H      0.377586    1.655200    0.080997
  H      1.976576   -1.155685   -0.037231
  H      2.883414    0.344099    0.263602

 Total Charge           Charge          ....    0
 Multiplicity           Mult            ....    1
 Number of Electrons    NEL             ....   30
 Basis Dimension        Dim             ....   76

ORBITAL ENERGIES
----------------

  NO   OCC          E(Eh)            E(eV)
   0   2.0000     -19.136267      -520.7243
   1   2.0000     -10.271457      -279.5005
   2   2.0000     -10.220894      -278.1247
   3   2.0000     -10.214966      -277.9634
   4   2.0000      -1.056612       -28.7519
   5   2.0000      -0.784391       -21.3444
   6   2.0000      -0.652352       -17.7514
   7   2.0000      -0.552889       -15.0449
   8   2.0000      -0.492850       -13.4111
   9   2.0000      -0.451139       -12.2761
  10   2.0000      -0.421898       -11.4804
  11   2.0000      -0.402581       -10.9548
  12   2.0000      -0.366220        -9.9654
  13   2.0000      -0.285308        -7.7636
  14   2.0000      -0.255161        -6.9433
  15   0.0000      -0.067139        -1.8269
  16   0.0000       0.047560         1.2942
  17   0.0000       0.053681         1.4607
  18   0.0000       0.089756         2.4424
  19   0.0000       0.116432         3.1683

MULLIKEN ATOMIC CHARGES
-----------------------
   0 C :    0.217640
   1 O :   -0.179695
   2 C :   -0.181711
   3 C :    0.079030
   4 H :   -0.030280
   5 H :    0.029285
   6 H :    0.013475
   7 H :    0.052257
Sum of atomic charges:    0.0000000

LOEWDIN ATOMIC CHARGES
----------------------
   0 C :   -0.035290
   1 O :    0.012593
   2 C :   -0.092419
   3 C :    0.021874
   4 H :   -0.012547
   5 H :    0.046638
   6 H :    0.008475
   7 H :    0.050676

  Mayer bond orders larger than 0.100000
B(  0-C ,  1-O ) :   2.2066 B(  0-C ,  2-C ) :   1.0223 B(  0-C ,  4-H ) :   0.9305
B(  2-C ,  3-C ) :   1.9509 B(  2-C ,  5-H ) :   0.9284 B(  3-C ,  6-H ) :   0.9358
B(  3-C ,  7-H ) :   0.9544

-----------------------------------------------------------------------------
         ABSORPTION SPECTRUM VIA TRANSITION ELECTRIC DIPOLE MOMENTS
-----------------------------------------------------------------------------
State   Energy    Wavelength  fosc         T2        TX        TY        TZ
        (cm-1)      (nm)                 (au**2)    (au)      (au)      (au)
-----------------------------------------------------------------------------
   1   28427.9    351.8   0.000322600   0.00374   0.05393   0.02151   0.01910

FINAL SINGLE POINT ENERGY      -191.647336151927

DIPOLE MOMENT
-------------
                                X             Y             Z
Electronic contribution:     -2.00600      -1.82885      -0.23142
Nuclear contribution   :      2.28651       2.59037       0.33081
                        -----------------------------------------
Total Dipole Moment    :      0.28051       0.76151       0.09939
                        -----------------------------------------
Magnitude (a.u.)       :      0.81760
Magnitude (Debye)      :      2.07817

Rotational constants in cm-1:     0.725960     0.211777     0.164386
Rotational constants in MHz : 21763.732857  6348.928065  4928.167917

                             ****ORCA TERMINATED NORMALLY****
TOTAL RUN TIME: 0 days 0 hours 3 minutes 21 seconds 497 msec
