                         Program Version 5.0.3 -  RELEASE  -
|  1> ! HF-3c
|  2> !TightSCF
|  3> %scf
|  4>  ConvForced true
|  5>  convergence tight
|  6>  MaxIter 500
|  7> end
|  8>
|  9> %tddft
| 10>  nroots 1
| 11> end
| 12>
| 13> # 	24889
| 14> * xyz 0 1
| 15> 		C   -0.595246  -0.429016   0.018121
| 16> 		O   -0.538394  -1.619750  -0.010192
| 17> 		C    0.586811   0.414918  -0.007252
| 18> 		C    1.826117  -0.146412   0.005587
| 19> 		H   -1.582559   0.254838   0.034741
| 20> 		H    0.587123   1.564328  -0.095525
| 21> 		H    1.982636  -1.229801  -0.004357
| 22> 		H    2.848279   0.314467   0.027513
| 23> *
| 24>
| 25>                          ****END OF INPUT****

CARTESIAN COORDINATES (ANGSTROEM)
---------------------------------
  C     -0.595246   -0.429016    0.018121
  O     -0.538394   -1.619750   -0.010192
  C      0.586811    0.414918   -0.007252
  C      1.826117   -0.146412    0.005587
  H     -1.582559    0.254838    0.034741
  H      0.587123    1.564328   -0.095525
  H      1.982636   -1.229801   -0.004357
  H      2.848279    0.314467    0.027513

 Total Charge           Charge          ....    0
 Multiplicity           Mult            ....    1
 Number of Electrons    NEL             ....   30
 Basis Dimension        Dim             ....   24

ORBITAL ENERGIES
----------------

  NO   OCC          E(Eh)            E(eV)
   0   2.0000     -20.366208      -554.1927
   1   2.0000     -11.300503      -307.5023
   2   2.0000     -11.184700      -304.3512
   3   2.0000     -11.177753      -304.1621
   4   2.0000      -1.412787       -38.4439
   5   2.0000      -1.062737       -28.9186
   6   2.0000      -0.881903       -23.9978
   7   2.0000      -0.732894       -19.9431
   8   2.0000      -0.690229       -18.7821
   9   2.0000      -0.613535       -16.6951
  10   2.0000      -0.577739       -15.7211
  11   2.0000      -0.549416       -14.9504
  12   2.0000      -0.509652       -13.8683
  13   2.0000      -0.405134       -11.0242
  14   2.0000      -0.381461       -10.3801
  15   0.0000       0.131515         3.5787
  16   0.0000       0.318754         8.6737
  17   0.0000       0.506566        13.7844
  18   0.0000       0.576348        15.6832
  19   0.0000       0.612786        16.6748

MULLIKEN ATOMIC CHARGES
-----------------------
   0 C :    0.182355
   1 O :   -0.363693
   2 C :   -0.184726
   3 C :   -0.199599
   4 H :    0.132153
   5 H :    0.143576
   6 H :    0.147577
   7 H :    0.142357
Sum of atomic charges:   -0.0000000

LOEWDIN ATOMIC CHARGES
----------------------
   0 C :    0.153188
   1 O :   -0.263729
   2 C :   -0.151045
   3 C :   -0.100650
   4 H :    0.075968
   5 H :    0.097366
   6 H :    0.094747
   7 H :    0.094155

  Mayer bond orders larger than 0.100000
B(  0-C ,  1-O ) :   1.9034 B(  0-C ,  2-C ) :   1.0372 B(  0-C ,  4-H ) :   0.9075
B(  2-C ,  3-C ) :   1.9260 B(  2-C ,  5-H ) :   0.9579 B(  3-C ,  6-H ) :   0.9624
B(  3-C ,  7-H ) :   0.9665

-----------------------------------------------------------------------------
         ABSORPTION SPECTRUM VIA TRANSITION ELECTRIC DIPOLE MOMENTS
-----------------------------------------------------------------------------
State   Energy    Wavelength  fosc         T2        TX        TY        TZ
        (cm-1)      (nm)                 (au**2)    (au)      (au)      (au)
-----------------------------------------------------------------------------
   1   33891.8    295.1   0.000006430   0.00006  -0.00298  -0.00174   0.00711

Dispersion correction           -0.025493790
FINAL SINGLE POINT ENERGY      -189.320258210191

DIPOLE MOMENT
-------------
                                X             Y             Z
Electronic contribution:     -2.08897      -1.68291       0.03787
Nuclear contribution   :      2.44231       2.63377      -0.03523
                        -----------------------------------------
Total Dipole Moment    :      0.35334       0.95086       0.00264
                        -----------------------------------------
Magnitude (a.u.)       :      1.01440
Magnitude (Debye)      :      2.57839

Rotational constants in cm-1:     0.723021     0.217973     0.167541
Rotational constants in MHz : 21675.619379  6534.654831  5022.738352

                             ****ORCA TERMINATED NORMALLY****
TOTAL RUN TIME: 0 days 0 hours 0 minutes 11 seconds 836 msec
