                         Program Version 5.0.3 -  RELEASE  -
|  1> ! B3LYP cc-pVDZ
|  2> !TightSCF
|  3> %scf
|  4>  ConvForced true
|  5>  convergence tight
|  6>  MaxIter 500
|  7> end
|  8>
|  9> %tddft
| 10>  nroots 1
| 11> end
| 12>
| 13> # 	30889
| 14> * xyz 0 1
| 15> 		C   -0.581065  -0.399786  -0.014530
| 16> 		O   -0.541791  -1.635247   0.033670
| 17> 		C    0.639004   0.424854   0.013021
| 18> 		C    1.801310  -0.158925  -0.032931
| 19> 		H   -1.624319   0.245962  -0.388670
| 20> 		H    0.324813   1.466437   0.304335
| 21> 		H    1.914459  -1.293452  -0.169703
| 22> 		H    2.768755   0.420121   0.160388
| 23> *
| 24>
| 25>                          ****END OF INPUT****

CARTESIAN COORDINATES (ANGSTROEM)
---------------------------------
  C     -0.581065   -0.399786   -0.014530
  O     -0.541791   -1.635247    0.033670
  C      0.639004    0.424854    0.013021
  C      1.801310   -0.158925   -0.032931
  H     -1.624319    0.245962   -0.388670
  H      0.324813    1.466437    0.304335
  H      1.914459   -1.293452   -0.169703
  H      2.768755    0.420121    0.160388

 Total Charge           Charge          ....    0
 Multiplicity           Mult            ....    1
 Number of Electrons    NEL             ....   30
 Basis Dimension        Dim             ....   76

ORBITAL ENERGIES
----------------

  NO   OCC          E(Eh)            E(eV)
   0   2.0000     -19.144925      -520.9599
   1   2.0000     -10.288145      -279.9546
   2   2.0000     -10.221767      -278.1484
   3   2.0000     -10.208297      -277.7819
   4   2.0000      -1.036333       -28.2001
   5   2.0000      -0.802503       -21.8372
   6   2.0000      -0.651744       -17.7349
   7   2.0000      -0.522388       -14.2149
   8   2.0000      -0.494434       -13.4542
   9   2.0000      -0.454650       -12.3716
  10   2.0000      -0.422529       -11.4976
  11   2.0000      -0.387209       -10.5365
  12   2.0000      -0.369756       -10.0616
  13   2.0000      -0.294910        -8.0249
  14   2.0000      -0.257216        -6.9992
  15   0.0000      -0.073496        -1.9999
  16   0.0000       0.038256         1.0410
  17   0.0000       0.063538         1.7290
  18   0.0000       0.079555         2.1648
  19   0.0000       0.100817         2.7434

MULLIKEN ATOMIC CHARGES
-----------------------
   0 C :    0.118858
   1 O :   -0.200163
   2 C :   -0.078548
   3 C :    0.044123
   4 H :   -0.003297
   5 H :    0.008253
   6 H :    0.064244
   7 H :    0.046530
Sum of atomic charges:   -0.0000000

LOEWDIN ATOMIC CHARGES
----------------------
   0 C :   -0.028548
   1 O :   -0.024095
   2 C :   -0.097804
   3 C :    0.014464
   4 H :    0.002332
   5 H :    0.038796
   6 H :    0.051498
   7 H :    0.043357

  Mayer bond orders larger than 0.100000
B(  0-C ,  1-O ) :   2.1625 B(  0-C ,  2-C ) :   1.0536 B(  0-C ,  4-H ) :   0.8782
B(  2-C ,  3-C ) :   1.9621 B(  2-C ,  5-H ) :   0.9430 B(  3-C ,  6-H ) :   0.9212
B(  3-C ,  7-H ) :   0.9384

-----------------------------------------------------------------------------
         ABSORPTION SPECTRUM VIA TRANSITION ELECTRIC DIPOLE MOMENTS
-----------------------------------------------------------------------------
State   Energy    Wavelength  fosc         T2        TX        TY        TZ
        (cm-1)      (nm)                 (au**2)    (au)      (au)      (au)
-----------------------------------------------------------------------------
   1   27241.3    367.1   0.000896517   0.01083  -0.07180   0.01967  -0.07275

FINAL SINGLE POINT ENERGY      -191.659413493163

DIPOLE MOMENT
-------------
                                X             Y             Z
Electronic contribution:     -1.56675      -1.74538       0.11739
Nuclear contribution   :      2.01912       2.57232      -0.08942
                        -----------------------------------------
Total Dipole Moment    :      0.45238       0.82694       0.02797
                        -----------------------------------------
Magnitude (a.u.)       :      0.94300
Magnitude (Debye)      :      2.39692

Rotational constants in cm-1:     0.706183     0.219635     0.168657
Rotational constants in MHz : 21170.822253  6584.502002  5056.224517

                             ****ORCA TERMINATED NORMALLY****
TOTAL RUN TIME: 0 days 0 hours 3 minutes 17 seconds 54 msec
