                         Program Version 5.0.3 -  RELEASE  -
|  1> ! B3LYP cc-pVDZ
|  2> !TightSCF
|  3> %scf
|  4>  ConvForced true
|  5>  convergence tight
|  6>  MaxIter 500
|  7> end
|  8>
|  9> %tddft
| 10>  nroots 1
| 11> end
| 12>
| 13> # 	32343
| 14> * xyz 0 1
| 15> 		C   -0.593094  -0.469084  -0.010284
| 16> 		O   -0.580846  -1.654554  -0.001106
| 17> 		C    0.624832   0.449322  -0.012478
| 18> 		C    1.823405  -0.108520  -0.007492
| 19> 		H   -1.419174   0.315551   0.147838
| 20> 		H    0.477731   1.570868   0.056850
| 21> 		H    2.027811  -1.147412   0.140902
| 22> 		H    2.983536   0.333446   0.032457
| 23> *
| 24>
| 25>                          ****END OF INPUT****

CARTESIAN COORDINATES (ANGSTROEM)
---------------------------------
  C     -0.593094   -0.469084   -0.010284
  O     -0.580846   -1.654554   -0.001106
  C      0.624832    0.449322   -0.012478
  C      1.823405   -0.108520   -0.007492
  H     -1.419174    0.315551    0.147838
  H      0.477731    1.570868    0.056850
  H      2.027811   -1.147412    0.140902
  H      2.983536    0.333446    0.032457

 Total Charge           Charge          ....    0
 Multiplicity           Mult            ....    1
 Number of Electrons    NEL             ....   30
 Basis Dimension        Dim             ....   76

ORBITAL ENERGIES
----------------

  NO   OCC          E(Eh)            E(eV)
   0   2.0000     -19.151637      -521.1425
   1   2.0000     -10.285622      -279.8860
   2   2.0000     -10.219601      -278.0895
   3   2.0000     -10.207782      -277.7679
   4   2.0000      -1.067677       -29.0530
   5   2.0000      -0.790720       -21.5166
   6   2.0000      -0.650973       -17.7139
   7   2.0000      -0.544014       -14.8034
   8   2.0000      -0.490739       -13.3537
   9   2.0000      -0.459037       -12.4910
  10   2.0000      -0.422686       -11.5019
  11   2.0000      -0.410165       -11.1612
  12   2.0000      -0.359418        -9.7803
  13   2.0000      -0.291194        -7.9238
  14   2.0000      -0.258538        -7.0352
  15   0.0000      -0.066388        -1.8065
  16   0.0000       0.051674         1.4061
  17   0.0000       0.057146         1.5550
  18   0.0000       0.079042         2.1508
  19   0.0000       0.116372         3.1666

MULLIKEN ATOMIC CHARGES
-----------------------
   0 C :    0.191643
   1 O :   -0.156325
   2 C :   -0.133996
   3 C :    0.023002
   4 H :   -0.016616
   5 H :    0.015596
   6 H :    0.031627
   7 H :    0.045068
Sum of atomic charges:   -0.0000000

LOEWDIN ATOMIC CHARGES
----------------------
   0 C :   -0.045163
   1 O :    0.033048
   2 C :   -0.100289
   3 C :    0.007912
   4 H :   -0.007116
   5 H :    0.039602
   6 H :    0.023574
   7 H :    0.048433

  Mayer bond orders larger than 0.100000
B(  0-C ,  1-O ) :   2.2435 B(  0-C ,  2-C ) :   1.0096 B(  0-C ,  4-H ) :   0.8998
B(  2-C ,  3-C ) :   1.9401 B(  2-C ,  5-H ) :   0.9434 B(  3-C ,  6-H ) :   0.9439
B(  3-C ,  7-H ) :   0.9542

-----------------------------------------------------------------------------
         ABSORPTION SPECTRUM VIA TRANSITION ELECTRIC DIPOLE MOMENTS
-----------------------------------------------------------------------------
State   Energy    Wavelength  fosc         T2        TX        TY        TZ
        (cm-1)      (nm)                 (au**2)    (au)      (au)      (au)
-----------------------------------------------------------------------------
   1   29530.4    338.6   0.000131432   0.00147  -0.00345  -0.02573  -0.02813

FINAL SINGLE POINT ENERGY      -191.643202702084

DIPOLE MOMENT
-------------
                                X             Y             Z
Electronic contribution:     -2.28166      -2.02426      -0.29179
Nuclear contribution   :      2.66114       2.79144       0.35466
                        -----------------------------------------
Total Dipole Moment    :      0.37948       0.76717       0.06287
                        -----------------------------------------
Magnitude (a.u.)       :      0.85820
Magnitude (Debye)      :      2.18138

Rotational constants in cm-1:     0.739397     0.206052     0.161300
Rotational constants in MHz : 22166.569918  6177.297823  4835.649428

                             ****ORCA TERMINATED NORMALLY****
TOTAL RUN TIME: 0 days 0 hours 3 minutes 22 seconds 286 msec
