                         Program Version 5.0.3 -  RELEASE  -
|  1> ! HF-3c
|  2> !TightSCF
|  3> %scf
|  4>  ConvForced true
|  5>  convergence tight
|  6>  MaxIter 500
|  7> end
|  8>
|  9> %tddft
| 10>  nroots 1
| 11> end
| 12>
| 13> # 	32682
| 14> * xyz 0 1
| 15> 		C   -0.584877  -0.450069   0.030044
| 16> 		O   -0.626890  -1.651883  -0.027766
| 17> 		C    0.603178   0.396178  -0.021149
| 18> 		C    1.905602  -0.071614  -0.010320
| 19> 		H   -1.319768   0.224146   0.266154
| 20> 		H    0.441447   1.331598  -0.191994
| 21> 		H    2.085738  -1.134926   0.248562
| 22> 		H    2.754533   0.548443   0.125428
| 23> *
| 24>
| 25>                          ****END OF INPUT****

CARTESIAN COORDINATES (ANGSTROEM)
---------------------------------
  C     -0.584877   -0.450069    0.030044
  O     -0.626890   -1.651883   -0.027766
  C      0.603178    0.396178   -0.021149
  C      1.905602   -0.071614   -0.010320
  H     -1.319768    0.224146    0.266154
  H      0.441447    1.331598   -0.191994
  H      2.085738   -1.134926    0.248562
  H      2.754533    0.548443    0.125428

 Total Charge           Charge          ....    0
 Multiplicity           Mult            ....    1
 Number of Electrons    NEL             ....   30
 Basis Dimension        Dim             ....   24

ORBITAL ENERGIES
----------------

  NO   OCC          E(Eh)            E(eV)
   0   2.0000     -20.377652      -554.5041
   1   2.0000     -11.304679      -307.6160
   2   2.0000     -11.198525      -304.7274
   3   2.0000     -11.185206      -304.3649
   4   2.0000      -1.409283       -38.3485
   5   2.0000      -1.080765       -29.4091
   6   2.0000      -0.922705       -25.1081
   7   2.0000      -0.773041       -21.0355
   8   2.0000      -0.713820       -19.4240
   9   2.0000      -0.621348       -16.9077
  10   2.0000      -0.606562       -16.5054
  11   2.0000      -0.553609       -15.0645
  12   2.0000      -0.540659       -14.7121
  13   2.0000      -0.419360       -11.4114
  14   2.0000      -0.387222       -10.5368
  15   0.0000       0.113669         3.0931
  16   0.0000       0.291870         7.9422
  17   0.0000       0.591085        16.0842
  18   0.0000       0.667834        18.1727
  19   0.0000       0.714765        19.4497

MULLIKEN ATOMIC CHARGES
-----------------------
   0 C :    0.159379
   1 O :   -0.345174
   2 C :   -0.195159
   3 C :   -0.194513
   4 H :    0.138394
   5 H :    0.136182
   6 H :    0.155027
   7 H :    0.145864
Sum of atomic charges:    0.0000000

LOEWDIN ATOMIC CHARGES
----------------------
   0 C :    0.148879
   1 O :   -0.248404
   2 C :   -0.148382
   3 C :   -0.091456
   4 H :    0.067573
   5 H :    0.076328
   6 H :    0.102972
   7 H :    0.092491

  Mayer bond orders larger than 0.100000
B(  0-C ,  1-O ) :   1.9042 B(  0-C ,  2-C ) :   1.0379 B(  0-C ,  4-H ) :   0.9261
B(  2-C ,  3-C ) :   1.9166 B(  2-C ,  5-H ) :   0.9671 B(  3-C ,  6-H ) :   0.9628
B(  3-C ,  7-H ) :   0.9675

-----------------------------------------------------------------------------
         ABSORPTION SPECTRUM VIA TRANSITION ELECTRIC DIPOLE MOMENTS
-----------------------------------------------------------------------------
State   Energy    Wavelength  fosc         T2        TX        TY        TZ
        (cm-1)      (nm)                 (au**2)    (au)      (au)      (au)
-----------------------------------------------------------------------------
   1   32068.4    311.8   0.000042987   0.00044  -0.02054   0.00170  -0.00405

Dispersion correction           -0.025823309
FINAL SINGLE POINT ENERGY      -189.311371572536

DIPOLE MOMENT
-------------
                                X             Y             Z
Electronic contribution:     -2.12837      -1.81734      -0.29360
Nuclear contribution   :      2.56050       2.69654       0.42068
                        -----------------------------------------
Total Dipole Moment    :      0.43212       0.87921       0.12708
                        -----------------------------------------
Magnitude (a.u.)       :      0.98787
Magnitude (Debye)      :      2.51096

Rotational constants in cm-1:     0.800158     0.198217     0.159514
Rotational constants in MHz : 23988.123620  5942.407558  4782.099733

                             ****ORCA TERMINATED NORMALLY****
TOTAL RUN TIME: 0 days 0 hours 0 minutes 11 seconds 861 msec
