                         Program Version 5.0.3 -  RELEASE  -
|  1> ! HF-3c
|  2> !TightSCF
|  3> %scf
|  4>  ConvForced true
|  5>  convergence tight
|  6>  MaxIter 500
|  7> end
|  8>
|  9> %tddft
| 10>  nroots 1
| 11> end
| 12>
| 13> # 	29391
| 14> * xyz 0 1
| 15> 		C   -0.609749  -0.418371   0.028595
| 16> 		O   -0.555480  -1.600117   0.000286
| 17> 		C    0.583937   0.369336  -0.020637
| 18> 		C    1.878485  -0.140251  -0.002088
| 19> 		H   -1.485220   0.063981  -0.146257
| 20> 		H    0.541749   1.488472   0.057256
| 21> 		H    1.836906  -1.140136  -0.108985
| 22> 		H    2.775890   0.476163   0.136863
| 23> *
| 24>
| 25>                          ****END OF INPUT****

CARTESIAN COORDINATES (ANGSTROEM)
---------------------------------
  C     -0.609749   -0.418371    0.028595
  O     -0.555480   -1.600117    0.000286
  C      0.583937    0.369336   -0.020637
  C      1.878485   -0.140251   -0.002088
  H     -1.485220    0.063981   -0.146257
  H      0.541749    1.488472    0.057256
  H      1.836906   -1.140136   -0.108985
  H      2.775890    0.476163    0.136863

 Total Charge           Charge          ....    0
 Multiplicity           Mult            ....    1
 Number of Electrons    NEL             ....   30
 Basis Dimension        Dim             ....   24

ORBITAL ENERGIES
----------------

  NO   OCC          E(Eh)            E(eV)
   0   2.0000     -20.375399      -554.4428
   1   2.0000     -11.310441      -307.7727
   2   2.0000     -11.189147      -304.4722
   3   2.0000     -11.179242      -304.2027
   4   2.0000      -1.430661       -38.9303
   5   2.0000      -1.070098       -29.1189
   6   2.0000      -0.913198       -24.8494
   7   2.0000      -0.767394       -20.8819
   8   2.0000      -0.714383       -19.4393
   9   2.0000      -0.622199       -16.9309
  10   2.0000      -0.607842       -16.5402
  11   2.0000      -0.560591       -15.2544
  12   2.0000      -0.524431       -14.2705
  13   2.0000      -0.427088       -11.6216
  14   2.0000      -0.377741       -10.2788
  15   0.0000       0.115611         3.1459
  16   0.0000       0.308633         8.3983
  17   0.0000       0.572904        15.5895
  18   0.0000       0.639846        17.4111
  19   0.0000       0.687740        18.7144

MULLIKEN ATOMIC CHARGES
-----------------------
   0 C :    0.141076
   1 O :   -0.346572
   2 C :   -0.159429
   3 C :   -0.226320
   4 H :    0.143462
   5 H :    0.134826
   6 H :    0.156993
   7 H :    0.155965
Sum of atomic charges:   -0.0000000

LOEWDIN ATOMIC CHARGES
----------------------
   0 C :    0.130460
   1 O :   -0.245314
   2 C :   -0.125732
   3 C :   -0.118197
   4 H :    0.070302
   5 H :    0.086867
   6 H :    0.096352
   7 H :    0.105262

  Mayer bond orders larger than 0.100000
B(  0-C ,  1-O ) :   1.8843 B(  0-C ,  2-C ) :   1.0536 B(  0-C ,  4-H ) :   0.9303
B(  2-C ,  3-C ) :   1.9175 B(  2-C ,  5-H ) :   0.9634 B(  3-C ,  6-H ) :   0.9633
B(  3-C ,  7-H ) :   0.9659

-----------------------------------------------------------------------------
         ABSORPTION SPECTRUM VIA TRANSITION ELECTRIC DIPOLE MOMENTS
-----------------------------------------------------------------------------
State   Energy    Wavelength  fosc         T2        TX        TY        TZ
        (cm-1)      (nm)                 (au**2)    (au)      (au)      (au)
-----------------------------------------------------------------------------
   1   32134.9    311.2   0.000108913   0.00112   0.03190   0.00009   0.00990

Dispersion correction           -0.026208801
FINAL SINGLE POINT ENERGY      -189.312847485522

DIPOLE MOMENT
-------------
                                X             Y             Z
Electronic contribution:     -1.97855      -1.70950       0.07132
Nuclear contribution   :      2.28756       2.62282      -0.05824
                        -----------------------------------------
Total Dipole Moment    :      0.30901       0.91332       0.01307
                        -----------------------------------------
Magnitude (a.u.)       :      0.96427
Magnitude (Debye)      :      2.45098

Rotational constants in cm-1:     0.786415     0.213888     0.168391
Rotational constants in MHz : 23576.139289  6412.212503  5048.248850

                             ****ORCA TERMINATED NORMALLY****
TOTAL RUN TIME: 0 days 0 hours 0 minutes 11 seconds 177 msec
