                         Program Version 5.0.3 -  RELEASE  -
|  1> ! HF-3c
|  2> !TightSCF
|  3> %scf
|  4>  ConvForced true
|  5>  convergence tight
|  6>  MaxIter 500
|  7> end
|  8>
|  9> %tddft
| 10>  nroots 1
| 11> end
| 12>
| 13> # 	7425
| 14> * xyz 0 1
| 15> 		C   -1.186825  -0.321644  -0.036356
| 16> 		O   -1.342482  -1.401338   0.484929
| 17> 		C   -0.002255   0.504778   0.133354
| 18> 		C    1.227560   0.021140  -0.133513
| 19> 		H   -2.043900   0.182703  -0.565416
| 20> 		H   -0.227795   1.457456   0.262914
| 21> 		H    1.388054  -1.093028  -0.028989
| 22> 		H    2.249252   0.581875  -0.131901
| 23> *
| 24>
| 25>                          ****END OF INPUT****

CARTESIAN COORDINATES (ANGSTROEM)
---------------------------------
  C     -1.186825   -0.321644   -0.036356
  O     -1.342482   -1.401338    0.484929
  C     -0.002255    0.504778    0.133354
  C      1.227560    0.021140   -0.133513
  H     -2.043900    0.182703   -0.565416
  H     -0.227795    1.457456    0.262914
  H      1.388054   -1.093028   -0.028989
  H      2.249252    0.581875   -0.131901

 Total Charge           Charge          ....    0
 Multiplicity           Mult            ....    1
 Number of Electrons    NEL             ....   30
 Basis Dimension        Dim             ....   24

ORBITAL ENERGIES
----------------

  NO   OCC          E(Eh)            E(eV)
   0   2.0000     -20.364196      -554.1379
   1   2.0000     -11.295597      -307.3688
   2   2.0000     -11.190963      -304.5216
   3   2.0000     -11.189284      -304.4759
   4   2.0000      -1.401782       -38.1444
   5   2.0000      -1.080128       -29.3918
   6   2.0000      -0.890365       -24.2281
   7   2.0000      -0.753660       -20.5081
   8   2.0000      -0.702228       -19.1086
   9   2.0000      -0.620941       -16.8967
  10   2.0000      -0.599179       -16.3045
  11   2.0000      -0.535079       -14.5602
  12   2.0000      -0.517469       -14.0810
  13   2.0000      -0.411759       -11.2045
  14   2.0000      -0.389513       -10.5992
  15   0.0000       0.144079         3.9206
  16   0.0000       0.264076         7.1859
  17   0.0000       0.524778        14.2799
  18   0.0000       0.619348        16.8533
  19   0.0000       0.656305        17.8590

MULLIKEN ATOMIC CHARGES
-----------------------
   0 C :    0.170268
   1 O :   -0.350680
   2 C :   -0.201105
   3 C :   -0.195592
   4 H :    0.137566
   5 H :    0.142051
   6 H :    0.150286
   7 H :    0.147206
Sum of atomic charges:   -0.0000000

LOEWDIN ATOMIC CHARGES
----------------------
   0 C :    0.150347
   1 O :   -0.256226
   2 C :   -0.148991
   3 C :   -0.106757
   4 H :    0.075915
   5 H :    0.083291
   6 H :    0.100937
   7 H :    0.101483

  Mayer bond orders larger than 0.100000
B(  0-C ,  1-O ) :   1.9175 B(  0-C ,  2-C ) :   1.0218 B(  0-C ,  4-H ) :   0.9181
B(  2-C ,  3-C ) :   1.9497 B(  2-C ,  5-H ) :   0.9589 B(  3-C ,  6-H ) :   0.9603
B(  3-C ,  7-H ) :   0.9614

-----------------------------------------------------------------------------
         ABSORPTION SPECTRUM VIA TRANSITION ELECTRIC DIPOLE MOMENTS
-----------------------------------------------------------------------------
State   Energy    Wavelength  fosc         T2        TX        TY        TZ
        (cm-1)      (nm)                 (au**2)    (au)      (au)      (au)
-----------------------------------------------------------------------------
   1   33595.6    297.7   0.000141849   0.00139   0.03433  -0.00740   0.01252

Dispersion correction           -0.025527556
FINAL SINGLE POINT ENERGY      -189.311140361688

DIPOLE MOMENT
-------------
                                X             Y             Z
Electronic contribution:     -2.12841      -1.51363       0.48241
Nuclear contribution   :      2.58111       2.30375      -0.88807
                        -----------------------------------------
Total Dipole Moment    :      0.45270       0.79012      -0.40566
                        -----------------------------------------
Magnitude (a.u.)       :      0.99689
Magnitude (Debye)      :      2.53389

Rotational constants in cm-1:     0.829470     0.194305     0.163229
Rotational constants in MHz : 24866.884195  5825.106694  4893.496422

                             ****ORCA TERMINATED NORMALLY****
TOTAL RUN TIME: 0 days 0 hours 0 minutes 12 seconds 580 msec
