                         Program Version 5.0.3 -  RELEASE  -
|  1> ! B3LYP cc-pVDZ
|  2> !TightSCF
|  3> %scf
|  4>  ConvForced true
|  5>  convergence tight
|  6>  MaxIter 500
|  7> end
|  8>
|  9> %tddft
| 10>  nroots 1
| 11> end
| 12>
| 13> # 	30682
| 14> * xyz 0 1
| 15> 		C   -0.590178  -0.446292  -0.021202
| 16> 		O   -0.609468  -1.642227   0.015881
| 17> 		C    0.652699   0.395671  -0.007026
| 18> 		C    1.875633  -0.104427   0.001927
| 19> 		H   -1.681484   0.159611  -0.042268
| 20> 		H    0.530680   1.446885   0.182754
| 21> 		H    2.127576  -1.092265  -0.061104
| 22> 		H    2.578049   0.666388  -0.008870
| 23> *
| 24>
| 25>                          ****END OF INPUT****

CARTESIAN COORDINATES (ANGSTROEM)
---------------------------------
  C     -0.590178   -0.446292   -0.021202
  O     -0.609468   -1.642227    0.015881
  C      0.652699    0.395671   -0.007026
  C      1.875633   -0.104427    0.001927
  H     -1.681484    0.159611   -0.042268
  H      0.530680    1.446885    0.182754
  H      2.127576   -1.092265   -0.061104
  H      2.578049    0.666388   -0.008870

 Total Charge           Charge          ....    0
 Multiplicity           Mult            ....    1
 Number of Electrons    NEL             ....   30
 Basis Dimension        Dim             ....   76

ORBITAL ENERGIES
----------------

  NO   OCC          E(Eh)            E(eV)
   0   2.0000     -19.143468      -520.9203
   1   2.0000     -10.285024      -279.8697
   2   2.0000     -10.204769      -277.6859
   3   2.0000     -10.202089      -277.6129
   4   2.0000      -1.056878       -28.7591
   5   2.0000      -0.803362       -21.8606
   6   2.0000      -0.653359       -17.7788
   7   2.0000      -0.542696       -14.7675
   8   2.0000      -0.506802       -13.7908
   9   2.0000      -0.454662       -12.3720
  10   2.0000      -0.420180       -11.4337
  11   2.0000      -0.405374       -11.0308
  12   2.0000      -0.393663       -10.7121
  13   2.0000      -0.294078        -8.0023
  14   2.0000      -0.254286        -6.9195
  15   0.0000      -0.067232        -1.8295
  16   0.0000       0.058353         1.5879
  17   0.0000       0.064961         1.7677
  18   0.0000       0.090295         2.4570
  19   0.0000       0.117508         3.1976

MULLIKEN ATOMIC CHARGES
-----------------------
   0 C :    0.135481
   1 O :   -0.166502
   2 C :   -0.120804
   3 C :    0.164945
   4 H :   -0.020953
   5 H :   -0.010005
   6 H :    0.003866
   7 H :    0.013973
Sum of atomic charges:   -0.0000000

LOEWDIN ATOMIC CHARGES
----------------------
   0 C :   -0.047618
   1 O :    0.011027
   2 C :   -0.074517
   3 C :    0.046710
   4 H :   -0.007653
   5 H :    0.027578
   6 H :    0.015068
   7 H :    0.029405

  Mayer bond orders larger than 0.100000
B(  0-C ,  1-O ) :   2.2218 B(  0-C ,  2-C ) :   1.0209 B(  0-C ,  4-H ) :   0.8832
B(  2-C ,  3-C ) :   1.9912 B(  2-C ,  5-H ) :   0.9396 B(  3-C ,  6-H ) :   0.9459
B(  3-C ,  7-H ) :   0.9291

-----------------------------------------------------------------------------
         ABSORPTION SPECTRUM VIA TRANSITION ELECTRIC DIPOLE MOMENTS
-----------------------------------------------------------------------------
State   Energy    Wavelength  fosc         T2        TX        TY        TZ
        (cm-1)      (nm)                 (au**2)    (au)      (au)      (au)
-----------------------------------------------------------------------------
   1   28444.7    351.6   0.000313271   0.00363  -0.03655  -0.01169  -0.04640

FINAL SINGLE POINT ENERGY      -191.662171798168

DIPOLE MOMENT
-------------
                                X             Y             Z
Electronic contribution:     -1.67254      -2.06585      -0.05806
Nuclear contribution   :      2.17614       2.89412       0.06577
                        -----------------------------------------
Total Dipole Moment    :      0.50360       0.82828       0.00770
                        -----------------------------------------
Magnitude (a.u.)       :      0.96939
Magnitude (Debye)      :      2.46400

Rotational constants in cm-1:     0.796268     0.200720     0.160461
Rotational constants in MHz : 23871.500561  6017.440147  4810.486458

                             ****ORCA TERMINATED NORMALLY****
TOTAL RUN TIME: 0 days 0 hours 3 minutes 22 seconds 444 msec
