                         Program Version 5.0.3 -  RELEASE  -
|  1> ! B3LYP cc-pVDZ
|  2> !TightSCF
|  3> %scf
|  4>  ConvForced true
|  5>  convergence tight
|  6>  MaxIter 500
|  7> end
|  8>
|  9> %tddft
| 10>  nroots 1
| 11> end
| 12>
| 13> # 	29001
| 14> * xyz 0 1
| 15> 		C   -0.547847  -0.435255   0.004717
| 16> 		O   -0.555614  -1.622378   0.002119
| 17> 		C    0.638822   0.481179  -0.009181
| 18> 		C    1.796642  -0.173417  -0.002431
| 19> 		H   -1.562186   0.034814   0.006121
| 20> 		H    0.398709   1.425278  -0.004758
| 21> 		H    1.700113  -1.362312  -0.067365
| 22> 		H    2.747291   0.395710   0.121739
| 23> *
| 24>
| 25>                          ****END OF INPUT****

CARTESIAN COORDINATES (ANGSTROEM)
---------------------------------
  C     -0.547847   -0.435255    0.004717
  O     -0.555614   -1.622378    0.002119
  C      0.638822    0.481179   -0.009181
  C      1.796642   -0.173417   -0.002431
  H     -1.562186    0.034814    0.006121
  H      0.398709    1.425278   -0.004758
  H      1.700113   -1.362312   -0.067365
  H      2.747291    0.395710    0.121739

 Total Charge           Charge          ....    0
 Multiplicity           Mult            ....    1
 Number of Electrons    NEL             ....   30
 Basis Dimension        Dim             ....   76

ORBITAL ENERGIES
----------------

  NO   OCC          E(Eh)            E(eV)
   0   2.0000     -19.135731      -520.7097
   1   2.0000     -10.268739      -279.4266
   2   2.0000     -10.220616      -278.1171
   3   2.0000     -10.193954      -277.3916
   4   2.0000      -1.058652       -28.8074
   5   2.0000      -0.799259       -21.7490
   6   2.0000      -0.647584       -17.6216
   7   2.0000      -0.543165       -14.7803
   8   2.0000      -0.516375       -14.0513
   9   2.0000      -0.444071       -12.0838
  10   2.0000      -0.424077       -11.5397
  11   2.0000      -0.404638       -11.0108
  12   2.0000      -0.379870       -10.3368
  13   2.0000      -0.289542        -7.8788
  14   2.0000      -0.251854        -6.8533
  15   0.0000      -0.062525        -1.7014
  16   0.0000       0.062482         1.7002
  17   0.0000       0.077344         2.1046
  18   0.0000       0.080219         2.1829
  19   0.0000       0.130554         3.5526

MULLIKEN ATOMIC CHARGES
-----------------------
   0 C :    0.157114
   1 O :   -0.177672
   2 C :   -0.015998
   3 C :    0.032880
   4 H :   -0.033698
   5 H :   -0.073656
   6 H :    0.073078
   7 H :    0.037952
Sum of atomic charges:    0.0000000

LOEWDIN ATOMIC CHARGES
----------------------
   0 C :   -0.042250
   1 O :    0.012720
   2 C :   -0.063397
   3 C :    0.019551
   4 H :   -0.010810
   5 H :   -0.008501
   6 H :    0.058727
   7 H :    0.033960

  Mayer bond orders larger than 0.100000
B(  0-C ,  1-O ) :   2.1969 B(  0-C ,  2-C ) :   1.0459 B(  0-C ,  4-H ) :   0.9199
B(  2-C ,  3-C ) :   1.9513 B(  2-C ,  5-H ) :   0.9650 B(  3-C ,  6-H ) :   0.9033
B(  3-C ,  7-H ) :   0.9427

-----------------------------------------------------------------------------
         ABSORPTION SPECTRUM VIA TRANSITION ELECTRIC DIPOLE MOMENTS
-----------------------------------------------------------------------------
State   Energy    Wavelength  fosc         T2        TX        TY        TZ
        (cm-1)      (nm)                 (au**2)    (au)      (au)      (au)
-----------------------------------------------------------------------------
   1   28904.9    346.0   0.000223811   0.00255  -0.01365  -0.00309  -0.04851

FINAL SINGLE POINT ENERGY      -191.652750971757

DIPOLE MOMENT
-------------
                                X             Y             Z
Electronic contribution:     -1.56799      -1.39037      -0.03666
Nuclear contribution   :      1.92403       2.25273       0.05183
                        -----------------------------------------
Total Dipole Moment    :      0.35604       0.86236       0.01518
                        -----------------------------------------
Magnitude (a.u.)       :      0.93310
Magnitude (Debye)      :      2.37174

Rotational constants in cm-1:     0.752049     0.220692     0.170695
Rotational constants in MHz : 22545.856906  6616.190370  5117.303320

                             ****ORCA TERMINATED NORMALLY****
TOTAL RUN TIME: 0 days 0 hours 3 minutes 16 seconds 814 msec
