                         Program Version 5.0.3 -  RELEASE  -
|  1> ! HF-3c
|  2> !TightSCF
|  3> %scf
|  4>  ConvForced true
|  5>  convergence tight
|  6>  MaxIter 500
|  7> end
|  8>
|  9> %tddft
| 10>  nroots 1
| 11> end
| 12>
| 13> # 	32730
| 14> * xyz 0 1
| 15> 		C   -0.571015  -0.459094  -0.111787
| 16> 		O   -0.638936  -1.666136   0.062505
| 17> 		C    0.654027   0.401868   0.021489
| 18> 		C    1.886498  -0.070471  -0.021646
| 19> 		H   -1.563364   0.178958   0.098724
| 20> 		H    0.481448   1.413954   0.293010
| 21> 		H    1.995271  -1.083673  -0.297857
| 22> 		H    2.733477   0.699650   0.279775
| 23> *
| 24>
| 25>                          ****END OF INPUT****

CARTESIAN COORDINATES (ANGSTROEM)
---------------------------------
  C     -0.571015   -0.459094   -0.111787
  O     -0.638936   -1.666136    0.062505
  C      0.654027    0.401868    0.021489
  C      1.886498   -0.070471   -0.021646
  H     -1.563364    0.178958    0.098724
  H      0.481448    1.413954    0.293010
  H      1.995271   -1.083673   -0.297857
  H      2.733477    0.699650    0.279775

 Total Charge           Charge          ....    0
 Multiplicity           Mult            ....    1
 Number of Electrons    NEL             ....   30
 Basis Dimension        Dim             ....   24

ORBITAL ENERGIES
----------------

  NO   OCC          E(Eh)            E(eV)
   0   2.0000     -20.362189      -554.0833
   1   2.0000     -11.287859      -307.1583
   2   2.0000     -11.190960      -304.5215
   3   2.0000     -11.185417      -304.3707
   4   2.0000      -1.390467       -37.8365
   5   2.0000      -1.081322       -29.4243
   6   2.0000      -0.877482       -23.8775
   7   2.0000      -0.736892       -20.0519
   8   2.0000      -0.689859       -18.7720
   9   2.0000      -0.608664       -16.5626
  10   2.0000      -0.580514       -15.7966
  11   2.0000      -0.534811       -14.5529
  12   2.0000      -0.531518       -14.4634
  13   2.0000      -0.400593       -10.9007
  14   2.0000      -0.397038       -10.8040
  15   0.0000       0.134567         3.6618
  16   0.0000       0.294406         8.0112
  17   0.0000       0.506600        13.7853
  18   0.0000       0.578255        15.7351
  19   0.0000       0.610522        16.6132

MULLIKEN ATOMIC CHARGES
-----------------------
   0 C :    0.172707
   1 O :   -0.353663
   2 C :   -0.184250
   3 C :   -0.217028
   4 H :    0.127510
   5 H :    0.139669
   6 H :    0.158554
   7 H :    0.156501
Sum of atomic charges:   -0.0000000

LOEWDIN ATOMIC CHARGES
----------------------
   0 C :    0.147065
   1 O :   -0.260386
   2 C :   -0.139325
   3 C :   -0.121012
   4 H :    0.073008
   5 H :    0.086492
   6 H :    0.101890
   7 H :    0.112267

  Mayer bond orders larger than 0.100000
B(  0-C ,  1-O ) :   1.9131 B(  0-C ,  2-C ) :   1.0120 B(  0-C ,  4-H ) :   0.9174
B(  2-C ,  3-C ) :   1.9539 B(  2-C ,  5-H ) :   0.9599 B(  3-C ,  6-H ) :   0.9598
B(  3-C ,  7-H ) :   0.9578

-----------------------------------------------------------------------------
         ABSORPTION SPECTRUM VIA TRANSITION ELECTRIC DIPOLE MOMENTS
-----------------------------------------------------------------------------
State   Energy    Wavelength  fosc         T2        TX        TY        TZ
        (cm-1)      (nm)                 (au**2)    (au)      (au)      (au)
-----------------------------------------------------------------------------
   1   31022.7    322.3   0.000358390   0.00380  -0.05873   0.00303   0.01858

Dispersion correction           -0.025448863
FINAL SINGLE POINT ENERGY      -189.329006806413

DIPOLE MOMENT
-------------
                                X             Y             Z
Electronic contribution:     -1.87258      -1.92816      -0.34787
Nuclear contribution   :      2.26217       2.92201       0.34932
                        -----------------------------------------
Total Dipole Moment    :      0.38959       0.99384       0.00145
                        -----------------------------------------
Magnitude (a.u.)       :      1.06748
Magnitude (Debye)      :      2.71331

Rotational constants in cm-1:     0.807976     0.193416     0.157482
Rotational constants in MHz : 24222.512024  5798.463603  4721.186070

                             ****ORCA TERMINATED NORMALLY****
TOTAL RUN TIME: 0 days 0 hours 0 minutes 16 seconds 33 msec
