                         Program Version 5.0.3 -  RELEASE  -
|  1> ! HF-3c
|  2> !TightSCF
|  3> %scf
|  4>  ConvForced true
|  5>  convergence tight
|  6>  MaxIter 500
|  7> end
|  8>
|  9> %tddft
| 10>  nroots 1
| 11> end
| 12>
| 13> # 	16753
| 14> * xyz 0 1
| 15> 		C   -1.210507  -0.394773   0.054741
| 16> 		O   -1.871021  -0.932362  -0.715650
| 17> 		C   -0.026504   0.456064  -0.330471
| 18> 		C    1.209124   0.067318   0.130239
| 19> 		H   -1.439643  -0.504286   1.065798
| 20> 		H   -0.105276   1.327560  -0.828231
| 21> 		H    1.375652  -0.835705   0.685956
| 22> 		H    2.109960   0.757728  -0.014066
| 23> *
| 24>
| 25>                          ****END OF INPUT****

CARTESIAN COORDINATES (ANGSTROEM)
---------------------------------
  C     -1.210507   -0.394773    0.054741
  O     -1.871021   -0.932362   -0.715650
  C     -0.026504    0.456064   -0.330471
  C      1.209124    0.067318    0.130239
  H     -1.439643   -0.504286    1.065798
  H     -0.105276    1.327560   -0.828231
  H      1.375652   -0.835705    0.685956
  H      2.109960    0.757728   -0.014066

 Total Charge           Charge          ....    0
 Multiplicity           Mult            ....    1
 Number of Electrons    NEL             ....   30
 Basis Dimension        Dim             ....   24

ORBITAL ENERGIES
----------------

  NO   OCC          E(Eh)            E(eV)
   0   2.0000     -20.396098      -555.0060
   1   2.0000     -11.320009      -308.0331
   2   2.0000     -11.185464      -304.3719
   3   2.0000     -11.180729      -304.2431
   4   2.0000      -1.460011       -39.7289
   5   2.0000      -1.068929       -29.0870
   6   2.0000      -0.873575       -23.7712
   7   2.0000      -0.798482       -21.7278
   8   2.0000      -0.705600       -19.2004
   9   2.0000      -0.642452       -17.4820
  10   2.0000      -0.609206       -16.5773
  11   2.0000      -0.557620       -15.1736
  12   2.0000      -0.540088       -14.6966
  13   2.0000      -0.415672       -11.3110
  14   2.0000      -0.391708       -10.6589
  15   0.0000       0.169104         4.6016
  16   0.0000       0.243787         6.6338
  17   0.0000       0.557541        15.1715
  18   0.0000       0.624391        16.9905
  19   0.0000       0.676492        18.4083

MULLIKEN ATOMIC CHARGES
-----------------------
   0 C :    0.177464
   1 O :   -0.346959
   2 C :   -0.178343
   3 C :   -0.222126
   4 H :    0.140944
   5 H :    0.151185
   6 H :    0.136039
   7 H :    0.141797
Sum of atomic charges:   -0.0000000

LOEWDIN ATOMIC CHARGES
----------------------
   0 C :    0.149088
   1 O :   -0.229499
   2 C :   -0.131193
   3 C :   -0.131352
   4 H :    0.068756
   5 H :    0.092153
   6 H :    0.085920
   7 H :    0.096126

  Mayer bond orders larger than 0.100000
B(  0-C ,  1-O ) :   1.9475 B(  0-C ,  2-C ) :   0.9776 B(  0-C ,  4-H ) :   0.9216
B(  2-C ,  3-C ) :   1.9854 B(  2-C ,  5-H ) :   0.9589 B(  3-C ,  6-H ) :   0.9692
B(  3-C ,  7-H ) :   0.9646

-----------------------------------------------------------------------------
         ABSORPTION SPECTRUM VIA TRANSITION ELECTRIC DIPOLE MOMENTS
-----------------------------------------------------------------------------
State   Energy    Wavelength  fosc         T2        TX        TY        TZ
        (cm-1)      (nm)                 (au**2)    (au)      (au)      (au)
-----------------------------------------------------------------------------
   1   37343.8    267.8   0.000031124   0.00027   0.01183  -0.00333   0.01110

Dispersion correction           -0.025261094
FINAL SINGLE POINT ENERGY      -189.294383794835

DIPOLE MOMENT
-------------
                                X             Y             Z
Electronic contribution:     -2.99845      -1.10234      -1.04724
Nuclear contribution   :      3.69569       1.53355       1.66789
                        -----------------------------------------
Total Dipole Moment    :      0.69724       0.43122       0.62065
                        -----------------------------------------
Magnitude (a.u.)       :      1.02825
Magnitude (Debye)      :      2.61361

Rotational constants in cm-1:     1.178852     0.161785     0.155234
Rotational constants in MHz : 35341.101335  4850.207085  4653.784039

                             ****ORCA TERMINATED NORMALLY****
TOTAL RUN TIME: 0 days 0 hours 0 minutes 13 seconds 576 msec
