                         Program Version 5.0.3 -  RELEASE  -
|  1> ! B3LYP cc-pVDZ
|  2> !TightSCF
|  3> %scf
|  4>  ConvForced true
|  5>  convergence tight
|  6>  MaxIter 500
|  7> end
|  8>
|  9> %tddft
| 10>  nroots 1
| 11> end
| 12>
| 13> # 	24535
| 14> * xyz 0 1
| 15> 		C   -0.587380  -0.436009  -0.016189
| 16> 		O   -0.555042  -1.610072   0.005312
| 17> 		C    0.634847   0.431874   0.058710
| 18> 		C    1.819388  -0.157318   0.013408
| 19> 		H   -1.578991   0.055595  -0.159585
| 20> 		H    0.484738   1.521877  -0.209641
| 21> 		H    1.929720  -1.395878  -0.203625
| 22> 		H    2.711503   0.551949  -0.191702
| 23> *
| 24>
| 25>                          ****END OF INPUT****

CARTESIAN COORDINATES (ANGSTROEM)
---------------------------------
  C     -0.587380   -0.436009   -0.016189
  O     -0.555042   -1.610072    0.005312
  C      0.634847    0.431874    0.058710
  C      1.819388   -0.157318    0.013408
  H     -1.578991    0.055595   -0.159585
  H      0.484738    1.521877   -0.209641
  H      1.929720   -1.395878   -0.203625
  H      2.711503    0.551949   -0.191702

 Total Charge           Charge          ....    0
 Multiplicity           Mult            ....    1
 Number of Electrons    NEL             ....   30
 Basis Dimension        Dim             ....   76

ORBITAL ENERGIES
----------------

  NO   OCC          E(Eh)            E(eV)
   0   2.0000     -19.136690      -520.7358
   1   2.0000     -10.271531      -279.5026
   2   2.0000     -10.226807      -278.2856
   3   2.0000     -10.205378      -277.7025
   4   2.0000      -1.067067       -29.0364
   5   2.0000      -0.790368       -21.5070
   6   2.0000      -0.639683       -17.4067
   7   2.0000      -0.527149       -14.3445
   8   2.0000      -0.502397       -13.6709
   9   2.0000      -0.444157       -12.0861
  10   2.0000      -0.419736       -11.4216
  11   2.0000      -0.409633       -11.1467
  12   2.0000      -0.364506        -9.9187
  13   2.0000      -0.289213        -7.8699
  14   2.0000      -0.253975        -6.9110
  15   0.0000      -0.064104        -1.7444
  16   0.0000       0.049243         1.3400
  17   0.0000       0.060434         1.6445
  18   0.0000       0.074177         2.0185
  19   0.0000       0.118156         3.2152

MULLIKEN ATOMIC CHARGES
-----------------------
   0 C :    0.173959
   1 O :   -0.161582
   2 C :   -0.110598
   3 C :   -0.023446
   4 H :   -0.030327
   5 H :    0.015375
   6 H :    0.087102
   7 H :    0.049517
Sum of atomic charges:   -0.0000000

LOEWDIN ATOMIC CHARGES
----------------------
   0 C :   -0.056037
   1 O :    0.029148
   2 C :   -0.102586
   3 C :   -0.012095
   4 H :   -0.010178
   5 H :    0.038226
   6 H :    0.069408
   7 H :    0.044113

  Mayer bond orders larger than 0.100000
B(  0-C ,  1-O ) :   2.2329 B(  0-C ,  2-C ) :   1.0237 B(  0-C ,  4-H ) :   0.9165
B(  2-C ,  3-C ) :   1.9515 B(  2-C ,  5-H ) :   0.9390 B(  3-C ,  6-H ) :   0.9206
B(  3-C ,  7-H ) :   0.9333

-----------------------------------------------------------------------------
         ABSORPTION SPECTRUM VIA TRANSITION ELECTRIC DIPOLE MOMENTS
-----------------------------------------------------------------------------
State   Energy    Wavelength  fosc         T2        TX        TY        TZ
        (cm-1)      (nm)                 (au**2)    (au)      (au)      (au)
-----------------------------------------------------------------------------
   1   29143.7    343.1   0.000391884   0.00443   0.04033   0.03745  -0.03739

FINAL SINGLE POINT ENERGY      -191.648645248509

DIPOLE MOMENT
-------------
                                X             Y             Z
Electronic contribution:     -1.86009      -1.67596       0.53633
Nuclear contribution   :      2.16915       2.47605      -0.71627
                        -----------------------------------------
Total Dipole Moment    :      0.30905       0.80009      -0.17994
                        -----------------------------------------
Magnitude (a.u.)       :      0.87637
Magnitude (Debye)      :      2.22756

Rotational constants in cm-1:     0.745724     0.215883     0.168071
Rotational constants in MHz : 22356.230873  6472.024178  5038.635868

                             ****ORCA TERMINATED NORMALLY****
TOTAL RUN TIME: 0 days 0 hours 3 minutes 9 seconds 452 msec
