                         Program Version 5.0.3 -  RELEASE  -
|  1> ! B3LYP cc-pVDZ
|  2> !TightSCF
|  3> %scf
|  4>  ConvForced true
|  5>  convergence tight
|  6>  MaxIter 500
|  7> end
|  8>
|  9> %tddft
| 10>  nroots 1
| 11> end
| 12>
| 13> # 	32070
| 14> * xyz 0 1
| 15> 		C   -0.539850  -0.431549  -0.053123
| 16> 		O   -0.582690  -1.641695   0.032592
| 17> 		C    0.632161   0.461931   0.051387
| 18> 		C    1.808526  -0.134677  -0.010943
| 19> 		H   -1.467935   0.046642  -0.238074
| 20> 		H    0.476624   1.376156   0.154615
| 21> 		H    1.763117  -1.265555  -0.141967
| 22> 		H    2.783728   0.360190  -0.135132
| 23> *
| 24>
| 25>                          ****END OF INPUT****

CARTESIAN COORDINATES (ANGSTROEM)
---------------------------------
  C     -0.539850   -0.431549   -0.053123
  O     -0.582690   -1.641695    0.032592
  C      0.632161    0.461931    0.051387
  C      1.808526   -0.134677   -0.010943
  H     -1.467935    0.046642   -0.238074
  H      0.476624    1.376156    0.154615
  H      1.763117   -1.265555   -0.141967
  H      2.783728    0.360190   -0.135132

 Total Charge           Charge          ....    0
 Multiplicity           Mult            ....    1
 Number of Electrons    NEL             ....   30
 Basis Dimension        Dim             ....   76

ORBITAL ENERGIES
----------------

  NO   OCC          E(Eh)            E(eV)
   0   2.0000     -19.134047      -520.6639
   1   2.0000     -10.266311      -279.3605
   2   2.0000     -10.214726      -277.9568
   3   2.0000     -10.189687      -277.2755
   4   2.0000      -1.041607       -28.3436
   5   2.0000      -0.806911       -21.9572
   6   2.0000      -0.658022       -17.9057
   7   2.0000      -0.560269       -15.2457
   8   2.0000      -0.521460       -14.1897
   9   2.0000      -0.445580       -12.1248
  10   2.0000      -0.426374       -11.6022
  11   2.0000      -0.394715       -10.7407
  12   2.0000      -0.382187       -10.3998
  13   2.0000      -0.290915        -7.9162
  14   2.0000      -0.252774        -6.8783
  15   0.0000      -0.065806        -1.7907
  16   0.0000       0.055621         1.5135
  17   0.0000       0.082553         2.2464
  18   0.0000       0.093492         2.5440
  19   0.0000       0.137401         3.7389

MULLIKEN ATOMIC CHARGES
-----------------------
   0 C :    0.194964
   1 O :   -0.202834
   2 C :    0.007538
   3 C :    0.054409
   4 H :   -0.035908
   5 H :   -0.102702
   6 H :    0.049466
   7 H :    0.035067
Sum of atomic charges:    0.0000000

LOEWDIN ATOMIC CHARGES
----------------------
   0 C :   -0.017463
   1 O :   -0.011409
   2 C :   -0.049509
   3 C :    0.037133
   4 H :   -0.012578
   5 H :   -0.021868
   6 H :    0.044263
   7 H :    0.031432

  Mayer bond orders larger than 0.100000
B(  0-C ,  1-O ) :   2.1739 B(  0-C ,  2-C ) :   1.0635 B(  0-C ,  4-H ) :   0.9315
B(  2-C ,  3-C ) :   1.9523 B(  2-C ,  5-H ) :   0.9597 B(  3-C ,  6-H ) :   0.9179
B(  3-C ,  7-H ) :   0.9490

-----------------------------------------------------------------------------
         ABSORPTION SPECTRUM VIA TRANSITION ELECTRIC DIPOLE MOMENTS
-----------------------------------------------------------------------------
State   Energy    Wavelength  fosc         T2        TX        TY        TZ
        (cm-1)      (nm)                 (au**2)    (au)      (au)      (au)
-----------------------------------------------------------------------------
   1   28126.9    355.5   0.000067221   0.00079  -0.00788  -0.00583   0.02628

FINAL SINGLE POINT ENERGY      -191.650922607128

DIPOLE MOMENT
-------------
                                X             Y             Z
Electronic contribution:     -1.77592      -1.33682       0.24914
Nuclear contribution   :      2.17849       2.27533      -0.33817
                        -----------------------------------------
Total Dipole Moment    :      0.40257       0.93851      -0.08903
                        -----------------------------------------
Magnitude (a.u.)       :      1.02508
Magnitude (Debye)      :      2.60554

Rotational constants in cm-1:     0.779419     0.214131     0.168667
Rotational constants in MHz : 23366.405686  6419.489777  5056.495044

                             ****ORCA TERMINATED NORMALLY****
TOTAL RUN TIME: 0 days 0 hours 3 minutes 19 seconds 0 msec
