                         Program Version 5.0.3 -  RELEASE  -
|  1> ! B3LYP cc-pVDZ
|  2> !TightSCF
|  3> %scf
|  4>  ConvForced true
|  5>  convergence tight
|  6>  MaxIter 500
|  7> end
|  8>
|  9> %tddft
| 10>  nroots 1
| 11> end
| 12>
| 13> # 	24425
| 14> * xyz 0 1
| 15> 		C   -0.564198  -0.406906   0.049495
| 16> 		O   -0.585221  -1.634275  -0.038246
| 17> 		C    0.603893   0.426189  -0.044036
| 18> 		C    1.867869  -0.134506   0.015297
| 19> 		H   -1.488542   0.005115   0.218520
| 20> 		H    0.354746   1.344601  -0.083755
| 21> 		H    1.928562  -1.315121   0.319908
| 22> 		H    2.703096   0.514106  -0.113260
| 23> *
| 24>
| 25>                          ****END OF INPUT****

CARTESIAN COORDINATES (ANGSTROEM)
---------------------------------
  C     -0.564198   -0.406906    0.049495
  O     -0.585221   -1.634275   -0.038246
  C      0.603893    0.426189   -0.044036
  C      1.867869   -0.134506    0.015297
  H     -1.488542    0.005115    0.218520
  H      0.354746    1.344601   -0.083755
  H      1.928562   -1.315121    0.319908
  H      2.703096    0.514106   -0.113260

 Total Charge           Charge          ....    0
 Multiplicity           Mult            ....    1
 Number of Electrons    NEL             ....   30
 Basis Dimension        Dim             ....   76

ORBITAL ENERGIES
----------------

  NO   OCC          E(Eh)            E(eV)
   0   2.0000     -19.125725      -520.4374
   1   2.0000     -10.256222      -279.0860
   2   2.0000     -10.231476      -278.4126
   3   2.0000     -10.195987      -277.4469
   4   2.0000      -1.027425       -27.9577
   5   2.0000      -0.796968       -21.6866
   6   2.0000      -0.668448       -18.1894
   7   2.0000      -0.553711       -15.0673
   8   2.0000      -0.519162       -14.1271
   9   2.0000      -0.437225       -11.8975
  10   2.0000      -0.423483       -11.5235
  11   2.0000      -0.389015       -10.5856
  12   2.0000      -0.383438       -10.4339
  13   2.0000      -0.280275        -7.6267
  14   2.0000      -0.247370        -6.7313
  15   0.0000      -0.077634        -2.1125
  16   0.0000       0.055616         1.5134
  17   0.0000       0.075500         2.0544
  18   0.0000       0.083113         2.2616
  19   0.0000       0.128376         3.4933

MULLIKEN ATOMIC CHARGES
-----------------------
   0 C :    0.199691
   1 O :   -0.223460
   2 C :    0.000837
   3 C :    0.035872
   4 H :   -0.047973
   5 H :   -0.082679
   6 H :    0.083214
   7 H :    0.034499
Sum of atomic charges:    0.0000000

LOEWDIN ATOMIC CHARGES
----------------------
   0 C :   -0.022710
   1 O :   -0.030376
   2 C :   -0.050061
   3 C :    0.039351
   4 H :   -0.014402
   5 H :   -0.013576
   6 H :    0.068258
   7 H :    0.023516

  Mayer bond orders larger than 0.100000
B(  0-C ,  1-O ) :   2.1463 B(  0-C ,  2-C ) :   1.1159 B(  0-C ,  4-H ) :   0.9415
B(  1-O ,  3-C ) :   0.1084 B(  2-C ,  3-C ) :   1.9096 B(  2-C ,  5-H ) :   0.9521
B(  3-C ,  6-H ) :   0.9242 B(  3-C ,  7-H ) :   0.9416

-----------------------------------------------------------------------------
         ABSORPTION SPECTRUM VIA TRANSITION ELECTRIC DIPOLE MOMENTS
-----------------------------------------------------------------------------
State   Energy    Wavelength  fosc         T2        TX        TY        TZ
        (cm-1)      (nm)                 (au**2)    (au)      (au)      (au)
-----------------------------------------------------------------------------
   1   24617.6    406.2   0.000056604   0.00076  -0.00506   0.00222   0.02695

FINAL SINGLE POINT ENERGY      -191.656478737213

DIPOLE MOMENT
-------------
                                X             Y             Z
Electronic contribution:     -1.69574      -1.33213      -0.22448
Nuclear contribution   :      2.12554       2.30350       0.32098
                        -----------------------------------------
Total Dipole Moment    :      0.42980       0.97138       0.09650
                        -----------------------------------------
Magnitude (a.u.)       :      1.06659
Magnitude (Debye)      :      2.71106

Rotational constants in cm-1:     0.751914     0.210950     0.165542
Rotational constants in MHz : 22541.825002  6324.130457  4962.835890

                             ****ORCA TERMINATED NORMALLY****
TOTAL RUN TIME: 0 days 0 hours 3 minutes 21 seconds 909 msec
