                         Program Version 5.0.3 -  RELEASE  -
|  1> ! B3LYP cc-pVDZ
|  2> !TightSCF
|  3> %scf
|  4>  ConvForced true
|  5>  convergence tight
|  6>  MaxIter 500
|  7> end
|  8>
|  9> %tddft
| 10>  nroots 1
| 11> end
| 12>
| 13> # 	24715
| 14> * xyz 0 1
| 15> 		C   -0.565424  -0.407575   0.108872
| 16> 		O   -0.591026  -1.648796  -0.054838
| 17> 		C    0.621570   0.386465  -0.085176
| 18> 		C    1.847316  -0.090522   0.023928
| 19> 		H   -1.568856   0.128187   0.166124
| 20> 		H    0.341579   1.393294  -0.174860
| 21> 		H    1.869059  -1.185865   0.194015
| 22> 		H    2.977633   0.410359   0.109442
| 23> *
| 24>
| 25>                          ****END OF INPUT****

CARTESIAN COORDINATES (ANGSTROEM)
---------------------------------
  C     -0.565424   -0.407575    0.108872
  O     -0.591026   -1.648796   -0.054838
  C      0.621570    0.386465   -0.085176
  C      1.847316   -0.090522    0.023928
  H     -1.568856    0.128187    0.166124
  H      0.341579    1.393294   -0.174860
  H      1.869059   -1.185865    0.194015
  H      2.977633    0.410359    0.109442

 Total Charge           Charge          ....    0
 Multiplicity           Mult            ....    1
 Number of Electrons    NEL             ....   30
 Basis Dimension        Dim             ....   76

ORBITAL ENERGIES
----------------

  NO   OCC          E(Eh)            E(eV)
   0   2.0000     -19.135297      -520.6979
   1   2.0000     -10.275955      -279.6229
   2   2.0000     -10.229134      -278.3489
   3   2.0000     -10.203241      -277.6443
   4   2.0000      -1.022785       -27.8314
   5   2.0000      -0.804234       -21.8843
   6   2.0000      -0.662054       -18.0154
   7   2.0000      -0.538588       -14.6557
   8   2.0000      -0.502416       -13.6714
   9   2.0000      -0.451741       -12.2925
  10   2.0000      -0.417042       -11.3483
  11   2.0000      -0.389539       -10.5999
  12   2.0000      -0.365272        -9.9396
  13   2.0000      -0.290163        -7.8957
  14   2.0000      -0.254054        -6.9132
  15   0.0000      -0.076446        -2.0802
  16   0.0000       0.044059         1.1989
  17   0.0000       0.058867         1.6019
  18   0.0000       0.082481         2.2444
  19   0.0000       0.127647         3.4735

MULLIKEN ATOMIC CHARGES
-----------------------
   0 C :    0.151883
   1 O :   -0.226414
   2 C :   -0.020272
   3 C :    0.007368
   4 H :   -0.001561
   5 H :   -0.030871
   6 H :    0.046122
   7 H :    0.073744
Sum of atomic charges:    0.0000000

LOEWDIN ATOMIC CHARGES
----------------------
   0 C :   -0.016584
   1 O :   -0.044138
   2 C :   -0.082289
   3 C :    0.015175
   4 H :    0.008517
   5 H :    0.020185
   6 H :    0.037052
   7 H :    0.062081

  Mayer bond orders larger than 0.100000
B(  0-C ,  1-O ) :   2.1202 B(  0-C ,  2-C ) :   1.0952 B(  0-C ,  4-H ) :   0.9188
B(  2-C ,  3-C ) :   1.9194 B(  2-C ,  5-H ) :   0.9509 B(  3-C ,  6-H ) :   0.9149
B(  3-C ,  7-H ) :   0.9478

-----------------------------------------------------------------------------
         ABSORPTION SPECTRUM VIA TRANSITION ELECTRIC DIPOLE MOMENTS
-----------------------------------------------------------------------------
State   Energy    Wavelength  fosc         T2        TX        TY        TZ
        (cm-1)      (nm)                 (au**2)    (au)      (au)      (au)
-----------------------------------------------------------------------------
   1   25867.0    386.6   0.000119422   0.00152   0.02493  -0.00825   0.02881

FINAL SINGLE POINT ENERGY      -191.665709394909

DIPOLE MOMENT
-------------
                                X             Y             Z
Electronic contribution:     -1.80264      -1.55265      -0.14767
Nuclear contribution   :      2.24081       2.48772       0.27624
                        -----------------------------------------
Total Dipole Moment    :      0.43817       0.93507       0.12858
                        -----------------------------------------
Magnitude (a.u.)       :      1.04062
Magnitude (Debye)      :      2.64504

Rotational constants in cm-1:     0.769060     0.206178     0.163831
Rotational constants in MHz : 23055.852511  6181.063677  4911.539143

                             ****ORCA TERMINATED NORMALLY****
TOTAL RUN TIME: 0 days 0 hours 3 minutes 20 seconds 950 msec
