                         Program Version 5.0.3 -  RELEASE  -
|  1> ! B3LYP cc-pVDZ
|  2> !TightSCF
|  3> %scf
|  4>  ConvForced true
|  5>  convergence tight
|  6>  MaxIter 500
|  7> end
|  8>
|  9> %tddft
| 10>  nroots 1
| 11> end
| 12>
| 13> # 	25979
| 14> * xyz 0 1
| 15> 		C   -0.530735  -0.476357  -0.010308
| 16> 		O   -0.656600  -1.702467  -0.001488
| 17> 		C    0.651682   0.499991  -0.038285
| 18> 		C    1.850934  -0.070176   0.009514
| 19> 		H   -1.489142  -0.077688   0.268760
| 20> 		H    0.590300   1.516292   0.069747
| 21> 		H    1.967268  -1.147324   0.063295
| 22> 		H    2.874921   0.484321   0.090430
| 23> *
| 24>
| 25>                          ****END OF INPUT****

CARTESIAN COORDINATES (ANGSTROEM)
---------------------------------
  C     -0.530735   -0.476357   -0.010308
  O     -0.656600   -1.702467   -0.001488
  C      0.651682    0.499991   -0.038285
  C      1.850934   -0.070176    0.009514
  H     -1.489142   -0.077688    0.268760
  H      0.590300    1.516292    0.069747
  H      1.967268   -1.147324    0.063295
  H      2.874921    0.484321    0.090430

 Total Charge           Charge          ....    0
 Multiplicity           Mult            ....    1
 Number of Electrons    NEL             ....   30
 Basis Dimension        Dim             ....   76

ORBITAL ENERGIES
----------------

  NO   OCC          E(Eh)            E(eV)
   0   2.0000     -19.138343      -520.7808
   1   2.0000     -10.276620      -279.6410
   2   2.0000     -10.220571      -278.1159
   3   2.0000     -10.210270      -277.8356
   4   2.0000      -1.034109       -28.1395
   5   2.0000      -0.801311       -21.8048
   6   2.0000      -0.644719       -17.5437
   7   2.0000      -0.559452       -15.2235
   8   2.0000      -0.509449       -13.8628
   9   2.0000      -0.445061       -12.1107
  10   2.0000      -0.421148       -11.4600
  11   2.0000      -0.390090       -10.6149
  12   2.0000      -0.381576       -10.3832
  13   2.0000      -0.294687        -8.0188
  14   2.0000      -0.247337        -6.7304
  15   0.0000      -0.068364        -1.8603
  16   0.0000       0.045779         1.2457
  17   0.0000       0.065215         1.7746
  18   0.0000       0.096645         2.6298
  19   0.0000       0.124432         3.3860

MULLIKEN ATOMIC CHARGES
-----------------------
   0 C :    0.197628
   1 O :   -0.209024
   2 C :   -0.062052
   3 C :    0.035022
   4 H :   -0.022035
   5 H :   -0.024921
   6 H :    0.039099
   7 H :    0.046284
Sum of atomic charges:   -0.0000000

LOEWDIN ATOMIC CHARGES
----------------------
   0 C :   -0.007506
   1 O :   -0.026584
   2 C :   -0.071269
   3 C :    0.027665
   4 H :   -0.011232
   5 H :    0.016942
   6 H :    0.028990
   7 H :    0.042994

  Mayer bond orders larger than 0.100000
B(  0-C ,  1-O ) :   2.1629 B(  0-C ,  2-C ) :   1.0026 B(  0-C ,  4-H ) :   0.9402
B(  2-C ,  3-C ) :   1.9494 B(  2-C ,  5-H ) :   0.9551 B(  3-C ,  6-H ) :   0.9397
B(  3-C ,  7-H ) :   0.9495

-----------------------------------------------------------------------------
         ABSORPTION SPECTRUM VIA TRANSITION ELECTRIC DIPOLE MOMENTS
-----------------------------------------------------------------------------
State   Energy    Wavelength  fosc         T2        TX        TY        TZ
        (cm-1)      (nm)                 (au**2)    (au)      (au)      (au)
-----------------------------------------------------------------------------
   1   26375.3    379.1   0.000141586   0.00177   0.02934   0.00365   0.02989

FINAL SINGLE POINT ENERGY      -191.662789379670

DIPOLE MOMENT
-------------
                                X             Y             Z
Electronic contribution:     -2.01998      -1.57555      -0.37966
Nuclear contribution   :      2.53708       2.51788       0.46158
                        -----------------------------------------
Total Dipole Moment    :      0.51711       0.94232       0.08192
                        -----------------------------------------
Magnitude (a.u.)       :      1.07800
Magnitude (Debye)      :      2.74006

Rotational constants in cm-1:     0.804570     0.190705     0.154474
Rotational constants in MHz : 24120.401335  5717.182179  4631.004699

                             ****ORCA TERMINATED NORMALLY****
TOTAL RUN TIME: 0 days 0 hours 3 minutes 18 seconds 317 msec
