                         Program Version 5.0.3 -  RELEASE  -
|  1> ! HF-3c
|  2> !TightSCF
|  3> %scf
|  4>  ConvForced true
|  5>  convergence tight
|  6>  MaxIter 500
|  7> end
|  8>
|  9> %tddft
| 10>  nroots 1
| 11> end
| 12>
| 13> # 	7473
| 14> * xyz 0 1
| 15> 		C   -1.223475  -0.329286  -0.068883
| 16> 		O   -2.041986  -0.586083  -0.865108
| 17> 		C    0.002438   0.454513  -0.290076
| 18> 		C    1.206146   0.066817   0.246093
| 19> 		H   -1.401730  -0.922734   0.903849
| 20> 		H    0.021939   1.466185  -1.004381
| 21> 		H    1.301680  -0.801516   0.954976
| 22> 		H    2.166974   0.629852   0.131612
| 23> *
| 24>
| 25>                          ****END OF INPUT****

CARTESIAN COORDINATES (ANGSTROEM)
---------------------------------
  C     -1.223475   -0.329286   -0.068883
  O     -2.041986   -0.586083   -0.865108
  C      0.002438    0.454513   -0.290076
  C      1.206146    0.066817    0.246093
  H     -1.401730   -0.922734    0.903849
  H      0.021939    1.466185   -1.004381
  H      1.301680   -0.801516    0.954976
  H      2.166974    0.629852    0.131612

 Total Charge           Charge          ....    0
 Multiplicity           Mult            ....    1
 Number of Electrons    NEL             ....   30
 Basis Dimension        Dim             ....   24

ORBITAL ENERGIES
----------------

  NO   OCC          E(Eh)            E(eV)
   0   2.0000     -20.370902      -554.3204
   1   2.0000     -11.303072      -307.5722
   2   2.0000     -11.187759      -304.4344
   3   2.0000     -11.181964      -304.2767
   4   2.0000      -1.430793       -38.9339
   5   2.0000      -1.058602       -28.8060
   6   2.0000      -0.863409       -23.4945
   7   2.0000      -0.754965       -20.5436
   8   2.0000      -0.665367       -18.1056
   9   2.0000      -0.633360       -17.2346
  10   2.0000      -0.581286       -15.8176
  11   2.0000      -0.543793       -14.7974
  12   2.0000      -0.510635       -13.8951
  13   2.0000      -0.401934       -10.9372
  14   2.0000      -0.383984       -10.4487
  15   0.0000       0.146554         3.9879
  16   0.0000       0.286168         7.7870
  17   0.0000       0.479377        13.0445
  18   0.0000       0.550841        14.9892
  19   0.0000       0.619511        16.8578

MULLIKEN ATOMIC CHARGES
-----------------------
   0 C :    0.167538
   1 O :   -0.357712
   2 C :   -0.156101
   3 C :   -0.223564
   4 H :    0.134942
   5 H :    0.158917
   6 H :    0.135024
   7 H :    0.140956
Sum of atomic charges:    0.0000000

LOEWDIN ATOMIC CHARGES
----------------------
   0 C :    0.136929
   1 O :   -0.250309
   2 C :   -0.125885
   3 C :   -0.133819
   4 H :    0.074194
   5 H :    0.116716
   6 H :    0.088727
   7 H :    0.093447

  Mayer bond orders larger than 0.100000
B(  0-C ,  1-O ) :   1.9146 B(  0-C ,  2-C ) :   1.0169 B(  0-C ,  4-H ) :   0.9159
B(  2-C ,  3-C ) :   1.9573 B(  2-C ,  5-H ) :   0.9447 B(  3-C ,  6-H ) :   0.9649
B(  3-C ,  7-H ) :   0.9651

-----------------------------------------------------------------------------
         ABSORPTION SPECTRUM VIA TRANSITION ELECTRIC DIPOLE MOMENTS
-----------------------------------------------------------------------------
State   Energy    Wavelength  fosc         T2        TX        TY        TZ
        (cm-1)      (nm)                 (au**2)    (au)      (au)      (au)
-----------------------------------------------------------------------------
   1   34532.0    289.6   0.000063096   0.00060  -0.01161  -0.01941   0.00949

Dispersion correction           -0.024543609
FINAL SINGLE POINT ENERGY      -189.302600593982

DIPOLE MOMENT
-------------
                                X             Y             Z
Electronic contribution:     -3.08659      -0.51441      -1.25991
Nuclear contribution   :      3.99545       0.79006       1.86671
                        -----------------------------------------
Total Dipole Moment    :      0.90886       0.27565       0.60680
                        -----------------------------------------
Magnitude (a.u.)       :      1.12704
Magnitude (Debye)      :      2.86471

Rotational constants in cm-1:     1.317484     0.154942     0.144121
Rotational constants in MHz : 39497.176523  4645.048099  4320.633380

                             ****ORCA TERMINATED NORMALLY****
TOTAL RUN TIME: 0 days 0 hours 0 minutes 12 seconds 487 msec
