                         Program Version 5.0.3 -  RELEASE  -
|  1> ! B3LYP cc-pVDZ
|  2> !TightSCF
|  3> %scf
|  4>  ConvForced true
|  5>  convergence tight
|  6>  MaxIter 500
|  7> end
|  8>
|  9> %tddft
| 10>  nroots 1
| 11> end
| 12>
| 13> # 	12099
| 14> * xyz 0 1
| 15> 		C   -1.193432  -0.303162   0.016084
| 16> 		O   -2.171998  -0.087573   0.641072
| 17> 		C    0.090098   0.339953   0.419664
| 18> 		C    1.206753   0.125147  -0.393248
| 19> 		H   -0.975993  -1.086391  -0.761798
| 20> 		H   -0.070857   1.087092   1.264897
| 21> 		H    1.157549  -0.731701  -1.152185
| 22> 		H    1.937007   0.712566  -0.019387
| 23> *
| 24>
| 25>                          ****END OF INPUT****

CARTESIAN COORDINATES (ANGSTROEM)
---------------------------------
  C     -1.193432   -0.303162    0.016084
  O     -2.171998   -0.087573    0.641072
  C      0.090098    0.339953    0.419664
  C      1.206753    0.125147   -0.393248
  H     -0.975993   -1.086391   -0.761798
  H     -0.070857    1.087092    1.264897
  H      1.157549   -0.731701   -1.152185
  H      1.937007    0.712566   -0.019387

 Total Charge           Charge          ....    0
 Multiplicity           Mult            ....    1
 Number of Electrons    NEL             ....   30
 Basis Dimension        Dim             ....   76

ORBITAL ENERGIES
----------------

  NO   OCC          E(Eh)            E(eV)
   0   2.0000     -19.140111      -520.8289
   1   2.0000     -10.271967      -279.5144
   2   2.0000     -10.220589      -278.1164
   3   2.0000     -10.210697      -277.8472
   4   2.0000      -1.064389       -28.9635
   5   2.0000      -0.791568       -21.5397
   6   2.0000      -0.645476       -17.5643
   7   2.0000      -0.564449       -15.3594
   8   2.0000      -0.479753       -13.0547
   9   2.0000      -0.459993       -12.5171
  10   2.0000      -0.415165       -11.2972
  11   2.0000      -0.406433       -11.0596
  12   2.0000      -0.397947       -10.8287
  13   2.0000      -0.284507        -7.7418
  14   2.0000      -0.252775        -6.8784
  15   0.0000      -0.065332        -1.7778
  16   0.0000       0.041597         1.1319
  17   0.0000       0.060624         1.6497
  18   0.0000       0.082752         2.2518
  19   0.0000       0.124146         3.3782

MULLIKEN ATOMIC CHARGES
-----------------------
   0 C :    0.172402
   1 O :   -0.169425
   2 C :   -0.134731
   3 C :    0.077166
   4 H :   -0.032980
   5 H :    0.020440
   6 H :    0.056574
   7 H :    0.010554
Sum of atomic charges:   -0.0000000

LOEWDIN ATOMIC CHARGES
----------------------
   0 C :   -0.068616
   1 O :    0.030379
   2 C :   -0.050777
   3 C :    0.001703
   4 H :   -0.010868
   5 H :    0.038165
   6 H :    0.049255
   7 H :    0.010758

  Mayer bond orders larger than 0.100000
B(  0-C ,  1-O ) :   2.1959 B(  0-C ,  2-C ) :   1.0856 B(  0-C ,  4-H ) :   0.9013
B(  2-C ,  3-C ) :   1.8889 B(  2-C ,  5-H ) :   0.9453 B(  3-C ,  6-H ) :   0.9356
B(  3-C ,  7-H ) :   0.9375

-----------------------------------------------------------------------------
         ABSORPTION SPECTRUM VIA TRANSITION ELECTRIC DIPOLE MOMENTS
-----------------------------------------------------------------------------
State   Energy    Wavelength  fosc         T2        TX        TY        TZ
        (cm-1)      (nm)                 (au**2)    (au)      (au)      (au)
-----------------------------------------------------------------------------
   1   28829.7    346.9   0.000246592   0.00282  -0.01760  -0.04922  -0.00917

FINAL SINGLE POINT ENERGY      -191.650030598586

DIPOLE MOMENT
-------------
                                X             Y             Z
Electronic contribution:     -3.06082       0.00907       0.92893
Nuclear contribution   :      4.00199      -0.05389      -1.29592
                        -----------------------------------------
Total Dipole Moment    :      0.94117      -0.04482      -0.36700
                        -----------------------------------------
Magnitude (a.u.)       :      1.01118
Magnitude (Debye)      :      2.57023

Rotational constants in cm-1:     1.432444     0.159850     0.144029
Rotational constants in MHz : 42943.580433  4792.178451  4317.895571

                             ****ORCA TERMINATED NORMALLY****
TOTAL RUN TIME: 0 days 0 hours 3 minutes 27 seconds 122 msec
