                         Program Version 5.0.3 -  RELEASE  -
|  1> ! B3LYP cc-pVDZ
|  2> !TightSCF
|  3> %scf
|  4>  ConvForced true
|  5>  convergence tight
|  6>  MaxIter 500
|  7> end
|  8>
|  9> %tddft
| 10>  nroots 1
| 11> end
| 12>
| 13> # 	16758
| 14> * xyz 0 1
| 15> 		C   -1.233949  -0.415301   0.025526
| 16> 		O   -2.220675  -0.454695  -0.558576
| 17> 		C    0.021068   0.400478  -0.426937
| 18> 		C    1.183073   0.109555   0.193943
| 19> 		H   -1.078495  -0.959343   0.953474
| 20> 		H   -0.029642   1.110158  -1.107910
| 21> 		H    1.336105  -0.690964   0.872070
| 22> 		H    2.002683   0.857301   0.122678
| 23> *
| 24>
| 25>                          ****END OF INPUT****

CARTESIAN COORDINATES (ANGSTROEM)
---------------------------------
  C     -1.233949   -0.415301    0.025526
  O     -2.220675   -0.454695   -0.558576
  C      0.021068    0.400478   -0.426937
  C      1.183073    0.109555    0.193943
  H     -1.078495   -0.959343    0.953474
  H     -0.029642    1.110158   -1.107910
  H      1.336105   -0.690964    0.872070
  H      2.002683    0.857301    0.122678

 Total Charge           Charge          ....    0
 Multiplicity           Mult            ....    1
 Number of Electrons    NEL             ....   30
 Basis Dimension        Dim             ....   76

ORBITAL ENERGIES
----------------

  NO   OCC          E(Eh)            E(eV)
   0   2.0000     -19.140460      -520.8384
   1   2.0000     -10.273379      -279.5529
   2   2.0000     -10.209589      -277.8170
   3   2.0000     -10.196654      -277.4651
   4   2.0000      -1.084386       -29.5076
   5   2.0000      -0.791873       -21.5480
   6   2.0000      -0.629714       -17.1354
   7   2.0000      -0.586072       -15.9478
   8   2.0000      -0.486017       -13.2252
   9   2.0000      -0.467817       -12.7300
  10   2.0000      -0.431561       -11.7434
  11   2.0000      -0.414292       -11.2735
  12   2.0000      -0.399871       -10.8810
  13   2.0000      -0.286535        -7.7970
  14   2.0000      -0.252179        -6.8621
  15   0.0000      -0.052627        -1.4321
  16   0.0000       0.045334         1.2336
  17   0.0000       0.078653         2.1403
  18   0.0000       0.093506         2.5444
  19   0.0000       0.127588         3.4719

MULLIKEN ATOMIC CHARGES
-----------------------
   0 C :    0.181633
   1 O :   -0.134492
   2 C :   -0.040677
   3 C :    0.030189
   4 H :   -0.038715
   5 H :   -0.049135
   6 H :    0.016169
   7 H :    0.035027
Sum of atomic charges:   -0.0000000

LOEWDIN ATOMIC CHARGES
----------------------
   0 C :   -0.062690
   1 O :    0.064107
   2 C :   -0.033835
   3 C :   -0.001388
   4 H :   -0.015520
   5 H :   -0.003443
   6 H :    0.017038
   7 H :    0.035732

  Mayer bond orders larger than 0.100000
B(  0-C ,  1-O ) :   2.2647 B(  0-C ,  2-C ) :   1.0045 B(  0-C ,  4-H ) :   0.9112
B(  2-C ,  3-C ) :   1.9689 B(  2-C ,  5-H ) :   0.9569 B(  3-C ,  6-H ) :   0.9492
B(  3-C ,  7-H ) :   0.9439

-----------------------------------------------------------------------------
         ABSORPTION SPECTRUM VIA TRANSITION ELECTRIC DIPOLE MOMENTS
-----------------------------------------------------------------------------
State   Energy    Wavelength  fosc         T2        TX        TY        TZ
        (cm-1)      (nm)                 (au**2)    (au)      (au)      (au)
-----------------------------------------------------------------------------
   1   31538.5    317.1   0.000400938   0.00419  -0.03682   0.03098  -0.04324

FINAL SINGLE POINT ENERGY      -191.641812273108

DIPOLE MOMENT
-------------
                                X             Y             Z
Electronic contribution:     -3.46586      -0.52955      -1.11411
Nuclear contribution   :      4.32038       0.68173       1.49118
                        -----------------------------------------
Total Dipole Moment    :      0.85452       0.15219       0.37706
                        -----------------------------------------
Magnitude (a.u.)       :      0.94633
Magnitude (Debye)      :      2.40538

Rotational constants in cm-1:     1.498389     0.154931     0.141367
Rotational constants in MHz : 44920.565799  4644.709446  4238.076203

                             ****ORCA TERMINATED NORMALLY****
TOTAL RUN TIME: 0 days 0 hours 3 minutes 15 seconds 653 msec
