                         Program Version 5.0.3 -  RELEASE  -
|  1> ! B3LYP cc-pVDZ
|  2> !TightSCF
|  3> %scf
|  4>  ConvForced true
|  5>  convergence tight
|  6>  MaxIter 500
|  7> end
|  8>
|  9> %tddft
| 10>  nroots 1
| 11> end
| 12>
| 13> # 	26811
| 14> * xyz 0 1
| 15> 		C   -0.599021  -0.418966  -0.012251
| 16> 		O   -0.522253  -1.611644   0.006280
| 17> 		C    0.564173   0.458883   0.000808
| 18> 		C    1.851968  -0.184134   0.008253
| 19> 		H   -1.502693   0.024014   0.000145
| 20> 		H    0.393654   1.492333   0.040324
| 21> 		H    1.667090  -1.308247  -0.060550
| 22> 		H    2.989506   0.314386  -0.041054
| 23> *
| 24>
| 25>                          ****END OF INPUT****

CARTESIAN COORDINATES (ANGSTROEM)
---------------------------------
  C     -0.599021   -0.418966   -0.012251
  O     -0.522253   -1.611644    0.006280
  C      0.564173    0.458883    0.000808
  C      1.851968   -0.184134    0.008253
  H     -1.502693    0.024014    0.000145
  H      0.393654    1.492333    0.040324
  H      1.667090   -1.308247   -0.060550
  H      2.989506    0.314386   -0.041054

 Total Charge           Charge          ....    0
 Multiplicity           Mult            ....    1
 Number of Electrons    NEL             ....   30
 Basis Dimension        Dim             ....   76

ORBITAL ENERGIES
----------------

  NO   OCC          E(Eh)            E(eV)
   0   2.0000     -19.130758      -520.5744
   1   2.0000     -10.260161      -279.1932
   2   2.0000     -10.239586      -278.6333
   3   2.0000     -10.207100      -277.7493
   4   2.0000      -1.052695       -28.6453
   5   2.0000      -0.776391       -21.1267
   6   2.0000      -0.656126       -17.8541
   7   2.0000      -0.548289       -14.9197
   8   2.0000      -0.507441       -13.8082
   9   2.0000      -0.439602       -11.9622
  10   2.0000      -0.413920       -11.2633
  11   2.0000      -0.401494       -10.9252
  12   2.0000      -0.374664       -10.1951
  13   2.0000      -0.271943        -7.3999
  14   2.0000      -0.255351        -6.9485
  15   0.0000      -0.077344        -2.1046
  16   0.0000       0.054398         1.4802
  17   0.0000       0.059837         1.6283
  18   0.0000       0.089448         2.4340
  19   0.0000       0.131490         3.5780

MULLIKEN ATOMIC CHARGES
-----------------------
   0 C :    0.247718
   1 O :   -0.197477
   2 C :   -0.096903
   3 C :   -0.025358
   4 H :   -0.052006
   5 H :   -0.026207
   6 H :    0.069844
   7 H :    0.080389
Sum of atomic charges:   -0.0000000

LOEWDIN ATOMIC CHARGES
----------------------
   0 C :   -0.041693
   1 O :    0.006956
   2 C :   -0.071946
   3 C :    0.013791
   4 H :   -0.019523
   5 H :    0.010549
   6 H :    0.041663
   7 H :    0.060202

  Mayer bond orders larger than 0.100000
B(  0-C ,  1-O ) :   2.1594 B(  0-C ,  2-C ) :   1.0894 B(  0-C ,  4-H ) :   0.9384
B(  2-C ,  3-C ) :   1.8838 B(  2-C ,  5-H ) :   0.9602 B(  3-C ,  6-H ) :   0.9107
B(  3-C ,  7-H ) :   0.9437

-----------------------------------------------------------------------------
         ABSORPTION SPECTRUM VIA TRANSITION ELECTRIC DIPOLE MOMENTS
-----------------------------------------------------------------------------
State   Energy    Wavelength  fosc         T2        TX        TY        TZ
        (cm-1)      (nm)                 (au**2)    (au)      (au)      (au)
-----------------------------------------------------------------------------
   1   26679.3    374.8   0.000065299   0.00081  -0.01540  -0.00005  -0.02385

FINAL SINGLE POINT ENERGY      -191.650940305254

DIPOLE MOMENT
-------------
                                X             Y             Z
Electronic contribution:     -1.86703      -1.40818       0.03368
Nuclear contribution   :      2.17503       2.28009      -0.05730
                        -----------------------------------------
Total Dipole Moment    :      0.30800       0.87191      -0.02361
                        -----------------------------------------
Magnitude (a.u.)       :      0.92501
Magnitude (Debye)      :      2.35120

Rotational constants in cm-1:     0.701667     0.220580     0.167857
Rotational constants in MHz : 21035.459078  6612.825220  5032.222284

                             ****ORCA TERMINATED NORMALLY****
TOTAL RUN TIME: 0 days 0 hours 3 minutes 25 seconds 650 msec
