                         Program Version 5.0.3 -  RELEASE  -
|  1> ! B3LYP cc-pVDZ
|  2> !TightSCF
|  3> %scf
|  4>  ConvForced true
|  5>  convergence tight
|  6>  MaxIter 500
|  7> end
|  8>
|  9> %tddft
| 10>  nroots 1
| 11> end
| 12>
| 13> # 	898
| 14> * xyz 0 1
| 15> 		C   -1.213869  -0.352638  -0.008176
| 16> 		O   -2.149419  -0.493128   0.806154
| 17> 		C    0.040103   0.279315   0.349719
| 18> 		C    1.136670   0.189036  -0.371568
| 19> 		H   -1.053689  -0.983775  -0.929731
| 20> 		H   -0.015110   1.114970   1.202062
| 21> 		H    1.176997  -0.559943  -1.003122
| 22> 		H    2.089123   0.785046  -0.077566
| 23> *
| 24>
| 25>                          ****END OF INPUT****

CARTESIAN COORDINATES (ANGSTROEM)
---------------------------------
  C     -1.213869   -0.352638   -0.008176
  O     -2.149419   -0.493128    0.806154
  C      0.040103    0.279315    0.349719
  C      1.136670    0.189036   -0.371568
  H     -1.053689   -0.983775   -0.929731
  H     -0.015110    1.114970    1.202062
  H      1.176997   -0.559943   -1.003122
  H      2.089123    0.785046   -0.077566

 Total Charge           Charge          ....    0
 Multiplicity           Mult            ....    1
 Number of Electrons    NEL             ....   30
 Basis Dimension        Dim             ....   76

ORBITAL ENERGIES
----------------

  NO   OCC          E(Eh)            E(eV)
   0   2.0000     -19.144213      -520.9405
   1   2.0000     -10.280966      -279.7593
   2   2.0000     -10.213865      -277.9334
   3   2.0000     -10.212258      -277.8897
   4   2.0000      -1.029306       -28.0088
   5   2.0000      -0.815285       -22.1850
   6   2.0000      -0.656780       -17.8719
   7   2.0000      -0.567143       -15.4327
   8   2.0000      -0.480467       -13.0742
   9   2.0000      -0.468660       -12.7529
  10   2.0000      -0.417146       -11.3511
  11   2.0000      -0.394145       -10.7252
  12   2.0000      -0.376394       -10.2422
  13   2.0000      -0.296481        -8.0676
  14   2.0000      -0.258786        -7.0419
  15   0.0000      -0.077124        -2.0986
  16   0.0000       0.037139         1.0106
  17   0.0000       0.062116         1.6903
  18   0.0000       0.074429         2.0253
  19   0.0000       0.129608         3.5268

MULLIKEN ATOMIC CHARGES
-----------------------
   0 C :    0.184818
   1 O :   -0.216358
   2 C :   -0.121983
   3 C :    0.101899
   4 H :   -0.014348
   5 H :    0.026472
   6 H :   -0.016627
   7 H :    0.056128
Sum of atomic charges:    0.0000000

LOEWDIN ATOMIC CHARGES
----------------------
   0 C :   -0.025477
   1 O :   -0.025087
   2 C :   -0.062819
   3 C :    0.013505
   4 H :    0.000559
   5 H :    0.047939
   6 H :   -0.004182
   7 H :    0.055564

  Mayer bond orders larger than 0.100000
B(  0-C ,  1-O ) :   2.1099 B(  0-C ,  2-C ) :   1.1000 B(  0-C ,  4-H ) :   0.9137
B(  1-O ,  3-C ) :   0.1013 B(  2-C ,  3-C ) :   1.9330 B(  2-C ,  5-H ) :   0.9358
B(  3-C ,  6-H ) :   0.9266 B(  3-C ,  7-H ) :   0.9372

-----------------------------------------------------------------------------
         ABSORPTION SPECTRUM VIA TRANSITION ELECTRIC DIPOLE MOMENTS
-----------------------------------------------------------------------------
State   Energy    Wavelength  fosc         T2        TX        TY        TZ
        (cm-1)      (nm)                 (au**2)    (au)      (au)      (au)
-----------------------------------------------------------------------------
   1   26550.1    376.6   0.000329790   0.00409  -0.02406   0.04987   0.03200

FINAL SINGLE POINT ENERGY      -191.658061438064

DIPOLE MOMENT
-------------
                                X             Y             Z
Electronic contribution:     -3.18063      -0.54861       0.98618
Nuclear contribution   :      4.22169       0.73962      -1.53419
                        -----------------------------------------
Total Dipole Moment    :      1.04107       0.19101      -0.54801
                        -----------------------------------------
Magnitude (a.u.)       :      1.19190
Magnitude (Debye)      :      3.02957

Rotational constants in cm-1:     1.578942     0.155215     0.142591
Rotational constants in MHz : 47335.490572  4653.231859  4274.769857

                             ****ORCA TERMINATED NORMALLY****
TOTAL RUN TIME: 0 days 0 hours 3 minutes 19 seconds 428 msec
