                         Program Version 5.0.3 -  RELEASE  -
|  1> ! HF-3c
|  2> !TightSCF
|  3> %scf
|  4>  ConvForced true
|  5>  convergence tight
|  6>  MaxIter 500
|  7> end
|  8>
|  9> %tddft
| 10>  nroots 1
| 11> end
| 12>
| 13> # 	30874
| 14> * xyz 0 1
| 15> 		C   -0.638833  -0.448357  -0.002501
| 16> 		O   -0.582585  -1.622035   0.004258
| 17> 		C    0.664860   0.363603   0.002049
| 18> 		C    1.868980  -0.073530   0.016301
| 19> 		H   -1.558301   0.166027  -0.074203
| 20> 		H    0.389522   1.494915   0.023114
| 21> 		H    2.009238  -1.205842  -0.116925
| 22> 		H    2.759383   0.443936  -0.089385
| 23> *
| 24>
| 25>                          ****END OF INPUT****

CARTESIAN COORDINATES (ANGSTROEM)
---------------------------------
  C     -0.638833   -0.448357   -0.002501
  O     -0.582585   -1.622035    0.004258
  C      0.664860    0.363603    0.002049
  C      1.868980   -0.073530    0.016301
  H     -1.558301    0.166027   -0.074203
  H      0.389522    1.494915    0.023114
  H      2.009238   -1.205842   -0.116925
  H      2.759383    0.443936   -0.089385

 Total Charge           Charge          ....    0
 Multiplicity           Mult            ....    1
 Number of Electrons    NEL             ....   30
 Basis Dimension        Dim             ....   24

ORBITAL ENERGIES
----------------

  NO   OCC          E(Eh)            E(eV)
   0   2.0000     -20.386189      -554.7364
   1   2.0000     -11.309414      -307.7448
   2   2.0000     -11.183573      -304.3205
   3   2.0000     -11.182791      -304.2992
   4   2.0000      -1.435339       -39.0576
   5   2.0000      -1.074763       -29.2458
   6   2.0000      -0.886686       -24.1280
   7   2.0000      -0.751002       -20.4358
   8   2.0000      -0.689181       -18.7536
   9   2.0000      -0.630370       -17.1533
  10   2.0000      -0.610220       -16.6049
  11   2.0000      -0.558341       -15.1932
  12   2.0000      -0.504976       -13.7411
  13   2.0000      -0.408228       -11.1085
  14   2.0000      -0.407869       -11.0987
  15   0.0000       0.149391         4.0651
  16   0.0000       0.320034         8.7086
  17   0.0000       0.481490        13.1020
  18   0.0000       0.597595        16.2614
  19   0.0000       0.654473        17.8091

MULLIKEN ATOMIC CHARGES
-----------------------
   0 C :    0.181589
   1 O :   -0.352164
   2 C :   -0.155459
   3 C :   -0.247522
   4 H :    0.141781
   5 H :    0.129856
   6 H :    0.155327
   7 H :    0.146592
Sum of atomic charges:   -0.0000000

LOEWDIN ATOMIC CHARGES
----------------------
   0 C :    0.151140
   1 O :   -0.242797
   2 C :   -0.119877
   3 C :   -0.150133
   4 H :    0.076943
   5 H :    0.085365
   6 H :    0.107249
   7 H :    0.092109

  Mayer bond orders larger than 0.100000
B(  0-C ,  1-O ) :   1.9348 B(  0-C ,  2-C ) :   0.9825 B(  0-C ,  4-H ) :   0.9188
B(  2-C ,  3-C ) :   1.9879 B(  2-C ,  5-H ) :   0.9549 B(  3-C ,  6-H ) :   0.9501
B(  3-C ,  7-H ) :   0.9626

-----------------------------------------------------------------------------
         ABSORPTION SPECTRUM VIA TRANSITION ELECTRIC DIPOLE MOMENTS
-----------------------------------------------------------------------------
State   Energy    Wavelength  fosc         T2        TX        TY        TZ
        (cm-1)      (nm)                 (au**2)    (au)      (au)      (au)
-----------------------------------------------------------------------------
   1   34574.3    289.2   0.000037127   0.00035   0.01736  -0.00178  -0.00701

Dispersion correction           -0.025467095
FINAL SINGLE POINT ENERGY      -189.320115122288

DIPOLE MOMENT
-------------
                                X             Y             Z
Electronic contribution:     -2.11317      -1.76572       0.17339
Nuclear contribution   :      2.22165       2.63022      -0.24136
                        -----------------------------------------
Total Dipole Moment    :      0.10848       0.86451      -0.06796
                        -----------------------------------------
Magnitude (a.u.)       :      0.87393
Magnitude (Debye)      :      2.22136

Rotational constants in cm-1:     0.799867     0.203380     0.162249
Rotational constants in MHz : 23979.422758  6097.189932  4864.104502

                             ****ORCA TERMINATED NORMALLY****
TOTAL RUN TIME: 0 days 0 hours 0 minutes 11 seconds 596 msec
