                         Program Version 5.0.3 -  RELEASE  -
|  1> ! HF-3c
|  2> !TightSCF
|  3> %scf
|  4>  ConvForced true
|  5>  convergence tight
|  6>  MaxIter 500
|  7> end
|  8>
|  9> %tddft
| 10>  nroots 1
| 11> end
| 12>
| 13> # 	9630
| 14> * xyz 0 1
| 15> 		C   -1.243463  -0.311956  -0.002426
| 16> 		O   -1.822193  -0.887831  -0.885845
| 17> 		C   -0.000951   0.506565  -0.248369
| 18> 		C    1.171409   0.054218   0.165131
| 19> 		H   -1.424170  -0.507908   1.064365
| 20> 		H    0.040172   1.389147  -0.979057
| 21> 		H    1.184954  -0.839938   0.861752
| 22> 		H    2.161089   0.539424   0.066813
| 23> *
| 24>
| 25>                          ****END OF INPUT****

CARTESIAN COORDINATES (ANGSTROEM)
---------------------------------
  C     -1.243463   -0.311956   -0.002426
  O     -1.822193   -0.887831   -0.885845
  C     -0.000951    0.506565   -0.248369
  C      1.171409    0.054218    0.165131
  H     -1.424170   -0.507908    1.064365
  H      0.040172    1.389147   -0.979057
  H      1.184954   -0.839938    0.861752
  H      2.161089    0.539424    0.066813

 Total Charge           Charge          ....    0
 Multiplicity           Mult            ....    1
 Number of Electrons    NEL             ....   30
 Basis Dimension        Dim             ....   24

ORBITAL ENERGIES
----------------

  NO   OCC          E(Eh)            E(eV)
   0   2.0000     -20.383294      -554.6576
   1   2.0000     -11.307428      -307.6907
   2   2.0000     -11.185405      -304.3703
   3   2.0000     -11.176968      -304.1408
   4   2.0000      -1.415617       -38.5209
   5   2.0000      -1.075486       -29.2655
   6   2.0000      -0.871496       -23.7146
   7   2.0000      -0.766017       -20.8444
   8   2.0000      -0.669021       -18.2050
   9   2.0000      -0.641808       -17.4645
  10   2.0000      -0.599535       -16.3142
  11   2.0000      -0.533092       -14.5062
  12   2.0000      -0.509768       -13.8715
  13   2.0000      -0.414630       -11.2827
  14   2.0000      -0.399967       -10.8837
  15   0.0000       0.164882         4.4867
  16   0.0000       0.249251         6.7825
  17   0.0000       0.540601        14.7105
  18   0.0000       0.567356        15.4385
  19   0.0000       0.644470        17.5369

MULLIKEN ATOMIC CHARGES
-----------------------
   0 C :    0.174235
   1 O :   -0.341315
   2 C :   -0.166420
   3 C :   -0.235585
   4 H :    0.141635
   5 H :    0.155101
   6 H :    0.128865
   7 H :    0.143484
Sum of atomic charges:   -0.0000000

LOEWDIN ATOMIC CHARGES
----------------------
   0 C :    0.155361
   1 O :   -0.242437
   2 C :   -0.126209
   3 C :   -0.148508
   4 H :    0.076322
   5 H :    0.106432
   6 H :    0.084446
   7 H :    0.094594

  Mayer bond orders larger than 0.100000
B(  0-C ,  1-O ) :   1.9452 B(  0-C ,  2-C ) :   0.9846 B(  0-C ,  4-H ) :   0.9196
B(  2-C ,  3-C ) :   1.9913 B(  2-C ,  5-H ) :   0.9472 B(  3-C ,  6-H ) :   0.9641
B(  3-C ,  7-H ) :   0.9628

-----------------------------------------------------------------------------
         ABSORPTION SPECTRUM VIA TRANSITION ELECTRIC DIPOLE MOMENTS
-----------------------------------------------------------------------------
State   Energy    Wavelength  fosc         T2        TX        TY        TZ
        (cm-1)      (nm)                 (au**2)    (au)      (au)      (au)
-----------------------------------------------------------------------------
   1   34578.5    289.2   0.000036958   0.00035  -0.00247  -0.00404   0.01815

Dispersion correction           -0.025178428
FINAL SINGLE POINT ENERGY      -189.322683963204

DIPOLE MOMENT
-------------
                                X             Y             Z
Electronic contribution:     -3.05890      -0.81664      -1.22230
Nuclear contribution   :      3.69891       1.24605       1.89096
                        -----------------------------------------
Total Dipole Moment    :      0.64001       0.42942       0.66866
                        -----------------------------------------
Magnitude (a.u.)       :      1.02035
Magnitude (Debye)      :      2.59353

Rotational constants in cm-1:     1.070894     0.162289     0.157577
Rotational constants in MHz : 32104.588418  4865.290832  4724.046942

                             ****ORCA TERMINATED NORMALLY****
TOTAL RUN TIME: 0 days 0 hours 0 minutes 16 seconds 109 msec
