                         Program Version 5.0.3 -  RELEASE  -
|  1> ! HF-3c
|  2> !TightSCF
|  3> %scf
|  4>  ConvForced true
|  5>  convergence tight
|  6>  MaxIter 500
|  7> end
|  8>
|  9> %tddft
| 10>  nroots 1
| 11> end
| 12>
| 13> # 	19023
| 14> * xyz 0 1
| 15> 		C   -1.223148  -0.352697  -0.043362
| 16> 		O   -1.261218  -1.464121   0.379658
| 17> 		C    0.013144   0.549016   0.107899
| 18> 		C    1.239138  -0.032879  -0.117957
| 19> 		H   -2.095988   0.097989  -0.559294
| 20> 		H   -0.071245   1.633652   0.354299
| 21> 		H    1.285397  -1.121757  -0.187705
| 22> 		H    2.124776   0.691487   0.044174
| 23> *
| 24>
| 25>                          ****END OF INPUT****

CARTESIAN COORDINATES (ANGSTROEM)
---------------------------------
  C     -1.223148   -0.352697   -0.043362
  O     -1.261218   -1.464121    0.379658
  C      0.013144    0.549016    0.107899
  C      1.239138   -0.032879   -0.117957
  H     -2.095988    0.097989   -0.559294
  H     -0.071245    1.633652    0.354299
  H      1.285397   -1.121757   -0.187705
  H      2.124776    0.691487    0.044174

 Total Charge           Charge          ....    0
 Multiplicity           Mult            ....    1
 Number of Electrons    NEL             ....   30
 Basis Dimension        Dim             ....   24

ORBITAL ENERGIES
----------------

  NO   OCC          E(Eh)            E(eV)
   0   2.0000     -20.374614      -554.4214
   1   2.0000     -11.300363      -307.4985
   2   2.0000     -11.175140      -304.0910
   3   2.0000     -11.173490      -304.0461
   4   2.0000      -1.418663       -38.6038
   5   2.0000      -1.051737       -28.6192
   6   2.0000      -0.866521       -23.5792
   7   2.0000      -0.742018       -20.1913
   8   2.0000      -0.694373       -18.8948
   9   2.0000      -0.609513       -16.5857
  10   2.0000      -0.583134       -15.8679
  11   2.0000      -0.542352       -14.7581
  12   2.0000      -0.523531       -14.2460
  13   2.0000      -0.405995       -11.0477
  14   2.0000      -0.381296       -10.3756
  15   0.0000       0.154593         4.2067
  16   0.0000       0.267464         7.2781
  17   0.0000       0.539905        14.6916
  18   0.0000       0.567976        15.4554
  19   0.0000       0.618206        16.8222

MULLIKEN ATOMIC CHARGES
-----------------------
   0 C :    0.174160
   1 O :   -0.357410
   2 C :   -0.165353
   3 C :   -0.228187
   4 H :    0.135442
   5 H :    0.141481
   6 H :    0.155058
   7 H :    0.144810
Sum of atomic charges:   -0.0000000

LOEWDIN ATOMIC CHARGES
----------------------
   0 C :    0.150545
   1 O :   -0.254261
   2 C :   -0.127521
   3 C :   -0.137221
   4 H :    0.071859
   5 H :    0.093062
   6 H :    0.102964
   7 H :    0.100572

  Mayer bond orders larger than 0.100000
B(  0-C ,  1-O ) :   1.9337 B(  0-C ,  2-C ) :   0.9892 B(  0-C ,  4-H ) :   0.9194
B(  2-C ,  3-C ) :   1.9659 B(  2-C ,  5-H ) :   0.9598 B(  3-C ,  6-H ) :   0.9607
B(  3-C ,  7-H ) :   0.9626

-----------------------------------------------------------------------------
         ABSORPTION SPECTRUM VIA TRANSITION ELECTRIC DIPOLE MOMENTS
-----------------------------------------------------------------------------
State   Energy    Wavelength  fosc         T2        TX        TY        TZ
        (cm-1)      (nm)                 (au**2)    (au)      (au)      (au)
-----------------------------------------------------------------------------
   1   35216.9    284.0   0.000003145   0.00003   0.00106   0.00154  -0.00509

Dispersion correction           -0.025219523
FINAL SINGLE POINT ENERGY      -189.320085513654

DIPOLE MOMENT
-------------
                                X             Y             Z
Electronic contribution:     -2.11472      -1.66655       0.37259
Nuclear contribution   :      2.39571       2.55331      -0.66282
                        -----------------------------------------
Total Dipole Moment    :      0.28099       0.88676      -0.29023
                        -----------------------------------------
Magnitude (a.u.)       :      0.97444
Magnitude (Debye)      :      2.47683

Rotational constants in cm-1:     0.758039     0.197958     0.162259
Rotational constants in MHz : 22725.428208  5934.628209  4864.394958

                             ****ORCA TERMINATED NORMALLY****
TOTAL RUN TIME: 0 days 0 hours 0 minutes 16 seconds 41 msec
