                         Program Version 5.0.3 -  RELEASE  -
|  1> ! HF-3c
|  2> !TightSCF
|  3> %scf
|  4>  ConvForced true
|  5>  convergence tight
|  6>  MaxIter 500
|  7> end
|  8>
|  9> %tddft
| 10>  nroots 1
| 11> end
| 12>
| 13> # 	15890
| 14> * xyz 0 1
| 15> 		C   -1.225299  -0.284530  -0.043385
| 16> 		O   -1.598877  -1.171800   0.773119
| 17> 		C   -0.023188   0.472987   0.192750
| 18> 		C    1.232699   0.042740  -0.130077
| 19> 		H   -1.647598  -0.074565  -0.955710
| 20> 		H   -0.082489   1.364767   0.884775
| 21> 		H    1.298502  -0.930754  -0.630135
| 22> 		H    2.036708   0.553334  -0.084633
| 23> *
| 24>
| 25>                          ****END OF INPUT****

CARTESIAN COORDINATES (ANGSTROEM)
---------------------------------
  C     -1.225299   -0.284530   -0.043385
  O     -1.598877   -1.171800    0.773119
  C     -0.023188    0.472987    0.192750
  C      1.232699    0.042740   -0.130077
  H     -1.647598   -0.074565   -0.955710
  H     -0.082489    1.364767    0.884775
  H      1.298502   -0.930754   -0.630135
  H      2.036708    0.553334   -0.084633

 Total Charge           Charge          ....    0
 Multiplicity           Mult            ....    1
 Number of Electrons    NEL             ....   30
 Basis Dimension        Dim             ....   24

ORBITAL ENERGIES
----------------

  NO   OCC          E(Eh)            E(eV)
   0   2.0000     -20.376453      -554.4715
   1   2.0000     -11.301283      -307.5235
   2   2.0000     -11.194309      -304.6126
   3   2.0000     -11.182169      -304.2823
   4   2.0000      -1.379501       -37.5381
   5   2.0000      -1.080768       -29.4092
   6   2.0000      -0.919610       -25.0238
   7   2.0000      -0.782816       -21.3015
   8   2.0000      -0.682941       -18.5838
   9   2.0000      -0.653195       -17.7743
  10   2.0000      -0.605960       -16.4890
  11   2.0000      -0.551521       -15.0077
  12   2.0000      -0.480014       -13.0619
  13   2.0000      -0.434337       -11.8189
  14   2.0000      -0.392099       -10.6695
  15   0.0000       0.159764         4.3474
  16   0.0000       0.192783         5.2459
  17   0.0000       0.603441        16.4205
  18   0.0000       0.622197        16.9308
  19   0.0000       0.702399        19.1132

MULLIKEN ATOMIC CHARGES
-----------------------
   0 C :    0.135405
   1 O :   -0.316504
   2 C :   -0.147842
   3 C :   -0.258428
   4 H :    0.150105
   5 H :    0.157581
   6 H :    0.140748
   7 H :    0.138935
Sum of atomic charges:   -0.0000000

LOEWDIN ATOMIC CHARGES
----------------------
   0 C :    0.141899
   1 O :   -0.237820
   2 C :   -0.103483
   3 C :   -0.160135
   4 H :    0.079568
   5 H :    0.107908
   6 H :    0.092374
   7 H :    0.079690

  Mayer bond orders larger than 0.100000
B(  0-C ,  1-O ) :   1.9378 B(  0-C ,  2-C ) :   1.0165 B(  0-C ,  4-H ) :   0.9295
B(  2-C ,  3-C ) :   1.9837 B(  2-C ,  5-H ) :   0.9423 B(  3-C ,  6-H ) :   0.9671
B(  3-C ,  7-H ) :   0.9712

-----------------------------------------------------------------------------
         ABSORPTION SPECTRUM VIA TRANSITION ELECTRIC DIPOLE MOMENTS
-----------------------------------------------------------------------------
State   Energy    Wavelength  fosc         T2        TX        TY        TZ
        (cm-1)      (nm)                 (au**2)    (au)      (au)      (au)
-----------------------------------------------------------------------------
   1   30708.8    325.6   0.000033426   0.00036  -0.01333  -0.01342   0.00075

Dispersion correction           -0.025462750
FINAL SINGLE POINT ENERGY      -189.304041079838

DIPOLE MOMENT
-------------
                                X             Y             Z
Electronic contribution:     -2.75037      -1.19400       0.95010
Nuclear contribution   :      3.10526       1.85042      -1.51924
                        -----------------------------------------
Total Dipole Moment    :      0.35489       0.65642      -0.56915
                        -----------------------------------------
Magnitude (a.u.)       :      0.93849
Magnitude (Debye)      :      2.38546

Rotational constants in cm-1:     0.922384     0.172868     0.161930
Rotational constants in MHz : 27652.387246  5182.447135  4854.527088

                             ****ORCA TERMINATED NORMALLY****
TOTAL RUN TIME: 0 days 0 hours 0 minutes 15 seconds 847 msec
