                         Program Version 5.0.3 -  RELEASE  -
|  1> ! HF-3c
|  2> !TightSCF
|  3> %scf
|  4>  ConvForced true
|  5>  convergence tight
|  6>  MaxIter 500
|  7> end
|  8>
|  9> %tddft
| 10>  nroots 1
| 11> end
| 12>
| 13> # 	16199
| 14> * xyz 0 1
| 15> 		C   -1.206047  -0.405458  -0.067755
| 16> 		O   -2.275822  -0.223732  -0.600718
| 17> 		C    0.012543   0.405290  -0.380653
| 18> 		C    1.138541   0.229521   0.304186
| 19> 		H   -1.159699  -1.177345   0.755440
| 20> 		H    0.093209   0.954080  -1.327440
| 21> 		H    1.189839  -0.429557   1.151063
| 22> 		H    2.191592   0.698385   0.144047
| 23> *
| 24>
| 25>                          ****END OF INPUT****

CARTESIAN COORDINATES (ANGSTROEM)
---------------------------------
  C     -1.206047   -0.405458   -0.067755
  O     -2.275822   -0.223732   -0.600718
  C      0.012543    0.405290   -0.380653
  C      1.138541    0.229521    0.304186
  H     -1.159699   -1.177345    0.755440
  H      0.093209    0.954080   -1.327440
  H      1.189839   -0.429557    1.151063
  H      2.191592    0.698385    0.144047

 Total Charge           Charge          ....    0
 Multiplicity           Mult            ....    1
 Number of Electrons    NEL             ....   30
 Basis Dimension        Dim             ....   24

ORBITAL ENERGIES
----------------

  NO   OCC          E(Eh)            E(eV)
   0   2.0000     -20.364924      -554.1578
   1   2.0000     -11.297299      -307.4151
   2   2.0000     -11.192324      -304.5586
   3   2.0000     -11.190486      -304.5086
   4   2.0000      -1.402184       -38.1554
   5   2.0000      -1.080366       -29.3983
   6   2.0000      -0.865391       -23.5485
   7   2.0000      -0.777512       -21.1572
   8   2.0000      -0.671191       -18.2640
   9   2.0000      -0.639809       -17.4101
  10   2.0000      -0.572488       -15.5782
  11   2.0000      -0.541311       -14.7298
  12   2.0000      -0.526724       -14.3329
  13   2.0000      -0.411672       -11.2022
  14   2.0000      -0.396818       -10.7980
  15   0.0000       0.136680         3.7193
  16   0.0000       0.299817         8.1584
  17   0.0000       0.513002        13.9595
  18   0.0000       0.557644        15.1743
  19   0.0000       0.659291        17.9402

MULLIKEN ATOMIC CHARGES
-----------------------
   0 C :    0.167928
   1 O :   -0.350843
   2 C :   -0.178082
   3 C :   -0.215614
   4 H :    0.138587
   5 H :    0.158154
   6 H :    0.131710
   7 H :    0.148159
Sum of atomic charges:    0.0000000

LOEWDIN ATOMIC CHARGES
----------------------
   0 C :    0.146179
   1 O :   -0.255141
   2 C :   -0.133858
   3 C :   -0.122256
   4 H :    0.077074
   5 H :    0.104248
   6 H :    0.081619
   7 H :    0.102135

  Mayer bond orders larger than 0.100000
B(  0-C ,  1-O ) :   1.9120 B(  0-C ,  2-C ) :   1.0172 B(  0-C ,  4-H ) :   0.9225
B(  2-C ,  3-C ) :   1.9543 B(  2-C ,  5-H ) :   0.9529 B(  3-C ,  6-H ) :   0.9662
B(  3-C ,  7-H ) :   0.9619

-----------------------------------------------------------------------------
         ABSORPTION SPECTRUM VIA TRANSITION ELECTRIC DIPOLE MOMENTS
-----------------------------------------------------------------------------
State   Energy    Wavelength  fosc         T2        TX        TY        TZ
        (cm-1)      (nm)                 (au**2)    (au)      (au)      (au)
-----------------------------------------------------------------------------
   1   33056.4    302.5   0.000102303   0.00102   0.02793   0.01386  -0.00681

Dispersion correction           -0.025087857
FINAL SINGLE POINT ENERGY      -189.336364599706

DIPOLE MOMENT
-------------
                                X             Y             Z
Electronic contribution:     -3.32841      -0.20663      -0.94538
Nuclear contribution   :      4.47253       0.09177       1.38280
                        -----------------------------------------
Total Dipole Moment    :      1.14412      -0.11486       0.43741
                        -----------------------------------------
Magnitude (a.u.)       :      1.23026
Magnitude (Debye)      :      3.12707

Rotational constants in cm-1:     1.568738     0.153082     0.139727
Rotational constants in MHz : 47029.575696  4589.281082  4188.904825

                             ****ORCA TERMINATED NORMALLY****
TOTAL RUN TIME: 0 days 0 hours 0 minutes 12 seconds 425 msec
