                         Program Version 5.0.3 -  RELEASE  -
|  1> ! HF-3c
|  2> !TightSCF
|  3> %scf
|  4>  ConvForced true
|  5>  convergence tight
|  6>  MaxIter 500
|  7> end
|  8>
|  9> %tddft
| 10>  nroots 1
| 11> end
| 12>
| 13> # 	10398
| 14> * xyz 0 1
| 15> 		C   -1.156920  -0.391557   0.117049
| 16> 		O   -2.114570  -0.376563   0.850184
| 17> 		C    0.079639   0.338217   0.417335
| 18> 		C    1.128003   0.142240  -0.274033
| 19> 		H   -1.139642  -0.981281  -1.011051
| 20> 		H    0.071746   1.194842   1.162921
| 21> 		H    1.050594  -0.587027  -1.303464
| 22> 		H    2.167632   0.653845   0.079837
| 23> *
| 24>
| 25>                          ****END OF INPUT****

CARTESIAN COORDINATES (ANGSTROEM)
---------------------------------
  C     -1.156920   -0.391557    0.117049
  O     -2.114570   -0.376563    0.850184
  C      0.079639    0.338217    0.417335
  C      1.128003    0.142240   -0.274033
  H     -1.139642   -0.981281   -1.011051
  H      0.071746    1.194842    1.162921
  H      1.050594   -0.587027   -1.303464
  H      2.167632    0.653845    0.079837

 Total Charge           Charge          ....    0
 Multiplicity           Mult            ....    1
 Number of Electrons    NEL             ....   30
 Basis Dimension        Dim             ....   24

ORBITAL ENERGIES
----------------

  NO   OCC          E(Eh)            E(eV)
   0   2.0000     -20.358752      -553.9898
   1   2.0000     -11.290409      -307.2277
   2   2.0000     -11.186187      -304.3916
   3   2.0000     -11.181113      -304.2536
   4   2.0000      -1.397569       -38.0298
   5   2.0000      -1.092959       -29.7409
   6   2.0000      -0.846904       -23.0454
   7   2.0000      -0.735806       -20.0223
   8   2.0000      -0.639202       -17.3936
   9   2.0000      -0.627582       -17.0774
  10   2.0000      -0.562257       -15.2998
  11   2.0000      -0.537868       -14.6361
  12   2.0000      -0.500254       -13.6126
  13   2.0000      -0.407290       -11.0829
  14   2.0000      -0.388810       -10.5800
  15   0.0000       0.153848         4.1864
  16   0.0000       0.317145         8.6300
  17   0.0000       0.461101        12.5472
  18   0.0000       0.478989        13.0340
  19   0.0000       0.515262        14.0210

MULLIKEN ATOMIC CHARGES
-----------------------
   0 C :    0.191792
   1 O :   -0.362485
   2 C :   -0.201274
   3 C :   -0.196092
   4 H :    0.123029
   5 H :    0.157939
   6 H :    0.139565
   7 H :    0.147525
Sum of atomic charges:    0.0000000

LOEWDIN ATOMIC CHARGES
----------------------
   0 C :    0.155041
   1 O :   -0.264886
   2 C :   -0.158862
   3 C :   -0.121832
   4 H :    0.074769
   5 H :    0.107584
   6 H :    0.102600
   7 H :    0.105585

  Mayer bond orders larger than 0.100000
B(  0-C ,  1-O ) :   1.9159 B(  0-C ,  2-C ) :   1.0183 B(  0-C ,  4-H ) :   0.8981
B(  2-C ,  3-C ) :   1.9626 B(  2-C ,  5-H ) :   0.9449 B(  3-C ,  6-H ) :   0.9498
B(  3-C ,  7-H ) :   0.9547

-----------------------------------------------------------------------------
         ABSORPTION SPECTRUM VIA TRANSITION ELECTRIC DIPOLE MOMENTS
-----------------------------------------------------------------------------
State   Energy    Wavelength  fosc         T2        TX        TY        TZ
        (cm-1)      (nm)                 (au**2)    (au)      (au)      (au)
-----------------------------------------------------------------------------
   1   34251.6    292.0   0.000067792   0.00065  -0.00952  -0.00462   0.02323

Dispersion correction           -0.025531124
FINAL SINGLE POINT ENERGY      -189.280955380239

DIPOLE MOMENT
-------------
                                X             Y             Z
Electronic contribution:     -3.00535      -0.48787       1.34888
Nuclear contribution   :      4.07296       0.57158      -2.04452
                        -----------------------------------------
Total Dipole Moment    :      1.06761       0.08371      -0.69564
                        -----------------------------------------
Magnitude (a.u.)       :      1.27699
Magnitude (Debye)      :      3.24586

Rotational constants in cm-1:     1.417061     0.161600     0.145774
Rotational constants in MHz : 42482.414036  4844.648795  4370.183747

                             ****ORCA TERMINATED NORMALLY****
TOTAL RUN TIME: 0 days 0 hours 0 minutes 11 seconds 715 msec
