                         Program Version 5.0.3 -  RELEASE  -
|  1> ! B3LYP cc-pVDZ
|  2> !TightSCF
|  3> %scf
|  4>  ConvForced true
|  5>  convergence tight
|  6>  MaxIter 500
|  7> end
|  8>
|  9> %tddft
| 10>  nroots 1
| 11> end
| 12>
| 13> # 	22622
| 14> * xyz 0 1
| 15> 		C   -0.589049  -0.468166  -0.058970
| 16> 		O   -0.589881  -1.636053   0.035830
| 17> 		C    0.631101   0.410946   0.056466
| 18> 		C    1.840543  -0.103789  -0.058604
| 19> 		H   -1.667476   0.236961  -0.193292
| 20> 		H    0.589774   1.532888   0.205493
| 21> 		H    2.073132  -0.991095   0.072807
| 22> 		H    2.887089   0.379246   0.090752
| 23> *
| 24>
| 25>                          ****END OF INPUT****

CARTESIAN COORDINATES (ANGSTROEM)
---------------------------------
  C     -0.589049   -0.468166   -0.058970
  O     -0.589881   -1.636053    0.035830
  C      0.631101    0.410946    0.056466
  C      1.840543   -0.103789   -0.058604
  H     -1.667476    0.236961   -0.193292
  H      0.589774    1.532888    0.205493
  H      2.073132   -0.991095    0.072807
  H      2.887089    0.379246    0.090752

 Total Charge           Charge          ....    0
 Multiplicity           Mult            ....    1
 Number of Electrons    NEL             ....   30
 Basis Dimension        Dim             ....   76

ORBITAL ENERGIES
----------------

  NO   OCC          E(Eh)            E(eV)
   0   2.0000     -19.153168      -521.1842
   1   2.0000     -10.294536      -280.1286
   2   2.0000     -10.213440      -277.9218
   3   2.0000     -10.201087      -277.5857
   4   2.0000      -1.079135       -29.3647
   5   2.0000      -0.799984       -21.7687
   6   2.0000      -0.654711       -17.8156
   7   2.0000      -0.553830       -15.0705
   8   2.0000      -0.495292       -13.4776
   9   2.0000      -0.463324       -12.6077
  10   2.0000      -0.427144       -11.6232
  11   2.0000      -0.412458       -11.2235
  12   2.0000      -0.373519       -10.1640
  13   2.0000      -0.293838        -7.9957
  14   2.0000      -0.260579        -7.0907
  15   0.0000      -0.067058        -1.8247
  16   0.0000       0.048421         1.3176
  17   0.0000       0.057666         1.5692
  18   0.0000       0.083676         2.2769
  19   0.0000       0.108105         2.9417

MULLIKEN ATOMIC CHARGES
-----------------------
   0 C :    0.136352
   1 O :   -0.133171
   2 C :   -0.109490
   3 C :    0.127783
   4 H :   -0.024069
   5 H :    0.014490
   6 H :   -0.042955
   7 H :    0.031060
Sum of atomic charges:    0.0000000

LOEWDIN ATOMIC CHARGES
----------------------
   0 C :   -0.059087
   1 O :    0.046781
   2 C :   -0.076687
   3 C :    0.036166
   4 H :   -0.013795
   5 H :    0.041650
   6 H :   -0.024341
   7 H :    0.049314

  Mayer bond orders larger than 0.100000
B(  0-C ,  1-O ) :   2.2581 B(  0-C ,  2-C ) :   0.9879 B(  0-C ,  4-H ) :   0.8663
B(  2-C ,  3-C ) :   1.9670 B(  2-C ,  5-H ) :   0.9396 B(  3-C ,  6-H ) :   0.9478
B(  3-C ,  7-H ) :   0.9541

-----------------------------------------------------------------------------
         ABSORPTION SPECTRUM VIA TRANSITION ELECTRIC DIPOLE MOMENTS
-----------------------------------------------------------------------------
State   Energy    Wavelength  fosc         T2        TX        TY        TZ
        (cm-1)      (nm)                 (au**2)    (au)      (au)      (au)
-----------------------------------------------------------------------------
   1   30175.5    331.4   0.000359587   0.00392  -0.04935   0.01475   0.03563

FINAL SINGLE POINT ENERGY      -191.614823949905

DIPOLE MOMENT
-------------
                                X             Y             Z
Electronic contribution:     -1.99722      -2.16664      -0.12618
Nuclear contribution   :      2.48546       2.87270       0.16432
                        -----------------------------------------
Total Dipole Moment    :      0.48824       0.70606       0.03814
                        -----------------------------------------
Magnitude (a.u.)       :      0.85927
Magnitude (Debye)      :      2.18410

Rotational constants in cm-1:     0.778195     0.203294     0.161915
Rotational constants in MHz : 23329.707273  6094.597961  4854.103780

                             ****ORCA TERMINATED NORMALLY****
TOTAL RUN TIME: 0 days 0 hours 3 minutes 20 seconds 923 msec
