                         Program Version 5.0.3 -  RELEASE  -
|  1> ! HF-3c
|  2> !TightSCF
|  3> %scf
|  4>  ConvForced true
|  5>  convergence tight
|  6>  MaxIter 500
|  7> end
|  8>
|  9> %tddft
| 10>  nroots 1
| 11> end
| 12>
| 13> # 	30563
| 14> * xyz 0 1
| 15> 		C   -0.556812  -0.386957   0.082526
| 16> 		O   -0.568807  -1.657196  -0.042321
| 17> 		C    0.627180   0.413051  -0.037676
| 18> 		C    1.826087  -0.134370   0.032788
| 19> 		H   -1.663565  -0.025509  -0.028757
| 20> 		H    0.574503   1.627244  -0.178795
| 21> 		H    1.802296  -1.281880   0.086287
| 22> 		H    2.716860   0.506619  -0.149683
| 23> *
| 24>
| 25>                          ****END OF INPUT****

CARTESIAN COORDINATES (ANGSTROEM)
---------------------------------
  C     -0.556812   -0.386957    0.082526
  O     -0.568807   -1.657196   -0.042321
  C      0.627180    0.413051   -0.037676
  C      1.826087   -0.134370    0.032788
  H     -1.663565   -0.025509   -0.028757
  H      0.574503    1.627244   -0.178795
  H      1.802296   -1.281880    0.086287
  H      2.716860    0.506619   -0.149683

 Total Charge           Charge          ....    0
 Multiplicity           Mult            ....    1
 Number of Electrons    NEL             ....   30
 Basis Dimension        Dim             ....   24

ORBITAL ENERGIES
----------------

  NO   OCC          E(Eh)            E(eV)
   0   2.0000     -20.328595      -553.1692
   1   2.0000     -11.271152      -306.7036
   2   2.0000     -11.188165      -304.4454
   3   2.0000     -11.186400      -304.3974
   4   2.0000      -1.349286       -36.7159
   5   2.0000      -1.079902       -29.3856
   6   2.0000      -0.877378       -23.8747
   7   2.0000      -0.714335       -19.4380
   8   2.0000      -0.687797       -18.7159
   9   2.0000      -0.592375       -16.1193
  10   2.0000      -0.569042       -15.4844
  11   2.0000      -0.516416       -14.0524
  12   2.0000      -0.494708       -13.4617
  13   2.0000      -0.407017       -11.0755
  14   2.0000      -0.381262       -10.3747
  15   0.0000       0.123346         3.3564
  16   0.0000       0.313620         8.5340
  17   0.0000       0.473754        12.8915
  18   0.0000       0.565381        15.3848
  19   0.0000       0.572266        15.5721

MULLIKEN ATOMIC CHARGES
-----------------------
   0 C :    0.130809
   1 O :   -0.352942
   2 C :   -0.176736
   3 C :   -0.213620
   4 H :    0.146624
   5 H :    0.146305
   6 H :    0.169754
   7 H :    0.149807
Sum of atomic charges:   -0.0000000

LOEWDIN ATOMIC CHARGES
----------------------
   0 C :    0.125719
   1 O :   -0.280069
   2 C :   -0.138893
   3 C :   -0.120181
   4 H :    0.089818
   5 H :    0.104012
   6 H :    0.118789
   7 H :    0.100804

  Mayer bond orders larger than 0.100000
B(  0-C ,  1-O ) :   1.8675 B(  0-C ,  2-C ) :   1.0660 B(  0-C ,  4-H ) :   0.9343
B(  2-C ,  3-C ) :   1.9247 B(  2-C ,  5-H ) :   0.9494 B(  3-C ,  6-H ) :   0.9490
B(  3-C ,  7-H ) :   0.9619

-----------------------------------------------------------------------------
         ABSORPTION SPECTRUM VIA TRANSITION ELECTRIC DIPOLE MOMENTS
-----------------------------------------------------------------------------
State   Energy    Wavelength  fosc         T2        TX        TY        TZ
        (cm-1)      (nm)                 (au**2)    (au)      (au)      (au)
-----------------------------------------------------------------------------
   1   27645.8    361.7   0.000150807   0.00180   0.02860   0.00551   0.03079

Dispersion correction           -0.025717767
FINAL SINGLE POINT ENERGY      -189.326884229479

DIPOLE MOMENT
-------------
                                X             Y             Z
Electronic contribution:     -1.71335      -1.57348       0.24284
Nuclear contribution   :      2.05812       2.56398      -0.25363
                        -----------------------------------------
Total Dipole Moment    :      0.34477       0.99051      -0.01079
                        -----------------------------------------
Magnitude (a.u.)       :      1.04885
Magnitude (Debye)      :      2.66596

Rotational constants in cm-1:     0.743752     0.211725     0.165467
Rotational constants in MHz : 22297.131162  6347.359918  4960.582625

                             ****ORCA TERMINATED NORMALLY****
TOTAL RUN TIME: 0 days 0 hours 0 minutes 11 seconds 538 msec
