                         Program Version 5.0.3 -  RELEASE  -
|  1> ! HF-3c
|  2> !TightSCF
|  3> %scf
|  4>  ConvForced true
|  5>  convergence tight
|  6>  MaxIter 500
|  7> end
|  8>
|  9> %tddft
| 10>  nroots 1
| 11> end
| 12>
| 13> # 	20534
| 14> * xyz 0 1
| 15> 		C   -0.580025  -0.390613  -0.021906
| 16> 		O   -0.497107  -1.592168   0.004032
| 17> 		C    0.582877   0.451537   0.028728
| 18> 		C    1.784559  -0.204333  -0.002774
| 19> 		H   -1.563924  -0.092217   0.043563
| 20> 		H    0.500716   1.540714  -0.104400
| 21> 		H    1.710703  -1.411447  -0.020631
| 22> 		H    2.881645   0.172839  -0.037396
| 23> *
| 24>
| 25>                          ****END OF INPUT****

CARTESIAN COORDINATES (ANGSTROEM)
---------------------------------
  C     -0.580025   -0.390613   -0.021906
  O     -0.497107   -1.592168    0.004032
  C      0.582877    0.451537    0.028728
  C      1.784559   -0.204333   -0.002774
  H     -1.563924   -0.092217    0.043563
  H      0.500716    1.540714   -0.104400
  H      1.710703   -1.411447   -0.020631
  H      2.881645    0.172839   -0.037396

 Total Charge           Charge          ....    0
 Multiplicity           Mult            ....    1
 Number of Electrons    NEL             ....   30
 Basis Dimension        Dim             ....   24

ORBITAL ENERGIES
----------------

  NO   OCC          E(Eh)            E(eV)
   0   2.0000     -20.343139      -553.5650
   1   2.0000     -11.289835      -307.2120
   2   2.0000     -11.187097      -304.4164
   3   2.0000     -11.179779      -304.2173
   4   2.0000      -1.403741       -38.1977
   5   2.0000      -1.062875       -28.9223
   6   2.0000      -0.879765       -23.9396
   7   2.0000      -0.751677       -20.4542
   8   2.0000      -0.699658       -19.0387
   9   2.0000      -0.605145       -16.4668
  10   2.0000      -0.576258       -15.6808
  11   2.0000      -0.544113       -14.8061
  12   2.0000      -0.497744       -13.5443
  13   2.0000      -0.415183       -11.2977
  14   2.0000      -0.374937       -10.2025
  15   0.0000       0.131423         3.5762
  16   0.0000       0.312681         8.5085
  17   0.0000       0.512242        13.9388
  18   0.0000       0.555468        15.1151
  19   0.0000       0.647180        17.6107

MULLIKEN ATOMIC CHARGES
-----------------------
   0 C :    0.137674
   1 O :   -0.364775
   2 C :   -0.200882
   3 C :   -0.173882
   4 H :    0.144983
   5 H :    0.144639
   6 H :    0.164506
   7 H :    0.147737
Sum of atomic charges:   -0.0000000

LOEWDIN ATOMIC CHARGES
----------------------
   0 C :    0.131403
   1 O :   -0.273659
   2 C :   -0.161023
   3 C :   -0.084765
   4 H :    0.074183
   5 H :    0.094087
   6 H :    0.118058
   7 H :    0.101716

  Mayer bond orders larger than 0.100000
B(  0-C ,  1-O ) :   1.8733 B(  0-C ,  2-C ) :   1.0540 B(  0-C ,  4-H ) :   0.9386
B(  2-C ,  3-C ) :   1.9103 B(  2-C ,  5-H ) :   0.9590 B(  3-C ,  6-H ) :   0.9478
B(  3-C ,  7-H ) :   0.9635

-----------------------------------------------------------------------------
         ABSORPTION SPECTRUM VIA TRANSITION ELECTRIC DIPOLE MOMENTS
-----------------------------------------------------------------------------
State   Energy    Wavelength  fosc         T2        TX        TY        TZ
        (cm-1)      (nm)                 (au**2)    (au)      (au)      (au)
-----------------------------------------------------------------------------
   1   32234.0    310.2   0.000165094   0.00169   0.03023   0.00390  -0.02752

Dispersion correction           -0.026217034
FINAL SINGLE POINT ENERGY      -189.313379468569

DIPOLE MOMENT
-------------
                                X             Y             Z
Electronic contribution:     -1.71761      -1.21212       0.05461
Nuclear contribution   :      2.15632       1.98669      -0.11101
                        -----------------------------------------
Total Dipole Moment    :      0.43871       0.77457      -0.05639
                        -----------------------------------------
Magnitude (a.u.)       :      0.89197
Magnitude (Debye)      :      2.26720

Rotational constants in cm-1:     0.705775     0.233699     0.175678
Rotational constants in MHz : 21158.605578  7006.124853  5266.688481

                             ****ORCA TERMINATED NORMALLY****
TOTAL RUN TIME: 0 days 0 hours 0 minutes 12 seconds 325 msec
