                         Program Version 5.0.3 -  RELEASE  -
|  1> ! B3LYP cc-pVDZ
|  2> !TightSCF
|  3> %scf
|  4>  ConvForced true
|  5>  convergence tight
|  6>  MaxIter 500
|  7> end
|  8>
|  9> %tddft
| 10>  nroots 1
| 11> end
| 12>
| 13> # 	8012
| 14> * xyz 0 1
| 15> 		C   -1.192237  -0.356733   0.095308
| 16> 		O   -1.611692  -1.211588   0.891448
| 17> 		C    0.004203   0.530627   0.197628
| 18> 		C    1.198268   0.034495  -0.198726
| 19> 		H   -1.708100  -0.134066  -0.803126
| 20> 		H   -0.182688   1.534001   0.441334
| 21> 		H    1.317339  -1.056900  -0.500827
| 22> 		H    2.115953   0.696249  -0.176998
| 23> *
| 24>
| 25>                          ****END OF INPUT****

CARTESIAN COORDINATES (ANGSTROEM)
---------------------------------
  C     -1.192237   -0.356733    0.095308
  O     -1.611692   -1.211588    0.891448
  C      0.004203    0.530627    0.197628
  C      1.198268    0.034495   -0.198726
  H     -1.708100   -0.134066   -0.803126
  H     -0.182688    1.534001    0.441334
  H      1.317339   -1.056900   -0.500827
  H      2.115953    0.696249   -0.176998

 Total Charge           Charge          ....    0
 Multiplicity           Mult            ....    1
 Number of Electrons    NEL             ....   30
 Basis Dimension        Dim             ....   76

ORBITAL ENERGIES
----------------

  NO   OCC          E(Eh)            E(eV)
   0   2.0000     -19.146898      -521.0136
   1   2.0000     -10.280119      -279.7363
   2   2.0000     -10.217093      -278.0212
   3   2.0000     -10.208335      -277.7829
   4   2.0000      -1.033418       -28.1207
   5   2.0000      -0.797038       -21.6885
   6   2.0000      -0.655510       -17.8373
   7   2.0000      -0.561764       -15.2864
   8   2.0000      -0.495141       -13.4735
   9   2.0000      -0.450777       -12.2663
  10   2.0000      -0.440250       -11.9798
  11   2.0000      -0.389365       -10.5952
  12   2.0000      -0.369096       -10.0436
  13   2.0000      -0.285403        -7.7662
  14   2.0000      -0.256250        -6.9729
  15   0.0000      -0.040866        -1.1120
  16   0.0000      -0.014874        -0.4047
  17   0.0000       0.077672         2.1136
  18   0.0000       0.087578         2.3831
  19   0.0000       0.109833         2.9887

MULLIKEN ATOMIC CHARGES
-----------------------
   0 C :    0.194609
   1 O :   -0.204980
   2 C :   -0.055263
   3 C :   -0.018025
   4 H :   -0.007486
   5 H :    0.003554
   6 H :    0.044657
   7 H :    0.042935
Sum of atomic charges:    0.0000000

LOEWDIN ATOMIC CHARGES
----------------------
   0 C :    0.006153
   1 O :   -0.017837
   2 C :   -0.051061
   3 C :   -0.032724
   4 H :   -0.008181
   5 H :    0.026072
   6 H :    0.039859
   7 H :    0.037721

  Mayer bond orders larger than 0.100000
B(  0-C ,  1-O ) :   2.2113 B(  0-C ,  2-C ) :   0.9939 B(  0-C ,  4-H ) :   0.9192
B(  2-C ,  3-C ) :   2.0207 B(  2-C ,  5-H ) :   0.9413 B(  3-C ,  6-H ) :   0.9438
B(  3-C ,  7-H ) :   0.9460

-----------------------------------------------------------------------------
         ABSORPTION SPECTRUM VIA TRANSITION ELECTRIC DIPOLE MOMENTS
-----------------------------------------------------------------------------
State   Energy    Wavelength  fosc         T2        TX        TY        TZ
        (cm-1)      (nm)                 (au**2)    (au)      (au)      (au)
-----------------------------------------------------------------------------
   1   31597.1    316.5   0.000127216   0.00133   0.03519  -0.00808  -0.00466

FINAL SINGLE POINT ENERGY      -191.644742708067

DIPOLE MOMENT
-------------
                                X             Y             Z
Electronic contribution:     -2.56416      -1.30267       1.34938
Nuclear contribution   :      3.04334       2.02113      -1.92620
                        -----------------------------------------
Total Dipole Moment    :      0.47918       0.71847      -0.57682
                        -----------------------------------------
Magnitude (a.u.)       :      1.03852
Magnitude (Debye)      :      2.63971

Rotational constants in cm-1:     0.942967     0.167585     0.154139
Rotational constants in MHz : 28269.448790  5024.075384  4620.968841

                             ****ORCA TERMINATED NORMALLY****
TOTAL RUN TIME: 0 days 0 hours 3 minutes 8 seconds 408 msec
