                         Program Version 5.0.3 -  RELEASE  -
|  1> ! HF-3c
|  2> !TightSCF
|  3> %scf
|  4>  ConvForced true
|  5>  convergence tight
|  6>  MaxIter 500
|  7> end
|  8>
|  9> %tddft
| 10>  nroots 1
| 11> end
| 12>
| 13> # 	18550
| 14> * xyz 0 1
| 15> 		C   -1.170141  -0.228986  -0.018391
| 16> 		O   -1.488782  -1.220042   0.710445
| 17> 		C    0.032746   0.546169   0.114669
| 18> 		C    1.293149   0.045531  -0.145382
| 19> 		H   -1.875782  -0.092620  -0.811884
| 20> 		H   -0.137410   1.419985   0.501556
| 21> 		H    1.413727  -1.157802  -0.377961
| 22> 		H    2.017585   0.702178   0.054964
| 23> *
| 24>
| 25>                          ****END OF INPUT****

CARTESIAN COORDINATES (ANGSTROEM)
---------------------------------
  C     -1.170141   -0.228986   -0.018391
  O     -1.488782   -1.220042    0.710445
  C      0.032746    0.546169    0.114669
  C      1.293149    0.045531   -0.145382
  H     -1.875782   -0.092620   -0.811884
  H     -0.137410    1.419985    0.501556
  H      1.413727   -1.157802   -0.377961
  H      2.017585    0.702178    0.054964

 Total Charge           Charge          ....    0
 Multiplicity           Mult            ....    1
 Number of Electrons    NEL             ....   30
 Basis Dimension        Dim             ....   24

ORBITAL ENERGIES
----------------

  NO   OCC          E(Eh)            E(eV)
   0   2.0000     -20.350363      -553.7615
   1   2.0000     -11.280854      -306.9676
   2   2.0000     -11.195091      -304.6339
   3   2.0000     -11.193125      -304.5804
   4   2.0000      -1.361005       -37.0348
   5   2.0000      -1.082301       -29.4509
   6   2.0000      -0.903481       -24.5850
   7   2.0000      -0.772593       -21.0233
   8   2.0000      -0.700532       -19.0624
   9   2.0000      -0.623999       -16.9799
  10   2.0000      -0.586484       -15.9590
  11   2.0000      -0.553207       -15.0535
  12   2.0000      -0.473186       -12.8760
  13   2.0000      -0.418944       -11.4000
  14   2.0000      -0.392487       -10.6801
  15   0.0000       0.155220         4.2237
  16   0.0000       0.205935         5.6038
  17   0.0000       0.494187        13.4475
  18   0.0000       0.633558        17.2400
  19   0.0000       0.739428        20.1209

MULLIKEN ATOMIC CHARGES
-----------------------
   0 C :    0.134135
   1 O :   -0.331177
   2 C :   -0.193964
   3 C :   -0.215030
   4 H :    0.145610
   5 H :    0.148139
   6 H :    0.167855
   7 H :    0.144431
Sum of atomic charges:   -0.0000000

LOEWDIN ATOMIC CHARGES
----------------------
   0 C :    0.136725
   1 O :   -0.255725
   2 C :   -0.137219
   3 C :   -0.123385
   4 H :    0.080139
   5 H :    0.087155
   6 H :    0.125527
   7 H :    0.086784

  Mayer bond orders larger than 0.100000
B(  0-C ,  1-O ) :   1.9241 B(  0-C ,  2-C ) :   1.0254 B(  0-C ,  4-H ) :   0.9321
B(  2-C ,  3-C ) :   1.9641 B(  2-C ,  5-H ) :   0.9554 B(  3-C ,  6-H ) :   0.9571
B(  3-C ,  7-H ) :   0.9675

-----------------------------------------------------------------------------
         ABSORPTION SPECTRUM VIA TRANSITION ELECTRIC DIPOLE MOMENTS
-----------------------------------------------------------------------------
State   Energy    Wavelength  fosc         T2        TX        TY        TZ
        (cm-1)      (nm)                 (au**2)    (au)      (au)      (au)
-----------------------------------------------------------------------------
   1   30102.2    332.2   0.000012448   0.00014   0.00412   0.00912   0.00600

Dispersion correction           -0.025329387
FINAL SINGLE POINT ENERGY      -189.291584099738

DIPOLE MOMENT
-------------
                                X             Y             Z
Electronic contribution:     -2.19049      -1.16908       0.73318
Nuclear contribution   :      2.68729       1.75970      -1.26495
                        -----------------------------------------
Total Dipole Moment    :      0.49680       0.59062      -0.53177
                        -----------------------------------------
Magnitude (a.u.)       :      0.93724
Magnitude (Debye)      :      2.38228

Rotational constants in cm-1:     0.860375     0.178440     0.158523
Rotational constants in MHz : 25793.407303  5349.486737  4752.386853

                             ****ORCA TERMINATED NORMALLY****
TOTAL RUN TIME: 0 days 0 hours 0 minutes 10 seconds 455 msec
