                         Program Version 5.0.3 -  RELEASE  -
|  1> ! B3LYP cc-pVDZ
|  2> !TightSCF
|  3> %scf
|  4>  ConvForced true
|  5>  convergence tight
|  6>  MaxIter 500
|  7> end
|  8>
|  9> %tddft
| 10>  nroots 1
| 11> end
| 12>
| 13> # 	31882
| 14> * xyz 0 1
| 15> 		C   -0.617402  -0.425238  -0.079261
| 16> 		O   -0.582514  -1.590139   0.038249
| 17> 		C    0.666893   0.299411   0.045817
| 18> 		C    1.823805  -0.085296  -0.037348
| 19> 		H   -1.374649   0.196505  -0.018532
| 20> 		H    0.629014   1.364047   0.201363
| 21> 		H    1.997225  -1.142124   0.023228
| 22> 		H    2.629761   0.597056   0.042190
| 23> *
| 24>
| 25>                          ****END OF INPUT****

CARTESIAN COORDINATES (ANGSTROEM)
---------------------------------
  C     -0.617402   -0.425238   -0.079261
  O     -0.582514   -1.590139    0.038249
  C      0.666893    0.299411    0.045817
  C      1.823805   -0.085296   -0.037348
  H     -1.374649    0.196505   -0.018532
  H      0.629014    1.364047    0.201363
  H      1.997225   -1.142124    0.023228
  H      2.629761    0.597056    0.042190

 Total Charge           Charge          ....    0
 Multiplicity           Mult            ....    1
 Number of Electrons    NEL             ....   30
 Basis Dimension        Dim             ....   76

ORBITAL ENERGIES
----------------

  NO   OCC          E(Eh)            E(eV)
   0   2.0000     -19.141402      -520.8640
   1   2.0000     -10.264610      -279.3142
   2   2.0000     -10.180225      -277.0180
   3   2.0000     -10.172268      -276.8015
   4   2.0000      -1.073619       -29.2147
   5   2.0000      -0.812990       -22.1226
   6   2.0000      -0.673932       -18.3386
   7   2.0000      -0.550000       -14.9663
   8   2.0000      -0.522101       -14.2071
   9   2.0000      -0.453598       -12.3430
  10   2.0000      -0.443244       -12.0613
  11   2.0000      -0.415957       -11.3188
  12   2.0000      -0.361725        -9.8430
  13   2.0000      -0.298360        -8.1188
  14   2.0000      -0.254860        -6.9351
  15   0.0000      -0.056277        -1.5314
  16   0.0000       0.069887         1.9017
  17   0.0000       0.080496         2.1904
  18   0.0000       0.105479         2.8702
  19   0.0000       0.136100         3.7035

MULLIKEN ATOMIC CHARGES
-----------------------
   0 C :    0.268028
   1 O :   -0.158393
   2 C :   -0.156277
   3 C :    0.134494
   4 H :   -0.053500
   5 H :   -0.044792
   6 H :    0.002883
   7 H :    0.007557
Sum of atomic charges:   -0.0000000

LOEWDIN ATOMIC CHARGES
----------------------
   0 C :   -0.028664
   1 O :    0.051587
   2 C :   -0.087551
   3 C :    0.007469
   4 H :   -0.024840
   5 H :    0.023564
   6 H :    0.027130
   7 H :    0.031306

  Mayer bond orders larger than 0.100000
B(  0-C ,  1-O ) :   2.2465 B(  0-C ,  2-C ) :   1.0395 B(  0-C ,  4-H ) :   0.9221
B(  2-C ,  3-C ) :   2.0817 B(  2-C ,  5-H ) :   0.9169 B(  3-C ,  6-H ) :   0.9156
B(  3-C ,  7-H ) :   0.9140

-----------------------------------------------------------------------------
         ABSORPTION SPECTRUM VIA TRANSITION ELECTRIC DIPOLE MOMENTS
-----------------------------------------------------------------------------
State   Energy    Wavelength  fosc         T2        TX        TY        TZ
        (cm-1)      (nm)                 (au**2)    (au)      (au)      (au)
-----------------------------------------------------------------------------
   1   29847.6    335.0   0.000053233   0.00059  -0.01425  -0.01572  -0.01170

FINAL SINGLE POINT ENERGY      -191.619215479705

DIPOLE MOMENT
-------------
                                X             Y             Z
Electronic contribution:     -2.31190      -1.91214      -0.24273
Nuclear contribution   :      2.48413       2.74041       0.23267
                        -----------------------------------------
Total Dipole Moment    :      0.17224       0.82828      -0.01006
                        -----------------------------------------
Magnitude (a.u.)       :      0.84605
Magnitude (Debye)      :      2.15050

Rotational constants in cm-1:     0.896485     0.212393     0.172356
Rotational constants in MHz : 26875.935098  6367.390305  5167.112015

                             ****ORCA TERMINATED NORMALLY****
TOTAL RUN TIME: 0 days 0 hours 3 minutes 27 seconds 673 msec
