                         Program Version 5.0.3 -  RELEASE  -
|  1> ! HF-3c
|  2> !TightSCF
|  3> %scf
|  4>  ConvForced true
|  5>  convergence tight
|  6>  MaxIter 500
|  7> end
|  8>
|  9> %tddft
| 10>  nroots 1
| 11> end
| 12>
| 13> # 	2360
| 14> * xyz 0 1
| 15> 		C   -1.303823  -0.326291   0.091298
| 16> 		O   -1.218466  -1.571166   0.079334
| 17> 		C    0.014361   0.520542   0.149515
| 18> 		C    1.219234  -0.024861   0.096368
| 19> 		H   -2.155125   0.173448  -0.142856
| 20> 		H   -0.219524   1.675060  -0.110338
| 21> 		H    1.514347  -1.011058  -0.134534
| 22> 		H    2.213576   0.571152  -0.098978
| 23> *
| 24>
| 25>                          ****END OF INPUT****

CARTESIAN COORDINATES (ANGSTROEM)
---------------------------------
  C     -1.303823   -0.326291    0.091298
  O     -1.218466   -1.571166    0.079334
  C      0.014361    0.520542    0.149515
  C      1.219234   -0.024861    0.096368
  H     -2.155125    0.173448   -0.142856
  H     -0.219524    1.675060   -0.110338
  H      1.514347   -1.011058   -0.134534
  H      2.213576    0.571152   -0.098978

 Total Charge           Charge          ....    0
 Multiplicity           Mult            ....    1
 Number of Electrons    NEL             ....   30
 Basis Dimension        Dim             ....   24

ORBITAL ENERGIES
----------------

  NO   OCC          E(Eh)            E(eV)
   0   2.0000     -20.363423      -554.1169
   1   2.0000     -11.289420      -307.2007
   2   2.0000     -11.186255      -304.3935
   3   2.0000     -11.180665      -304.2414
   4   2.0000      -1.377086       -37.4724
   5   2.0000      -1.054054       -28.6823
   6   2.0000      -0.888980       -24.1904
   7   2.0000      -0.759733       -20.6734
   8   2.0000      -0.671585       -18.2748
   9   2.0000      -0.612918       -16.6783
  10   2.0000      -0.577136       -15.7047
  11   2.0000      -0.521576       -14.1928
  12   2.0000      -0.503021       -13.6879
  13   2.0000      -0.411510       -11.1978
  14   2.0000      -0.385676       -10.4948
  15   0.0000       0.132868         3.6155
  16   0.0000       0.279994         7.6190
  17   0.0000       0.456813        12.4305
  18   0.0000       0.549784        14.9604
  19   0.0000       0.670962        18.2578

MULLIKEN ATOMIC CHARGES
-----------------------
   0 C :    0.141747
   1 O :   -0.335116
   2 C :   -0.149958
   3 C :   -0.231277
   4 H :    0.141661
   5 H :    0.141299
   6 H :    0.152598
   7 H :    0.139046
Sum of atomic charges:   -0.0000000

LOEWDIN ATOMIC CHARGES
----------------------
   0 C :    0.139103
   1 O :   -0.249943
   2 C :   -0.115811
   3 C :   -0.137972
   4 H :    0.072041
   5 H :    0.099251
   6 H :    0.096972
   7 H :    0.096360

  Mayer bond orders larger than 0.100000
B(  0-C ,  1-O ) :   1.9227 B(  0-C ,  2-C ) :   0.9937 B(  0-C ,  4-H ) :   0.9389
B(  2-C ,  3-C ) :   1.9747 B(  2-C ,  5-H ) :   0.9529 B(  3-C ,  6-H ) :   0.9608
B(  3-C ,  7-H ) :   0.9588

-----------------------------------------------------------------------------
         ABSORPTION SPECTRUM VIA TRANSITION ELECTRIC DIPOLE MOMENTS
-----------------------------------------------------------------------------
State   Energy    Wavelength  fosc         T2        TX        TY        TZ
        (cm-1)      (nm)                 (au**2)    (au)      (au)      (au)
-----------------------------------------------------------------------------
   1   29982.3    333.5   0.000002981   0.00003  -0.00106  -0.00224  -0.00516

Dispersion correction           -0.024780123
FINAL SINGLE POINT ENERGY      -189.314974098823

DIPOLE MOMENT
-------------
                                X             Y             Z
Electronic contribution:     -2.28844      -1.78831       0.57741
Nuclear contribution   :      2.52662       2.75535      -0.77992
                        -----------------------------------------
Total Dipole Moment    :      0.23818       0.96705      -0.20251
                        -----------------------------------------
Magnitude (a.u.)       :      1.01632
Magnitude (Debye)      :      2.58329

Rotational constants in cm-1:     0.717165     0.199738     0.156876
Rotational constants in MHz : 21500.066814  5988.005095  4703.020861

                             ****ORCA TERMINATED NORMALLY****
TOTAL RUN TIME: 0 days 0 hours 0 minutes 13 seconds 923 msec
