                         Program Version 5.0.3 -  RELEASE  -
|  1> ! HF-3c
|  2> !TightSCF
|  3> %scf
|  4>  ConvForced true
|  5>  convergence tight
|  6>  MaxIter 500
|  7> end
|  8>
|  9> %tddft
| 10>  nroots 1
| 11> end
| 12>
| 13> # 	5830
| 14> * xyz 0 1
| 15> 		C   -1.223880  -0.348539  -0.047166
| 16> 		O   -1.722021  -1.060620  -0.975581
| 17> 		C    0.005151   0.461722  -0.171007
| 18> 		C    1.197533   0.077994   0.229936
| 19> 		H   -1.601877  -0.305130   0.983119
| 20> 		H   -0.003390   1.324607  -0.887147
| 21> 		H    1.265698  -0.782381   0.844194
| 22> 		H    2.063252   0.694917   0.013586
| 23> *
| 24>
| 25>                          ****END OF INPUT****

CARTESIAN COORDINATES (ANGSTROEM)
---------------------------------
  C     -1.223880   -0.348539   -0.047166
  O     -1.722021   -1.060620   -0.975581
  C      0.005151    0.461722   -0.171007
  C      1.197533    0.077994    0.229936
  H     -1.601877   -0.305130    0.983119
  H     -0.003390    1.324607   -0.887147
  H      1.265698   -0.782381    0.844194
  H      2.063252    0.694917    0.013586

 Total Charge           Charge          ....    0
 Multiplicity           Mult            ....    1
 Number of Electrons    NEL             ....   30
 Basis Dimension        Dim             ....   24

ORBITAL ENERGIES
----------------

  NO   OCC          E(Eh)            E(eV)
   0   2.0000     -20.367829      -554.2368
   1   2.0000     -11.293797      -307.3198
   2   2.0000     -11.192128      -304.5533
   3   2.0000     -11.185192      -304.3645
   4   2.0000      -1.365325       -37.1524
   5   2.0000      -1.090555       -29.6755
   6   2.0000      -0.896088       -24.3838
   7   2.0000      -0.764952       -20.8154
   8   2.0000      -0.674698       -18.3595
   9   2.0000      -0.636785       -17.3278
  10   2.0000      -0.594909       -16.1883
  11   2.0000      -0.546898       -14.8819
  12   2.0000      -0.481286       -13.0965
  13   2.0000      -0.420294       -11.4368
  14   2.0000      -0.406923       -11.0729
  15   0.0000       0.156084         4.2473
  16   0.0000       0.224855         6.1186
  17   0.0000       0.572425        15.5765
  18   0.0000       0.608486        16.5577
  19   0.0000       0.672270        18.2934

MULLIKEN ATOMIC CHARGES
-----------------------
   0 C :    0.153747
   1 O :   -0.327601
   2 C :   -0.165599
   3 C :   -0.248297
   4 H :    0.143834
   5 H :    0.155409
   6 H :    0.139835
   7 H :    0.148672
Sum of atomic charges:    0.0000000

LOEWDIN ATOMIC CHARGES
----------------------
   0 C :    0.152823
   1 O :   -0.250582
   2 C :   -0.119600
   3 C :   -0.153795
   4 H :    0.080495
   5 H :    0.104839
   6 H :    0.088168
   7 H :    0.097652

  Mayer bond orders larger than 0.100000
B(  0-C ,  1-O ) :   1.9411 B(  0-C ,  2-C ) :   1.0036 B(  0-C ,  4-H ) :   0.9252
B(  2-C ,  3-C ) :   1.9897 B(  2-C ,  5-H ) :   0.9435 B(  3-C ,  6-H ) :   0.9655
B(  3-C ,  7-H ) :   0.9621

-----------------------------------------------------------------------------
         ABSORPTION SPECTRUM VIA TRANSITION ELECTRIC DIPOLE MOMENTS
-----------------------------------------------------------------------------
State   Energy    Wavelength  fosc         T2        TX        TY        TZ
        (cm-1)      (nm)                 (au**2)    (au)      (au)      (au)
-----------------------------------------------------------------------------
   1   31155.6    321.0   0.000022245   0.00024  -0.01323  -0.00644  -0.00432

Dispersion correction           -0.025225651
FINAL SINGLE POINT ENERGY      -189.333711314684

DIPOLE MOMENT
-------------
                                X             Y             Z
Electronic contribution:     -2.79639      -1.19027      -1.18801
Nuclear contribution   :      3.34340       1.78157       1.85514
                        -----------------------------------------
Total Dipole Moment    :      0.54701       0.59130       0.66713
                        -----------------------------------------
Magnitude (a.u.)       :      1.04590
Magnitude (Debye)      :      2.65848

Rotational constants in cm-1:     1.056575     0.157777     0.155236
Rotational constants in MHz : 31675.331335  4730.039095  4653.871835

                             ****ORCA TERMINATED NORMALLY****
TOTAL RUN TIME: 0 days 0 hours 0 minutes 13 seconds 206 msec
