                         Program Version 5.0.3 -  RELEASE  -
|  1> ! B3LYP cc-pVDZ
|  2> !TightSCF
|  3> %scf
|  4>  ConvForced true
|  5>  convergence tight
|  6>  MaxIter 500
|  7> end
|  8>
|  9> %tddft
| 10>  nroots 1
| 11> end
| 12>
| 13> # 	6078
| 14> * xyz 0 1
| 15> 		C   -1.186504  -0.332832  -0.112037
| 16> 		O   -2.118790  -0.359557  -0.779733
| 17> 		C    0.084719   0.386622  -0.425702
| 18> 		C    1.193660   0.118265   0.281715
| 19> 		H   -1.156976  -0.944564   0.906892
| 20> 		H    0.010653   1.030232  -1.163414
| 21> 		H    1.092569  -0.596199   1.079783
| 22> 		H    2.014602   0.683860   0.196566
| 23> *
| 24>
| 25>                          ****END OF INPUT****

CARTESIAN COORDINATES (ANGSTROEM)
---------------------------------
  C     -1.186504   -0.332832   -0.112037
  O     -2.118790   -0.359557   -0.779733
  C      0.084719    0.386622   -0.425702
  C      1.193660    0.118265    0.281715
  H     -1.156976   -0.944564    0.906892
  H      0.010653    1.030232   -1.163414
  H      1.092569   -0.596199    1.079783
  H      2.014602    0.683860    0.196566

 Total Charge           Charge          ....    0
 Multiplicity           Mult            ....    1
 Number of Electrons    NEL             ....   30
 Basis Dimension        Dim             ....   76

ORBITAL ENERGIES
----------------

  NO   OCC          E(Eh)            E(eV)
   0   2.0000     -19.141434      -520.8649
   1   2.0000     -10.274805      -279.5916
   2   2.0000     -10.206558      -277.7346
   3   2.0000     -10.196459      -277.4598
   4   2.0000      -1.085911       -29.5492
   5   2.0000      -0.804765       -21.8988
   6   2.0000      -0.648396       -17.6437
   7   2.0000      -0.573662       -15.6101
   8   2.0000      -0.486765       -13.2455
   9   2.0000      -0.475602       -12.9418
  10   2.0000      -0.432825       -11.7778
  11   2.0000      -0.417572       -11.3627
  12   2.0000      -0.406738       -11.0679
  13   2.0000      -0.294017        -8.0006
  14   2.0000      -0.253362        -6.8943
  15   0.0000      -0.057364        -1.5610
  16   0.0000       0.056245         1.5305
  17   0.0000       0.079287         2.1575
  18   0.0000       0.094728         2.5777
  19   0.0000       0.127395         3.4666

MULLIKEN ATOMIC CHARGES
-----------------------
   0 C :    0.127194
   1 O :   -0.130425
   2 C :   -0.036303
   3 C :    0.128654
   4 H :   -0.046650
   5 H :   -0.060264
   6 H :    0.016277
   7 H :    0.001516
Sum of atomic charges:   -0.0000000

LOEWDIN ATOMIC CHARGES
----------------------
   0 C :   -0.079717
   1 O :    0.064468
   2 C :   -0.028980
   3 C :    0.030706
   4 H :   -0.018628
   5 H :   -0.003425
   6 H :    0.028262
   7 H :    0.007314

  Mayer bond orders larger than 0.100000
B(  0-C ,  1-O ) :   2.2546 B(  0-C ,  2-C ) :   1.0476 B(  0-C ,  4-H ) :   0.8872
B(  2-C ,  3-C ) :   1.9630 B(  2-C ,  5-H ) :   0.9586 B(  3-C ,  6-H ) :   0.9344
B(  3-C ,  7-H ) :   0.9403

-----------------------------------------------------------------------------
         ABSORPTION SPECTRUM VIA TRANSITION ELECTRIC DIPOLE MOMENTS
-----------------------------------------------------------------------------
State   Energy    Wavelength  fosc         T2        TX        TY        TZ
        (cm-1)      (nm)                 (au**2)    (au)      (au)      (au)
-----------------------------------------------------------------------------
   1   30874.7    323.9   0.000244556   0.00261   0.03109  -0.03614   0.01830

FINAL SINGLE POINT ENERGY      -191.643931883709

DIPOLE MOMENT
-------------
                                X             Y             Z
Electronic contribution:     -2.98136      -0.18815      -1.54978
Nuclear contribution   :      3.87928       0.39325       1.92113
                        -----------------------------------------
Total Dipole Moment    :      0.89792       0.20510       0.37135
                        -----------------------------------------
Magnitude (a.u.)       :      0.99309
Magnitude (Debye)      :      2.52424

Rotational constants in cm-1:     1.582818     0.159245     0.145386
Rotational constants in MHz : 47451.683338  4774.055043  4358.563642

                             ****ORCA TERMINATED NORMALLY****
TOTAL RUN TIME: 0 days 0 hours 3 minutes 0 seconds 718 msec
