                         Program Version 5.0.3 -  RELEASE  -
|  1> ! B3LYP cc-pVDZ
|  2> !TightSCF
|  3> %scf
|  4>  ConvForced true
|  5>  convergence tight
|  6>  MaxIter 500
|  7> end
|  8>
|  9> %tddft
| 10>  nroots 1
| 11> end
| 12>
| 13> # 	30011
| 14> * xyz 0 1
| 15> 		C   -0.593050  -0.416661   0.015716
| 16> 		O   -0.576852  -1.646771  -0.024242
| 17> 		C    0.666524   0.401259  -0.012343
| 18> 		C    1.811751  -0.135785   0.021217
| 19> 		H   -1.419727   0.269496   0.238798
| 20> 		H    0.446371   1.576172  -0.187712
| 21> 		H    2.110096  -1.211533   0.130858
| 22> 		H    2.548943   0.610620  -0.109940
| 23> *
| 24>
| 25>                          ****END OF INPUT****

CARTESIAN COORDINATES (ANGSTROEM)
---------------------------------
  C     -0.593050   -0.416661    0.015716
  O     -0.576852   -1.646771   -0.024242
  C      0.666524    0.401259   -0.012343
  C      1.811751   -0.135785    0.021217
  H     -1.419727    0.269496    0.238798
  H      0.446371    1.576172   -0.187712
  H      2.110096   -1.211533    0.130858
  H      2.548943    0.610620   -0.109940

 Total Charge           Charge          ....    0
 Multiplicity           Mult            ....    1
 Number of Electrons    NEL             ....   30
 Basis Dimension        Dim             ....   76

ORBITAL ENERGIES
----------------

  NO   OCC          E(Eh)            E(eV)
   0   2.0000     -19.143906      -520.9322
   1   2.0000     -10.276183      -279.6291
   2   2.0000     -10.203149      -277.6418
   3   2.0000     -10.200223      -277.5622
   4   2.0000      -1.036949       -28.2168
   5   2.0000      -0.806168       -21.9369
   6   2.0000      -0.661760       -18.0074
   7   2.0000      -0.531559       -14.4644
   8   2.0000      -0.502293       -13.6681
   9   2.0000      -0.451329       -12.2813
  10   2.0000      -0.423314       -11.5190
  11   2.0000      -0.390977       -10.6390
  12   2.0000      -0.370339       -10.0774
  13   2.0000      -0.297361        -8.0916
  14   2.0000      -0.255365        -6.9488
  15   0.0000      -0.065944        -1.7944
  16   0.0000       0.049057         1.3349
  17   0.0000       0.066387         1.8065
  18   0.0000       0.089457         2.4343
  19   0.0000       0.117009         3.1840

MULLIKEN ATOMIC CHARGES
-----------------------
   0 C :    0.206704
   1 O :   -0.203534
   2 C :   -0.196250
   3 C :    0.128392
   4 H :   -0.015010
   5 H :    0.017192
   6 H :    0.047715
   7 H :    0.014791
Sum of atomic charges:   -0.0000000

LOEWDIN ATOMIC CHARGES
----------------------
   0 C :   -0.014432
   1 O :   -0.016504
   2 C :   -0.097859
   3 C :    0.010547
   4 H :   -0.006915
   5 H :    0.045418
   6 H :    0.047718
   7 H :    0.032027

  Mayer bond orders larger than 0.100000
B(  0-C ,  1-O ) :   2.1910 B(  0-C ,  2-C ) :   1.0517 B(  0-C ,  4-H ) :   0.9123
B(  2-C ,  3-C ) :   1.9966 B(  2-C ,  5-H ) :   0.9245 B(  3-C ,  6-H ) :   0.9361
B(  3-C ,  7-H ) :   0.9145

-----------------------------------------------------------------------------
         ABSORPTION SPECTRUM VIA TRANSITION ELECTRIC DIPOLE MOMENTS
-----------------------------------------------------------------------------
State   Energy    Wavelength  fosc         T2        TX        TY        TZ
        (cm-1)      (nm)                 (au**2)    (au)      (au)      (au)
-----------------------------------------------------------------------------
   1   28018.5    356.9   0.000211294   0.00248  -0.02828   0.01139   0.03941

FINAL SINGLE POINT ENERGY      -191.654837304520

DIPOLE MOMENT
-------------
                                X             Y             Z
Electronic contribution:     -1.93002      -2.07464      -0.05450
Nuclear contribution   :      2.29819       2.95165       0.06853
                        -----------------------------------------
Total Dipole Moment    :      0.36817       0.87702       0.01403
                        -----------------------------------------
Magnitude (a.u.)       :      0.95126
Magnitude (Debye)      :      2.41792

Rotational constants in cm-1:     0.750776     0.212522     0.166099
Rotational constants in MHz : 22507.696320  6371.250228  4979.522980

                             ****ORCA TERMINATED NORMALLY****
TOTAL RUN TIME: 0 days 0 hours 2 minutes 59 seconds 511 msec
