                         Program Version 5.0.3 -  RELEASE  -
|  1> ! B3LYP cc-pVDZ
|  2> !TightSCF
|  3> %scf
|  4>  ConvForced true
|  5>  convergence tight
|  6>  MaxIter 500
|  7> end
|  8>
|  9> %tddft
| 10>  nroots 1
| 11> end
| 12>
| 13> # 	21512
| 14> * xyz 0 1
| 15> 		C   -0.587726  -0.429241  -0.010653
| 16> 		O   -0.567691  -1.649414   0.012617
| 17> 		C    0.601693   0.455043  -0.048210
| 18> 		C    1.857683  -0.144549   0.032926
| 19> 		H   -1.438078   0.118898   0.049868
| 20> 		H    0.495553   1.550803   0.248520
| 21> 		H    1.913339  -1.168691  -0.162968
| 22> 		H    2.691400   0.345294  -0.014997
| 23> *
| 24>
| 25>                          ****END OF INPUT****

CARTESIAN COORDINATES (ANGSTROEM)
---------------------------------
  C     -0.587726   -0.429241   -0.010653
  O     -0.567691   -1.649414    0.012617
  C      0.601693    0.455043   -0.048210
  C      1.857683   -0.144549    0.032926
  H     -1.438078    0.118898    0.049868
  H      0.495553    1.550803    0.248520
  H      1.913339   -1.168691   -0.162968
  H      2.691400    0.345294   -0.014997

 Total Charge           Charge          ....    0
 Multiplicity           Mult            ....    1
 Number of Electrons    NEL             ....   30
 Basis Dimension        Dim             ....   76

ORBITAL ENERGIES
----------------

  NO   OCC          E(Eh)            E(eV)
   0   2.0000     -19.136901      -520.7415
   1   2.0000     -10.266851      -279.3752
   2   2.0000     -10.212710      -277.9020
   3   2.0000     -10.204024      -277.6656
   4   2.0000      -1.038764       -28.2662
   5   2.0000      -0.788158       -21.4469
   6   2.0000      -0.675241       -18.3743
   7   2.0000      -0.559938       -15.2367
   8   2.0000      -0.507472       -13.8090
   9   2.0000      -0.443076       -12.0567
  10   2.0000      -0.426499       -11.6056
  11   2.0000      -0.395024       -10.7492
  12   2.0000      -0.385506       -10.4901
  13   2.0000      -0.281423        -7.6579
  14   2.0000      -0.255935        -6.9643
  15   0.0000      -0.078468        -2.1352
  16   0.0000       0.045840         1.2474
  17   0.0000       0.075544         2.0556
  18   0.0000       0.103566         2.8182
  19   0.0000       0.131427         3.5763

MULLIKEN ATOMIC CHARGES
-----------------------
   0 C :    0.253938
   1 O :   -0.207150
   2 C :   -0.196653
   3 C :    0.162597
   4 H :   -0.042373
   5 H :    0.019256
   6 H :    0.025120
   7 H :   -0.014735
Sum of atomic charges:    0.0000000

LOEWDIN ATOMIC CHARGES
----------------------
   0 C :   -0.021169
   1 O :   -0.012104
   2 C :   -0.072390
   3 C :    0.072975
   4 H :   -0.020690
   5 H :    0.037986
   6 H :    0.023299
   7 H :   -0.007907

  Mayer bond orders larger than 0.100000
B(  0-C ,  1-O ) :   2.1714 B(  0-C ,  2-C ) :   1.0680 B(  0-C ,  4-H ) :   0.9337
B(  2-C ,  3-C ) :   1.9379 B(  2-C ,  5-H ) :   0.9416 B(  3-C ,  6-H ) :   0.9478
B(  3-C ,  7-H ) :   0.9511

-----------------------------------------------------------------------------
         ABSORPTION SPECTRUM VIA TRANSITION ELECTRIC DIPOLE MOMENTS
-----------------------------------------------------------------------------
State   Energy    Wavelength  fosc         T2        TX        TY        TZ
        (cm-1)      (nm)                 (au**2)    (au)      (au)      (au)
-----------------------------------------------------------------------------
   1   26543.1    376.7   0.000702903   0.00872  -0.09088  -0.01735  -0.01255

FINAL SINGLE POINT ENERGY      -191.656420977487

DIPOLE MOMENT
-------------
                                X             Y             Z
Electronic contribution:     -1.88695      -1.67247      -0.08798
Nuclear contribution   :      2.27900       2.58144       0.11238
                        -----------------------------------------
Total Dipole Moment    :      0.39205       0.90897       0.02439
                        -----------------------------------------
Magnitude (a.u.)       :      0.99022
Magnitude (Debye)      :      2.51693

Rotational constants in cm-1:     0.724623     0.211585     0.164202
Rotational constants in MHz : 21723.654580  6343.160561  4922.653073

                             ****ORCA TERMINATED NORMALLY****
TOTAL RUN TIME: 0 days 0 hours 3 minutes 20 seconds 890 msec
