                         Program Version 5.0.3 -  RELEASE  -
|  1> ! HF-3c
|  2> !TightSCF
|  3> %scf
|  4>  ConvForced true
|  5>  convergence tight
|  6>  MaxIter 500
|  7> end
|  8>
|  9> %tddft
| 10>  nroots 1
| 11> end
| 12>
| 13> # 	4426
| 14> * xyz 0 1
| 15> 		C   -1.199570  -0.337813   0.026280
| 16> 		O   -1.407737  -1.377311   0.599788
| 17> 		C    0.033410   0.470608   0.213536
| 18> 		C    1.246238   0.027354  -0.084210
| 19> 		H   -1.908370   0.034881  -0.728099
| 20> 		H   -0.147437   1.501353   0.372442
| 21> 		H    1.306477  -1.046610  -0.467427
| 22> 		H    2.085644   0.743661   0.073852
| 23> *
| 24>
| 25>                          ****END OF INPUT****

CARTESIAN COORDINATES (ANGSTROEM)
---------------------------------
  C     -1.199570   -0.337813    0.026280
  O     -1.407737   -1.377311    0.599788
  C      0.033410    0.470608    0.213536
  C      1.246238    0.027354   -0.084210
  H     -1.908370    0.034881   -0.728099
  H     -0.147437    1.501353    0.372442
  H      1.306477   -1.046610   -0.467427
  H      2.085644    0.743661    0.073852

 Total Charge           Charge          ....    0
 Multiplicity           Mult            ....    1
 Number of Electrons    NEL             ....   30
 Basis Dimension        Dim             ....   24

ORBITAL ENERGIES
----------------

  NO   OCC          E(Eh)            E(eV)
   0   2.0000     -20.372009      -554.3505
   1   2.0000     -11.297753      -307.4275
   2   2.0000     -11.184992      -304.3591
   3   2.0000     -11.183671      -304.3232
   4   2.0000      -1.407775       -38.3075
   5   2.0000      -1.080149       -29.3924
   6   2.0000      -0.885040       -24.0832
   7   2.0000      -0.750178       -20.4134
   8   2.0000      -0.700625       -19.0650
   9   2.0000      -0.617445       -16.8015
  10   2.0000      -0.602992       -16.4082
  11   2.0000      -0.543710       -14.7951
  12   2.0000      -0.512390       -13.9429
  13   2.0000      -0.413605       -11.2548
  14   2.0000      -0.398920       -10.8552
  15   0.0000       0.164371         4.4728
  16   0.0000       0.255630         6.9560
  17   0.0000       0.552998        15.0478
  18   0.0000       0.580241        15.7892
  19   0.0000       0.665665        18.1137

MULLIKEN ATOMIC CHARGES
-----------------------
   0 C :    0.166076
   1 O :   -0.346556
   2 C :   -0.178697
   3 C :   -0.224407
   4 H :    0.137734
   5 H :    0.142009
   6 H :    0.153739
   7 H :    0.150102
Sum of atomic charges:    0.0000000

LOEWDIN ATOMIC CHARGES
----------------------
   0 C :    0.147663
   1 O :   -0.249613
   2 C :   -0.133281
   3 C :   -0.135038
   4 H :    0.073863
   5 H :    0.089095
   6 H :    0.106034
   7 H :    0.101276

  Mayer bond orders larger than 0.100000
B(  0-C ,  1-O ) :   1.9348 B(  0-C ,  2-C ) :   1.0001 B(  0-C ,  4-H ) :   0.9208
B(  2-C ,  3-C ) :   1.9788 B(  2-C ,  5-H ) :   0.9544 B(  3-C ,  6-H ) :   0.9596
B(  3-C ,  7-H ) :   0.9608

-----------------------------------------------------------------------------
         ABSORPTION SPECTRUM VIA TRANSITION ELECTRIC DIPOLE MOMENTS
-----------------------------------------------------------------------------
State   Energy    Wavelength  fosc         T2        TX        TY        TZ
        (cm-1)      (nm)                 (au**2)    (au)      (au)      (au)
-----------------------------------------------------------------------------
   1   34312.1    291.4   0.000013439   0.00013  -0.00868  -0.00478   0.00555

Dispersion correction           -0.025469292
FINAL SINGLE POINT ENERGY      -189.326073030084

DIPOLE MOMENT
-------------
                                X             Y             Z
Electronic contribution:     -2.20636      -1.59804       0.87958
Nuclear contribution   :      2.59123       2.40466      -1.41374
                        -----------------------------------------
Total Dipole Moment    :      0.38487       0.80661      -0.53415
                        -----------------------------------------
Magnitude (a.u.)       :      1.04119
Magnitude (Debye)      :      2.64648

Rotational constants in cm-1:     0.878346     0.184580     0.161686
Rotational constants in MHz : 26332.157651  5533.567601  4847.224032

                             ****ORCA TERMINATED NORMALLY****
TOTAL RUN TIME: 0 days 0 hours 0 minutes 13 seconds 577 msec
