                         Program Version 5.0.3 -  RELEASE  -
|  1> ! HF-3c
|  2> !TightSCF
|  3> %scf
|  4>  ConvForced true
|  5>  convergence tight
|  6>  MaxIter 500
|  7> end
|  8>
|  9> %tddft
| 10>  nroots 1
| 11> end
| 12>
| 13> # 	744
| 14> * xyz 0 1
| 15> 		C   -1.207013  -0.286593   0.006966
| 16> 		O   -1.221489  -1.504886   0.168166
| 17> 		C   -0.037713   0.541999   0.030361
| 18> 		C    1.292499   0.010562  -0.009891
| 19> 		H   -2.234235   0.239777  -0.219940
| 20> 		H   -0.230384   1.591320   0.105547
| 21> 		H    1.330758  -1.068343   0.131029
| 22> 		H    2.293685   0.568700  -0.240786
| 23> *
| 24>
| 25>                          ****END OF INPUT****

CARTESIAN COORDINATES (ANGSTROEM)
---------------------------------
  C     -1.207013   -0.286593    0.006966
  O     -1.221489   -1.504886    0.168166
  C     -0.037713    0.541999    0.030361
  C      1.292499    0.010562   -0.009891
  H     -2.234235    0.239777   -0.219940
  H     -0.230384    1.591320    0.105547
  H      1.330758   -1.068343    0.131029
  H      2.293685    0.568700   -0.240786

 Total Charge           Charge          ....    0
 Multiplicity           Mult            ....    1
 Number of Electrons    NEL             ....   30
 Basis Dimension        Dim             ....   24

ORBITAL ENERGIES
----------------

  NO   OCC          E(Eh)            E(eV)
   0   2.0000     -20.341102      -553.5095
   1   2.0000     -11.283434      -307.0378
   2   2.0000     -11.196581      -304.6745
   3   2.0000     -11.180867      -304.2469
   4   2.0000      -1.377181       -37.4750
   5   2.0000      -1.052939       -28.6519
   6   2.0000      -0.886406       -24.1203
   7   2.0000      -0.731279       -19.8991
   8   2.0000      -0.686180       -18.6719
   9   2.0000      -0.598416       -16.2837
  10   2.0000      -0.577449       -15.7132
  11   2.0000      -0.538634       -14.6570
  12   2.0000      -0.513713       -13.9788
  13   2.0000      -0.404206       -10.9990
  14   2.0000      -0.361018        -9.8238
  15   0.0000       0.111781         3.0417
  16   0.0000       0.297092         8.0843
  17   0.0000       0.505913        13.7666
  18   0.0000       0.601939        16.3796
  19   0.0000       0.659443        17.9444

MULLIKEN ATOMIC CHARGES
-----------------------
   0 C :    0.153520
   1 O :   -0.363649
   2 C :   -0.188489
   3 C :   -0.184011
   4 H :    0.134167
   5 H :    0.137435
   6 H :    0.155145
   7 H :    0.155883
Sum of atomic charges:   -0.0000000

LOEWDIN ATOMIC CHARGES
----------------------
   0 C :    0.136455
   1 O :   -0.277017
   2 C :   -0.148634
   3 C :   -0.085273
   4 H :    0.077808
   5 H :    0.085658
   6 H :    0.101022
   7 H :    0.109981

  Mayer bond orders larger than 0.100000
B(  0-C ,  1-O ) :   1.8717 B(  0-C ,  2-C ) :   1.0735 B(  0-C ,  4-H ) :   0.9197
B(  2-C ,  3-C ) :   1.8903 B(  2-C ,  5-H ) :   0.9637 B(  3-C ,  6-H ) :   0.9622
B(  3-C ,  7-H ) :   0.9626

-----------------------------------------------------------------------------
         ABSORPTION SPECTRUM VIA TRANSITION ELECTRIC DIPOLE MOMENTS
-----------------------------------------------------------------------------
State   Energy    Wavelength  fosc         T2        TX        TY        TZ
        (cm-1)      (nm)                 (au**2)    (au)      (au)      (au)
-----------------------------------------------------------------------------
   1   30790.4    324.8   0.000008089   0.00009   0.00091  -0.00257  -0.00889

Dispersion correction           -0.025107552
FINAL SINGLE POINT ENERGY      -189.324306256484

DIPOLE MOMENT
-------------
                                X             Y             Z
Electronic contribution:     -1.76605      -1.59621       0.23992
Nuclear contribution   :      2.26619       2.53997      -0.39557
                        -----------------------------------------
Total Dipole Moment    :      0.50014       0.94376      -0.15564
                        -----------------------------------------
Magnitude (a.u.)       :      1.07937
Magnitude (Debye)      :      2.74355

Rotational constants in cm-1:     0.730764     0.201642     0.158657
Rotational constants in MHz : 21907.749771  6045.065759  4756.415422

                             ****ORCA TERMINATED NORMALLY****
TOTAL RUN TIME: 0 days 0 hours 0 minutes 12 seconds 441 msec
