                         Program Version 5.0.3 -  RELEASE  -
|  1> ! B3LYP cc-pVDZ
|  2> !TightSCF
|  3> %scf
|  4>  ConvForced true
|  5>  convergence tight
|  6>  MaxIter 500
|  7> end
|  8>
|  9> %tddft
| 10>  nroots 1
| 11> end
| 12>
| 13> # 	1488
| 14> * xyz 0 1
| 15> 		C   -1.240041  -0.381200  -0.033958
| 16> 		O   -1.553380  -1.201279   0.754151
| 17> 		C    0.009192   0.380672   0.272662
| 18> 		C    1.197532   0.005558  -0.112844
| 19> 		H   -1.674959  -0.048642  -0.997417
| 20> 		H   -0.160269   1.430683   0.695183
| 21> 		H    1.359141  -0.937926  -0.567309
| 22> 		H    2.102505   0.723064  -0.010965
| 23> *
| 24>
| 25>                          ****END OF INPUT****

CARTESIAN COORDINATES (ANGSTROEM)
---------------------------------
  C     -1.240041   -0.381200   -0.033958
  O     -1.553380   -1.201279    0.754151
  C      0.009192    0.380672    0.272662
  C      1.197532    0.005558   -0.112844
  H     -1.674959   -0.048642   -0.997417
  H     -0.160269    1.430683    0.695183
  H      1.359141   -0.937926   -0.567309
  H      2.102505    0.723064   -0.010965

 Total Charge           Charge          ....    0
 Multiplicity           Mult            ....    1
 Number of Electrons    NEL             ....   30
 Basis Dimension        Dim             ....   76

ORBITAL ENERGIES
----------------

  NO   OCC          E(Eh)            E(eV)
   0   2.0000     -19.149071      -521.0727
   1   2.0000     -10.282330      -279.7964
   2   2.0000     -10.198155      -277.5059
   3   2.0000     -10.197033      -277.4754
   4   2.0000      -1.073986       -29.2246
   5   2.0000      -0.792459       -21.5639
   6   2.0000      -0.648246       -17.6397
   7   2.0000      -0.552840       -15.0435
   8   2.0000      -0.495181       -13.4746
   9   2.0000      -0.458342       -12.4721
  10   2.0000      -0.448572       -12.2063
  11   2.0000      -0.392225       -10.6730
  12   2.0000      -0.374286       -10.1848
  13   2.0000      -0.288366        -7.8468
  14   2.0000      -0.252130        -6.8608
  15   0.0000      -0.029111        -0.7922
  16   0.0000       0.002693         0.0733
  17   0.0000       0.072390         1.9698
  18   0.0000       0.095220         2.5911
  19   0.0000       0.100544         2.7359

MULLIKEN ATOMIC CHARGES
-----------------------
   0 C :    0.173258
   1 O :   -0.153013
   2 C :   -0.106916
   3 C :    0.024145
   4 H :   -0.003153
   5 H :    0.021726
   6 H :    0.006494
   7 H :    0.037459
Sum of atomic charges:    0.0000000

LOEWDIN ATOMIC CHARGES
----------------------
   0 C :   -0.037005
   1 O :    0.047351
   2 C :   -0.066243
   3 C :   -0.044708
   4 H :   -0.003033
   5 H :    0.042715
   6 H :    0.016928
   7 H :    0.043996

  Mayer bond orders larger than 0.100000
B(  0-C ,  1-O ) :   2.2551 B(  0-C ,  2-C ) :   0.9826 B(  0-C ,  4-H ) :   0.9055
B(  2-C ,  3-C ) :   2.0635 B(  2-C ,  5-H ) :   0.9209 B(  3-C ,  6-H ) :   0.9406
B(  3-C ,  7-H ) :   0.9385

-----------------------------------------------------------------------------
         ABSORPTION SPECTRUM VIA TRANSITION ELECTRIC DIPOLE MOMENTS
-----------------------------------------------------------------------------
State   Energy    Wavelength  fosc         T2        TX        TY        TZ
        (cm-1)      (nm)                 (au**2)    (au)      (au)      (au)
-----------------------------------------------------------------------------
   1   33760.5    296.2   0.000043906   0.00043  -0.01043   0.00897  -0.01546

FINAL SINGLE POINT ENERGY      -191.629786840635

DIPOLE MOMENT
-------------
                                X             Y             Z
Electronic contribution:     -2.79552      -1.67094       1.12346
Nuclear contribution   :      3.08970       2.28566      -1.66767
                        -----------------------------------------
Total Dipole Moment    :      0.29419       0.61472      -0.54422
                        -----------------------------------------
Magnitude (a.u.)       :      0.87213
Magnitude (Debye)      :      2.21677

Rotational constants in cm-1:     0.959602     0.177047     0.166834
Rotational constants in MHz : 28768.154288  5307.732752  5001.570611

                             ****ORCA TERMINATED NORMALLY****
TOTAL RUN TIME: 0 days 0 hours 3 minutes 23 seconds 14 msec
