                         Program Version 5.0.3 -  RELEASE  -
|  1> ! B3LYP cc-pVDZ
|  2> !TightSCF
|  3> %scf
|  4>  ConvForced true
|  5>  convergence tight
|  6>  MaxIter 500
|  7> end
|  8>
|  9> %tddft
| 10>  nroots 1
| 11> end
| 12>
| 13> # 	11374
| 14> * xyz 0 1
| 15> 		C   -1.127875  -0.374182  -0.041201
| 16> 		O   -2.008784  -0.528410   0.844869
| 17> 		C    0.013272   0.497381   0.245154
| 18> 		C    1.250720   0.028799  -0.243254
| 19> 		H   -1.411328  -0.803231  -0.952170
| 20> 		H   -0.080261   1.450067   1.052625
| 21> 		H    1.281229  -0.852233  -0.909418
| 22> 		H    2.124562   0.673972   0.012493
| 23> *
| 24>
| 25>                          ****END OF INPUT****

CARTESIAN COORDINATES (ANGSTROEM)
---------------------------------
  C     -1.127875   -0.374182   -0.041201
  O     -2.008784   -0.528410    0.844869
  C      0.013272    0.497381    0.245154
  C      1.250720    0.028799   -0.243254
  H     -1.411328   -0.803231   -0.952170
  H     -0.080261    1.450067    1.052625
  H      1.281229   -0.852233   -0.909418
  H      2.124562    0.673972    0.012493

 Total Charge           Charge          ....    0
 Multiplicity           Mult            ....    1
 Number of Electrons    NEL             ....   30
 Basis Dimension        Dim             ....   76

ORBITAL ENERGIES
----------------

  NO   OCC          E(Eh)            E(eV)
   0   2.0000     -19.128626      -520.5164
   1   2.0000     -10.269938      -279.4592
   2   2.0000     -10.231286      -278.4075
   3   2.0000     -10.228129      -278.3216
   4   2.0000      -1.016854       -27.6700
   5   2.0000      -0.787125       -21.4188
   6   2.0000      -0.642133       -17.4733
   7   2.0000      -0.568151       -15.4602
   8   2.0000      -0.484952       -13.1962
   9   2.0000      -0.450428       -12.2568
  10   2.0000      -0.410406       -11.1677
  11   2.0000      -0.392442       -10.6789
  12   2.0000      -0.363579        -9.8935
  13   2.0000      -0.280917        -7.6441
  14   2.0000      -0.247559        -6.7364
  15   0.0000      -0.069144        -1.8815
  16   0.0000       0.011300         0.3075
  17   0.0000       0.057858         1.5744
  18   0.0000       0.073906         2.0111
  19   0.0000       0.115784         3.1506

MULLIKEN ATOMIC CHARGES
-----------------------
   0 C :    0.211605
   1 O :   -0.244262
   2 C :   -0.129620
   3 C :    0.012128
   4 H :   -0.011277
   5 H :    0.070865
   6 H :    0.042825
   7 H :    0.047735
Sum of atomic charges:   -0.0000000

LOEWDIN ATOMIC CHARGES
----------------------
   0 C :   -0.010224
   1 O :   -0.050471
   2 C :   -0.062717
   3 C :   -0.013564
   4 H :   -0.002837
   5 H :    0.070002
   6 H :    0.032701
   7 H :    0.037109

  Mayer bond orders larger than 0.100000
B(  0-C ,  1-O ) :   2.0886 B(  0-C ,  2-C ) :   1.0654 B(  0-C ,  4-H ) :   0.9530
B(  2-C ,  3-C ) :   1.8997 B(  2-C ,  5-H ) :   0.9312 B(  3-C ,  6-H ) :   0.9480
B(  3-C ,  7-H ) :   0.9461

-----------------------------------------------------------------------------
         ABSORPTION SPECTRUM VIA TRANSITION ELECTRIC DIPOLE MOMENTS
-----------------------------------------------------------------------------
State   Energy    Wavelength  fosc         T2        TX        TY        TZ
        (cm-1)      (nm)                 (au**2)    (au)      (au)      (au)
-----------------------------------------------------------------------------
   1   26305.1    380.2   0.002142156   0.02681   0.15892   0.03939  -0.00175

FINAL SINGLE POINT ENERGY      -191.654056038975

DIPOLE MOMENT
-------------
                                X             Y             Z
Electronic contribution:     -2.76048      -0.60686       0.92539
Nuclear contribution   :      3.68633       0.84548      -1.55741
                        -----------------------------------------
Total Dipole Moment    :      0.92585       0.23861      -0.63202
                        -----------------------------------------
Magnitude (a.u.)       :      1.14611
Magnitude (Debye)      :      2.91319

Rotational constants in cm-1:     1.178877     0.158752     0.146539
Rotational constants in MHz : 35341.850640  4759.258453  4393.125379

                             ****ORCA TERMINATED NORMALLY****
TOTAL RUN TIME: 0 days 0 hours 3 minutes 18 seconds 543 msec
