                         Program Version 5.0.3 -  RELEASE  -
|  1> ! B3LYP cc-pVDZ
|  2> !TightSCF
|  3> %scf
|  4>  ConvForced true
|  5>  convergence tight
|  6>  MaxIter 500
|  7> end
|  8>
|  9> %tddft
| 10>  nroots 1
| 11> end
| 12>
| 13> # 	27085
| 14> * xyz 0 1
| 15> 		C   -0.618558  -0.443612  -0.049486
| 16> 		O   -0.511151  -1.597856   0.006445
| 17> 		C    0.603186   0.471290   0.069955
| 18> 		C    1.811044  -0.209724  -0.010795
| 19> 		H   -1.534139   0.162714   0.017184
| 20> 		H    0.554080   1.501419  -0.109250
| 21> 		H    1.879495  -1.213620   0.138325
| 22> 		H    2.758002   0.344155  -0.285723
| 23> *
| 24>
| 25>                          ****END OF INPUT****

CARTESIAN COORDINATES (ANGSTROEM)
---------------------------------
  C     -0.618558   -0.443612   -0.049486
  O     -0.511151   -1.597856    0.006445
  C      0.603186    0.471290    0.069955
  C      1.811044   -0.209724   -0.010795
  H     -1.534139    0.162714    0.017184
  H      0.554080    1.501419   -0.109250
  H      1.879495   -1.213620    0.138325
  H      2.758002    0.344155   -0.285723

 Total Charge           Charge          ....    0
 Multiplicity           Mult            ....    1
 Number of Electrons    NEL             ....   30
 Basis Dimension        Dim             ....   76

ORBITAL ENERGIES
----------------

  NO   OCC          E(Eh)            E(eV)
   0   2.0000     -19.140920      -520.8509
   1   2.0000     -10.274449      -279.5820
   2   2.0000     -10.209378      -277.8113
   3   2.0000     -10.197746      -277.4948
   4   2.0000      -1.077676       -29.3250
   5   2.0000      -0.777630       -21.1604
   6   2.0000      -0.648356       -17.6427
   7   2.0000      -0.551225       -14.9996
   8   2.0000      -0.505184       -13.7467
   9   2.0000      -0.455741       -12.4013
  10   2.0000      -0.417567       -11.3626
  11   2.0000      -0.410498       -11.1702
  12   2.0000      -0.392370       -10.6769
  13   2.0000      -0.274261        -7.4630
  14   2.0000      -0.255218        -6.9448
  15   0.0000      -0.066136        -1.7997
  16   0.0000       0.050827         1.3831
  17   0.0000       0.077389         2.1059
  18   0.0000       0.096271         2.6197
  19   0.0000       0.129187         3.5154

MULLIKEN ATOMIC CHARGES
-----------------------
   0 C :    0.192603
   1 O :   -0.148285
   2 C :   -0.128537
   3 C :    0.074793
   4 H :   -0.023589
   5 H :   -0.019826
   6 H :    0.015061
   7 H :    0.037781
Sum of atomic charges:   -0.0000000

LOEWDIN ATOMIC CHARGES
----------------------
   0 C :   -0.057681
   1 O :    0.048744
   2 C :   -0.076600
   3 C :    0.046427
   4 H :   -0.012107
   5 H :    0.010324
   6 H :    0.004547
   7 H :    0.036345

  Mayer bond orders larger than 0.100000
B(  0-C ,  1-O ) :   2.2431 B(  0-C ,  2-C ) :   1.0165 B(  0-C ,  4-H ) :   0.9143
B(  2-C ,  3-C ) :   1.9561 B(  2-C ,  5-H ) :   0.9470 B(  3-C ,  6-H ) :   0.9440
B(  3-C ,  7-H ) :   0.9560

-----------------------------------------------------------------------------
         ABSORPTION SPECTRUM VIA TRANSITION ELECTRIC DIPOLE MOMENTS
-----------------------------------------------------------------------------
State   Energy    Wavelength  fosc         T2        TX        TY        TZ
        (cm-1)      (nm)                 (au**2)    (au)      (au)      (au)
-----------------------------------------------------------------------------
   1   29280.3    341.5   0.000835697   0.00940  -0.09492  -0.01577   0.01175

FINAL SINGLE POINT ENERGY      -191.651603904568

DIPOLE MOMENT
-------------
                                X             Y             Z
Electronic contribution:     -2.01139      -1.77855       0.12341
Nuclear contribution   :      2.27622       2.53292      -0.22308
                        -----------------------------------------
Total Dipole Moment    :      0.26482       0.75437      -0.09967
                        -----------------------------------------
Magnitude (a.u.)       :      0.80569
Magnitude (Debye)      :      2.04791

Rotational constants in cm-1:     0.705845     0.224379     0.170961
Rotational constants in MHz : 21160.715331  6726.718688  5125.273970

                             ****ORCA TERMINATED NORMALLY****
TOTAL RUN TIME: 0 days 0 hours 3 minutes 22 seconds 544 msec
