                         Program Version 5.0.3 -  RELEASE  -
|  1> ! HF-3c
|  2> !TightSCF
|  3> %scf
|  4>  ConvForced true
|  5>  convergence tight
|  6>  MaxIter 500
|  7> end
|  8>
|  9> %tddft
| 10>  nroots 1
| 11> end
| 12>
| 13> # 	21939
| 14> * xyz 0 1
| 15> 		C   -0.623817  -0.419366   0.019804
| 16> 		O   -0.555593  -1.640056  -0.013168
| 17> 		C    0.628910   0.463486  -0.044078
| 18> 		C    1.835386  -0.161659   0.020758
| 19> 		H   -1.604380  -0.153099   0.217681
| 20> 		H    0.533964   1.594900  -0.056254
| 21> 		H    2.102369  -1.157382  -0.020134
| 22> 		H    2.828265   0.397235   0.109855
| 23> *
| 24>
| 25>                          ****END OF INPUT****

CARTESIAN COORDINATES (ANGSTROEM)
---------------------------------
  C     -0.623817   -0.419366    0.019804
  O     -0.555593   -1.640056   -0.013168
  C      0.628910    0.463486   -0.044078
  C      1.835386   -0.161659    0.020758
  H     -1.604380   -0.153099    0.217681
  H      0.533964    1.594900   -0.056254
  H      2.102369   -1.157382   -0.020134
  H      2.828265    0.397235    0.109855

 Total Charge           Charge          ....    0
 Multiplicity           Mult            ....    1
 Number of Electrons    NEL             ....   30
 Basis Dimension        Dim             ....   24

ORBITAL ENERGIES
----------------

  NO   OCC          E(Eh)            E(eV)
   0   2.0000     -20.351556      -553.7940
   1   2.0000     -11.287045      -307.1361
   2   2.0000     -11.194439      -304.6162
   3   2.0000     -11.188085      -304.4433
   4   2.0000      -1.391732       -37.8710
   5   2.0000      -1.056815       -28.7574
   6   2.0000      -0.878490       -23.9049
   7   2.0000      -0.771953       -21.0059
   8   2.0000      -0.692798       -18.8520
   9   2.0000      -0.614555       -16.7229
  10   2.0000      -0.577157       -15.7052
  11   2.0000      -0.529045       -14.3961
  12   2.0000      -0.521305       -14.1854
  13   2.0000      -0.412776       -11.2322
  14   2.0000      -0.384913       -10.4740
  15   0.0000       0.135471         3.6864
  16   0.0000       0.288246         7.8436
  17   0.0000       0.499847        13.6015
  18   0.0000       0.560041        15.2395
  19   0.0000       0.670782        18.2529

MULLIKEN ATOMIC CHARGES
-----------------------
   0 C :    0.135072
   1 O :   -0.348907
   2 C :   -0.160275
   3 C :   -0.217799
   4 H :    0.148143
   5 H :    0.150076
   6 H :    0.153812
   7 H :    0.139878
Sum of atomic charges:   -0.0000000

LOEWDIN ATOMIC CHARGES
----------------------
   0 C :    0.128284
   1 O :   -0.259765
   2 C :   -0.119215
   3 C :   -0.118148
   4 H :    0.078344
   5 H :    0.101069
   6 H :    0.095133
   7 H :    0.094298

  Mayer bond orders larger than 0.100000
B(  0-C ,  1-O ) :   1.9072 B(  0-C ,  2-C ) :   1.0099 B(  0-C ,  4-H ) :   0.9416
B(  2-C ,  3-C ) :   1.9549 B(  2-C ,  5-H ) :   0.9573 B(  3-C ,  6-H ) :   0.9644
B(  3-C ,  7-H ) :   0.9645

-----------------------------------------------------------------------------
         ABSORPTION SPECTRUM VIA TRANSITION ELECTRIC DIPOLE MOMENTS
-----------------------------------------------------------------------------
State   Energy    Wavelength  fosc         T2        TX        TY        TZ
        (cm-1)      (nm)                 (au**2)    (au)      (au)      (au)
-----------------------------------------------------------------------------
   1   31162.5    320.9   0.000019075   0.00020   0.00825   0.00549  -0.01017

Dispersion correction           -0.024969662
FINAL SINGLE POINT ENERGY      -189.326286350850

DIPOLE MOMENT
-------------
                                X             Y             Z
Electronic contribution:     -2.13408      -1.50372      -0.16684
Nuclear contribution   :      2.46368       2.42723       0.23541
                        -----------------------------------------
Total Dipole Moment    :      0.32960       0.92350       0.06857
                        -----------------------------------------
Magnitude (a.u.)       :      0.98295
Magnitude (Debye)      :      2.49847

Rotational constants in cm-1:     0.718955     0.208314     0.161823
Rotational constants in MHz : 21553.737448  6245.091048  4851.338420

                             ****ORCA TERMINATED NORMALLY****
TOTAL RUN TIME: 0 days 0 hours 0 minutes 11 seconds 397 msec
