                         Program Version 5.0.3 -  RELEASE  -
|  1> ! HF-3c
|  2> !TightSCF
|  3> %scf
|  4>  ConvForced true
|  5>  convergence tight
|  6>  MaxIter 500
|  7> end
|  8>
|  9> %tddft
| 10>  nroots 1
| 11> end
| 12>
| 13> # 	32428
| 14> * xyz 0 1
| 15> 		C   -0.568601  -0.424638  -0.053937
| 16> 		O   -0.553263  -1.604654   0.017683
| 17> 		C    0.600918   0.421159   0.044488
| 18> 		C    1.817571  -0.169009  -0.007326
| 19> 		H   -1.523634   0.187247   0.010606
| 20> 		H    0.503827   1.377641   0.036271
| 21> 		H    1.966529  -1.199978   0.028164
| 22> 		H    2.729946   0.426514  -0.163050
| 23> *
| 24>
| 25>                          ****END OF INPUT****

CARTESIAN COORDINATES (ANGSTROEM)
---------------------------------
  C     -0.568601   -0.424638   -0.053937
  O     -0.553263   -1.604654    0.017683
  C      0.600918    0.421159    0.044488
  C      1.817571   -0.169009   -0.007326
  H     -1.523634    0.187247    0.010606
  H      0.503827    1.377641    0.036271
  H      1.966529   -1.199978    0.028164
  H      2.729946    0.426514   -0.163050

 Total Charge           Charge          ....    0
 Multiplicity           Mult            ....    1
 Number of Electrons    NEL             ....   30
 Basis Dimension        Dim             ....   24

ORBITAL ENERGIES
----------------

  NO   OCC          E(Eh)            E(eV)
   0   2.0000     -20.369310      -554.2771
   1   2.0000     -11.301861      -307.5393
   2   2.0000     -11.201483      -304.8078
   3   2.0000     -11.189770      -304.4891
   4   2.0000      -1.422129       -38.6981
   5   2.0000      -1.090038       -29.6615
   6   2.0000      -0.902333       -24.5537
   7   2.0000      -0.764874       -20.8133
   8   2.0000      -0.720458       -19.6047
   9   2.0000      -0.628398       -17.0996
  10   2.0000      -0.594436       -16.1754
  11   2.0000      -0.559877       -15.2350
  12   2.0000      -0.555892       -15.1266
  13   2.0000      -0.411058       -11.1855
  14   2.0000      -0.392394       -10.6776
  15   0.0000       0.124384         3.3847
  16   0.0000       0.309692         8.4271
  17   0.0000       0.577215        15.7068
  18   0.0000       0.673484        18.3264
  19   0.0000       0.675916        18.3926

MULLIKEN ATOMIC CHARGES
-----------------------
   0 C :    0.182893
   1 O :   -0.362525
   2 C :   -0.205958
   3 C :   -0.193619
   4 H :    0.130442
   5 H :    0.142111
   6 H :    0.159013
   7 H :    0.147641
Sum of atomic charges:    0.0000000

LOEWDIN ATOMIC CHARGES
----------------------
   0 C :    0.154752
   1 O :   -0.259532
   2 C :   -0.154819
   3 C :   -0.086771
   4 H :    0.068700
   5 H :    0.080813
   6 H :    0.099840
   7 H :    0.097016

  Mayer bond orders larger than 0.100000
B(  0-C ,  1-O ) :   1.9023 B(  0-C ,  2-C ) :   1.0352 B(  0-C ,  4-H ) :   0.9166
B(  2-C ,  3-C ) :   1.9242 B(  2-C ,  5-H ) :   0.9658 B(  3-C ,  6-H ) :   0.9630
B(  3-C ,  7-H ) :   0.9662

-----------------------------------------------------------------------------
         ABSORPTION SPECTRUM VIA TRANSITION ELECTRIC DIPOLE MOMENTS
-----------------------------------------------------------------------------
State   Energy    Wavelength  fosc         T2        TX        TY        TZ
        (cm-1)      (nm)                 (au**2)    (au)      (au)      (au)
-----------------------------------------------------------------------------
   1   33510.8    298.4   0.000167149   0.00164  -0.03938   0.00442   0.00849

Dispersion correction           -0.026350013
FINAL SINGLE POINT ENERGY      -189.317567643344

DIPOLE MOMENT
-------------
                                X             Y             Z
Electronic contribution:     -1.89945      -1.66265       0.01165
Nuclear contribution   :      2.29385       2.52959      -0.08182
                        -----------------------------------------
Total Dipole Moment    :      0.39440       0.86694      -0.07017
                        -----------------------------------------
Magnitude (a.u.)       :      0.95501
Magnitude (Debye)      :      2.42745

Rotational constants in cm-1:     0.760922     0.221511     0.171893
Rotational constants in MHz : 22811.861615  6640.728034  5153.227001

                             ****ORCA TERMINATED NORMALLY****
TOTAL RUN TIME: 0 days 0 hours 0 minutes 10 seconds 895 msec
