                         Program Version 5.0.3 -  RELEASE  -
|  1> ! B3LYP cc-pVDZ
|  2> !TightSCF
|  3> %scf
|  4>  ConvForced true
|  5>  convergence tight
|  6>  MaxIter 500
|  7> end
|  8>
|  9> %tddft
| 10>  nroots 1
| 11> end
| 12>
| 13> # 	30653
| 14> * xyz 0 1
| 15> 		C   -0.609288  -0.416154   0.025816
| 16> 		O   -0.578975  -1.624682  -0.004610
| 17> 		C    0.635747   0.373514  -0.039237
| 18> 		C    1.862442  -0.126280   0.020171
| 19> 		H   -1.518970   0.029667  -0.017866
| 20> 		H    0.604717   1.481087   0.071608
| 21> 		H    1.922592  -1.105855  -0.098946
| 22> 		H    2.643962   0.632038   0.044876
| 23> *
| 24>
| 25>                          ****END OF INPUT****

CARTESIAN COORDINATES (ANGSTROEM)
---------------------------------
  C     -0.609288   -0.416154    0.025816
  O     -0.578975   -1.624682   -0.004610
  C      0.635747    0.373514   -0.039237
  C      1.862442   -0.126280    0.020171
  H     -1.518970    0.029667   -0.017866
  H      0.604717    1.481087    0.071608
  H      1.922592   -1.105855   -0.098946
  H      2.643962    0.632038    0.044876

 Total Charge           Charge          ....    0
 Multiplicity           Mult            ....    1
 Number of Electrons    NEL             ....   30
 Basis Dimension        Dim             ....   76

ORBITAL ENERGIES
----------------

  NO   OCC          E(Eh)            E(eV)
   0   2.0000     -19.134501      -520.6762
   1   2.0000     -10.265993      -279.3519
   2   2.0000     -10.199105      -277.5318
   3   2.0000     -10.198206      -277.5073
   4   2.0000      -1.047196       -28.4957
   5   2.0000      -0.799025       -21.7426
   6   2.0000      -0.663955       -18.0671
   7   2.0000      -0.554145       -15.0790
   8   2.0000      -0.524683       -14.2774
   9   2.0000      -0.443694       -12.0735
  10   2.0000      -0.426491       -11.6054
  11   2.0000      -0.399404       -10.8683
  12   2.0000      -0.380517       -10.3544
  13   2.0000      -0.287423        -7.8212
  14   2.0000      -0.255758        -6.9595
  15   0.0000      -0.069156        -1.8818
  16   0.0000       0.062768         1.7080
  17   0.0000       0.066389         1.8065
  18   0.0000       0.107772         2.9326
  19   0.0000       0.131166         3.5692

MULLIKEN ATOMIC CHARGES
-----------------------
   0 C :    0.242853
   1 O :   -0.199147
   2 C :   -0.164850
   3 C :    0.168589
   4 H :   -0.042208
   5 H :   -0.013474
   6 H :   -0.020458
   7 H :    0.028694
Sum of atomic charges:    0.0000000

LOEWDIN ATOMIC CHARGES
----------------------
   0 C :   -0.021209
   1 O :   -0.001291
   2 C :   -0.075201
   3 C :    0.046116
   4 H :   -0.017138
   5 H :    0.028059
   6 H :   -0.000193
   7 H :    0.040856

  Mayer bond orders larger than 0.100000
B(  0-C ,  1-O ) :   2.1766 B(  0-C ,  2-C ) :   1.0517 B(  0-C ,  4-H ) :   0.9406
B(  2-C ,  3-C ) :   1.9924 B(  2-C ,  5-H ) :   0.9368 B(  3-C ,  6-H ) :   0.9276
B(  3-C ,  7-H ) :   0.9355

-----------------------------------------------------------------------------
         ABSORPTION SPECTRUM VIA TRANSITION ELECTRIC DIPOLE MOMENTS
-----------------------------------------------------------------------------
State   Energy    Wavelength  fosc         T2        TX        TY        TZ
        (cm-1)      (nm)                 (au**2)    (au)      (au)      (au)
-----------------------------------------------------------------------------
   1   27659.2    361.5   0.000223128   0.00266  -0.04414  -0.00991  -0.02467

FINAL SINGLE POINT ENERGY      -191.658771477117

DIPOLE MOMENT
-------------
                                X             Y             Z
Electronic contribution:     -1.97264      -1.86046       0.02000
Nuclear contribution   :      2.26841       2.76165      -0.00085
                        -----------------------------------------
Total Dipole Moment    :      0.29578       0.90119       0.01915
                        -----------------------------------------
Magnitude (a.u.)       :      0.94868
Magnitude (Debye)      :      2.41136

Rotational constants in cm-1:     0.811388     0.208240     0.165871
Rotational constants in MHz : 24324.792036  6242.882048  4972.686303

                             ****ORCA TERMINATED NORMALLY****
TOTAL RUN TIME: 0 days 0 hours 3 minutes 23 seconds 653 msec
