                         Program Version 5.0.3 -  RELEASE  -
|  1> ! B3LYP cc-pVDZ
|  2> !TightSCF
|  3> %scf
|  4>  ConvForced true
|  5>  convergence tight
|  6>  MaxIter 500
|  7> end
|  8>
|  9> %tddft
| 10>  nroots 1
| 11> end
| 12>
| 13> # 	17119
| 14> * xyz 0 1
| 15> 		C   -1.170069  -0.406467  -0.093193
| 16> 		O   -2.214905  -0.409413  -0.600334
| 17> 		C   -0.047236   0.402233  -0.458806
| 18> 		C    1.114903   0.286201   0.264526
| 19> 		H   -1.133849  -1.069947   0.926921
| 20> 		H   -0.007070   0.992159  -1.267262
| 21> 		H    1.138447  -0.584844   1.303205
| 22> 		H    2.324065   0.782338  -0.050490
| 23> *
| 24>
| 25>                          ****END OF INPUT****

CARTESIAN COORDINATES (ANGSTROEM)
---------------------------------
  C     -1.170069   -0.406467   -0.093193
  O     -2.214905   -0.409413   -0.600334
  C     -0.047236    0.402233   -0.458806
  C      1.114903    0.286201    0.264526
  H     -1.133849   -1.069947    0.926921
  H     -0.007070    0.992159   -1.267262
  H      1.138447   -0.584844    1.303205
  H      2.324065    0.782338   -0.050490

 Total Charge           Charge          ....    0
 Multiplicity           Mult            ....    1
 Number of Electrons    NEL             ....   30
 Basis Dimension        Dim             ....   76

ORBITAL ENERGIES
----------------

  NO   OCC          E(Eh)            E(eV)
   0   2.0000     -19.135153      -520.6940
   1   2.0000     -10.276226      -279.6303
   2   2.0000     -10.264955      -279.3236
   3   2.0000     -10.209480      -277.8141
   4   2.0000      -1.075060       -29.2539
   5   2.0000      -0.802985       -21.8503
   6   2.0000      -0.622515       -16.9395
   7   2.0000      -0.565748       -15.3948
   8   2.0000      -0.476789       -12.9741
   9   2.0000      -0.460105       -12.5201
  10   2.0000      -0.417244       -11.3538
  11   2.0000      -0.411444       -11.1960
  12   2.0000      -0.362744        -9.8708
  13   2.0000      -0.294558        -8.0153
  14   2.0000      -0.251343        -6.8394
  15   0.0000      -0.067573        -1.8387
  16   0.0000       0.015266         0.4154
  17   0.0000       0.051992         1.4148
  18   0.0000       0.059646         1.6231
  19   0.0000       0.093733         2.5506

MULLIKEN ATOMIC CHARGES
-----------------------
   0 C :    0.130737
   1 O :   -0.148789
   2 C :    0.068026
   3 C :   -0.142950
   4 H :   -0.037823
   5 H :   -0.030765
   6 H :    0.072637
   7 H :    0.088927
Sum of atomic charges:   -0.0000000

LOEWDIN ATOMIC CHARGES
----------------------
   0 C :   -0.089534
   1 O :    0.044470
   2 C :   -0.063003
   3 C :   -0.022921
   4 H :   -0.009845
   5 H :    0.011722
   6 H :    0.059304
   7 H :    0.069806

  Mayer bond orders larger than 0.100000
B(  0-C ,  1-O ) :   2.2135 B(  0-C ,  2-C ) :   1.0634 B(  0-C ,  4-H ) :   0.9022
B(  1-O ,  3-C ) :   0.1028 B(  2-C ,  3-C ) :   1.8525 B(  2-C ,  5-H ) :   0.9534
B(  3-C ,  6-H ) :   0.9174 B(  3-C ,  7-H ) :   0.9253

-----------------------------------------------------------------------------
         ABSORPTION SPECTRUM VIA TRANSITION ELECTRIC DIPOLE MOMENTS
-----------------------------------------------------------------------------
State   Energy    Wavelength  fosc         T2        TX        TY        TZ
        (cm-1)      (nm)                 (au**2)    (au)      (au)      (au)
-----------------------------------------------------------------------------
   1   28482.2    351.1   0.000275193   0.00318   0.02936  -0.00408  -0.04798

FINAL SINGLE POINT ENERGY      -191.606107993750

DIPOLE MOMENT
-------------
                                X             Y             Z
Electronic contribution:     -3.39304      -0.11581      -1.47377
Nuclear contribution   :      4.45201       0.31073       1.66276
                        -----------------------------------------
Total Dipole Moment    :      1.05897       0.19492       0.18899
                        -----------------------------------------
Magnitude (a.u.)       :      1.09322
Magnitude (Debye)      :      2.77874

Rotational constants in cm-1:     1.479617     0.157660     0.142604
Rotational constants in MHz : 44357.790773  4726.535113  4275.147242

                             ****ORCA TERMINATED NORMALLY****
TOTAL RUN TIME: 0 days 0 hours 3 minutes 22 seconds 760 msec
