                         Program Version 5.0.3 -  RELEASE  -
|  1> ! HF-3c
|  2> !TightSCF
|  3> %scf
|  4>  ConvForced true
|  5>  convergence tight
|  6>  MaxIter 500
|  7> end
|  8>
|  9> %tddft
| 10>  nroots 1
| 11> end
| 12>
| 13> # 	11567
| 14> * xyz 0 1
| 15> 		C   -1.169901  -0.292364   0.028903
| 16> 		O   -1.381154  -1.258393  -0.669512
| 17> 		C    0.027462   0.536431  -0.116420
| 18> 		C    1.223391  -0.017852   0.121268
| 19> 		H   -1.929946  -0.001062   0.828072
| 20> 		H   -0.136793   1.465060  -0.660169
| 21> 		H    1.335664  -1.004480   0.524075
| 22> 		H    2.096192   0.576731  -0.017598
| 23> *
| 24>
| 25>                          ****END OF INPUT****

CARTESIAN COORDINATES (ANGSTROEM)
---------------------------------
  C     -1.169901   -0.292364    0.028903
  O     -1.381154   -1.258393   -0.669512
  C      0.027462    0.536431   -0.116420
  C      1.223391   -0.017852    0.121268
  H     -1.929946   -0.001062    0.828072
  H     -0.136793    1.465060   -0.660169
  H      1.335664   -1.004480    0.524075
  H      2.096192    0.576731   -0.017598

 Total Charge           Charge          ....    0
 Multiplicity           Mult            ....    1
 Number of Electrons    NEL             ....   30
 Basis Dimension        Dim             ....   24

ORBITAL ENERGIES
----------------

  NO   OCC          E(Eh)            E(eV)
   0   2.0000     -20.369606      -554.2852
   1   2.0000     -11.295023      -307.3532
   2   2.0000     -11.191773      -304.5436
   3   2.0000     -11.185713      -304.3787
   4   2.0000      -1.404714       -38.2242
   5   2.0000      -1.081813       -29.4376
   6   2.0000      -0.888956       -24.1897
   7   2.0000      -0.757239       -20.6055
   8   2.0000      -0.693656       -18.8753
   9   2.0000      -0.628227       -17.0949
  10   2.0000      -0.609250       -16.5785
  11   2.0000      -0.555224       -15.1084
  12   2.0000      -0.502599       -13.6764
  13   2.0000      -0.411259       -11.1909
  14   2.0000      -0.400353       -10.8942
  15   0.0000       0.175343         4.7713
  16   0.0000       0.225556         6.1377
  17   0.0000       0.567230        15.4351
  18   0.0000       0.621163        16.9027
  19   0.0000       0.693301        18.8657

MULLIKEN ATOMIC CHARGES
-----------------------
   0 C :    0.169149
   1 O :   -0.345831
   2 C :   -0.169531
   3 C :   -0.236247
   4 H :    0.136663
   5 H :    0.154506
   6 H :    0.148186
   7 H :    0.143105
Sum of atomic charges:   -0.0000000

LOEWDIN ATOMIC CHARGES
----------------------
   0 C :    0.149053
   1 O :   -0.251396
   2 C :   -0.122983
   3 C :   -0.139723
   4 H :    0.076070
   5 H :    0.101990
   6 H :    0.095701
   7 H :    0.091286

  Mayer bond orders larger than 0.100000
B(  0-C ,  1-O ) :   1.9390 B(  0-C ,  2-C ) :   1.0018 B(  0-C ,  4-H ) :   0.9164
B(  2-C ,  3-C ) :   1.9834 B(  2-C ,  5-H ) :   0.9495 B(  3-C ,  6-H ) :   0.9649
B(  3-C ,  7-H ) :   0.9652

-----------------------------------------------------------------------------
         ABSORPTION SPECTRUM VIA TRANSITION ELECTRIC DIPOLE MOMENTS
-----------------------------------------------------------------------------
State   Energy    Wavelength  fosc         T2        TX        TY        TZ
        (cm-1)      (nm)                 (au**2)    (au)      (au)      (au)
-----------------------------------------------------------------------------
   1   34396.1    290.7   0.000010537   0.00010   0.00558   0.00236   0.00801

Dispersion correction           -0.025540771
FINAL SINGLE POINT ENERGY      -189.325782323397

DIPOLE MOMENT
-------------
                                X             Y             Z
Electronic contribution:     -2.25615      -1.31010      -0.76862
Nuclear contribution   :      2.58741       2.05373       1.26968
                        -----------------------------------------
Total Dipole Moment    :      0.33125       0.74364       0.50105
                        -----------------------------------------
Magnitude (a.u.)       :      0.95592
Magnitude (Debye)      :      2.42975

Rotational constants in cm-1:     0.824888     0.192483     0.169208
Rotational constants in MHz : 24729.532613  5770.500375  5072.719018

                             ****ORCA TERMINATED NORMALLY****
TOTAL RUN TIME: 0 days 0 hours 0 minutes 11 seconds 833 msec
