                         Program Version 5.0.3 -  RELEASE  -
|  1> ! HF-3c
|  2> !TightSCF
|  3> %scf
|  4>  ConvForced true
|  5>  convergence tight
|  6>  MaxIter 500
|  7> end
|  8>
|  9> %tddft
| 10>  nroots 1
| 11> end
| 12>
| 13> # 	2302
| 14> * xyz 0 1
| 15> 		C   -1.180717  -0.282892  -0.044942
| 16> 		O   -1.227659  -1.412892  -0.370899
| 17> 		C    0.003263   0.550290  -0.129107
| 18> 		C    1.239476  -0.058235  -0.001690
| 19> 		H   -2.113539   0.152293   0.516385
| 20> 		H   -0.129668   1.754923  -0.341998
| 21> 		H    1.241020  -1.243394   0.159054
| 22> 		H    2.197999   0.485323   0.205928
| 23> *
| 24>
| 25>                          ****END OF INPUT****

CARTESIAN COORDINATES (ANGSTROEM)
---------------------------------
  C     -1.180717   -0.282892   -0.044942
  O     -1.227659   -1.412892   -0.370899
  C      0.003263    0.550290   -0.129107
  C      1.239476   -0.058235   -0.001690
  H     -2.113539    0.152293    0.516385
  H     -0.129668    1.754923   -0.341998
  H      1.241020   -1.243394    0.159054
  H      2.197999    0.485323    0.205928

 Total Charge           Charge          ....    0
 Multiplicity           Mult            ....    1
 Number of Electrons    NEL             ....   30
 Basis Dimension        Dim             ....   24

ORBITAL ENERGIES
----------------

  NO   OCC          E(Eh)            E(eV)
   0   2.0000     -20.361105      -554.0538
   1   2.0000     -11.296917      -307.4047
   2   2.0000     -11.180284      -304.2310
   3   2.0000     -11.176740      -304.1346
   4   2.0000      -1.421304       -38.6757
   5   2.0000      -1.051633       -28.6164
   6   2.0000      -0.868372       -23.6296
   7   2.0000      -0.724849       -19.7241
   8   2.0000      -0.674184       -18.3455
   9   2.0000      -0.600607       -16.3434
  10   2.0000      -0.593491       -16.1497
  11   2.0000      -0.535556       -14.5732
  12   2.0000      -0.499047       -13.5798
  13   2.0000      -0.400474       -10.8974
  14   2.0000      -0.373866       -10.1734
  15   0.0000       0.146761         3.9936
  16   0.0000       0.285050         7.7566
  17   0.0000       0.494952        13.4683
  18   0.0000       0.563419        15.3314
  19   0.0000       0.579527        15.7697

MULLIKEN ATOMIC CHARGES
-----------------------
   0 C :    0.172019
   1 O :   -0.369518
   2 C :   -0.169628
   3 C :   -0.202845
   4 H :    0.129368
   5 H :    0.144870
   6 H :    0.153629
   7 H :    0.142107
Sum of atomic charges:    0.0000000

LOEWDIN ATOMIC CHARGES
----------------------
   0 C :    0.142381
   1 O :   -0.265461
   2 C :   -0.140822
   3 C :   -0.115765
   4 H :    0.071332
   5 H :    0.104316
   6 H :    0.109237
   7 H :    0.094782

  Mayer bond orders larger than 0.100000
B(  0-C ,  1-O ) :   1.9034 B(  0-C ,  2-C ) :   1.0324 B(  0-C ,  4-H ) :   0.9108
B(  2-C ,  3-C ) :   1.9337 B(  2-C ,  5-H ) :   0.9517 B(  3-C ,  6-H ) :   0.9558
B(  3-C ,  7-H ) :   0.9648

-----------------------------------------------------------------------------
         ABSORPTION SPECTRUM VIA TRANSITION ELECTRIC DIPOLE MOMENTS
-----------------------------------------------------------------------------
State   Energy    Wavelength  fosc         T2        TX        TY        TZ
        (cm-1)      (nm)                 (au**2)    (au)      (au)      (au)
-----------------------------------------------------------------------------
   1   35148.5    284.5   0.000046537   0.00044   0.01817  -0.00488  -0.00905

Dispersion correction           -0.025269539
FINAL SINGLE POINT ENERGY      -189.293944849725

DIPOLE MOMENT
-------------
                                X             Y             Z
Electronic contribution:     -1.91239      -1.44881      -0.66030
Nuclear contribution   :      2.29256       2.32959       1.00461
                        -----------------------------------------
Total Dipole Moment    :      0.38017       0.88078       0.34431
                        -----------------------------------------
Magnitude (a.u.)       :      1.01924
Magnitude (Debye)      :      2.59071

Rotational constants in cm-1:     0.730612     0.211324     0.167804
Rotational constants in MHz : 21903.206207  6335.332545  5030.635545

                             ****ORCA TERMINATED NORMALLY****
TOTAL RUN TIME: 0 days 0 hours 0 minutes 13 seconds 50 msec
