                         Program Version 5.0.3 -  RELEASE  -
|  1> ! B3LYP cc-pVDZ
|  2> !TightSCF
|  3> %scf
|  4>  ConvForced true
|  5>  convergence tight
|  6>  MaxIter 500
|  7> end
|  8>
|  9> %tddft
| 10>  nroots 1
| 11> end
| 12>
| 13> # 	22142
| 14> * xyz 0 1
| 15> 		C   -0.596991  -0.389927  -0.003838
| 16> 		O   -0.528020  -1.616495   0.004245
| 17> 		C    0.613021   0.371320  -0.025796
| 18> 		C    1.803635  -0.136427  -0.005882
| 19> 		H   -1.421677   0.280252   0.024020
| 20> 		H    0.355499   1.509990   0.214478
| 21> 		H    1.788775  -1.380437   0.121278
| 22> 		H    2.902604   0.375940   0.003371
| 23> *
| 24>
| 25>                          ****END OF INPUT****

CARTESIAN COORDINATES (ANGSTROEM)
---------------------------------
  C     -0.596991   -0.389927   -0.003838
  O     -0.528020   -1.616495    0.004245
  C      0.613021    0.371320   -0.025796
  C      1.803635   -0.136427   -0.005882
  H     -1.421677    0.280252    0.024020
  H      0.355499    1.509990    0.214478
  H      1.788775   -1.380437    0.121278
  H      2.902604    0.375940    0.003371

 Total Charge           Charge          ....    0
 Multiplicity           Mult            ....    1
 Number of Electrons    NEL             ....   30
 Basis Dimension        Dim             ....   76

ORBITAL ENERGIES
----------------

  NO   OCC          E(Eh)            E(eV)
   0   2.0000     -19.139689      -520.8174
   1   2.0000     -10.271003      -279.4882
   2   2.0000     -10.228918      -278.3430
   3   2.0000     -10.201037      -277.5843
   4   2.0000      -1.039811       -28.2947
   5   2.0000      -0.799412       -21.7531
   6   2.0000      -0.669418       -18.2158
   7   2.0000      -0.525946       -14.3117
   8   2.0000      -0.492535       -13.4026
   9   2.0000      -0.447611       -12.1801
  10   2.0000      -0.423043       -11.5116
  11   2.0000      -0.401721       -10.9314
  12   2.0000      -0.344358        -9.3705
  13   2.0000      -0.287986        -7.8365
  14   2.0000      -0.259813        -7.0699
  15   0.0000      -0.074572        -2.0292
  16   0.0000       0.044334         1.2064
  17   0.0000       0.062870         1.7108
  18   0.0000       0.075105         2.0437
  19   0.0000       0.125168         3.4060

MULLIKEN ATOMIC CHARGES
-----------------------
   0 C :    0.224560
   1 O :   -0.209760
   2 C :   -0.114511
   3 C :   -0.026767
   4 H :   -0.019163
   5 H :    0.002524
   6 H :    0.075138
   7 H :    0.067978
Sum of atomic charges:    0.0000000

LOEWDIN ATOMIC CHARGES
----------------------
   0 C :   -0.026662
   1 O :   -0.012828
   2 C :   -0.112047
   3 C :   -0.003906
   4 H :   -0.002465
   5 H :    0.039048
   6 H :    0.062946
   7 H :    0.055914

  Mayer bond orders larger than 0.100000
B(  0-C ,  1-O ) :   2.1611 B(  0-C ,  2-C ) :   1.1005 B(  0-C ,  4-H ) :   0.9211
B(  1-O ,  3-C ) :   0.1024 B(  2-C ,  3-C ) :   1.9432 B(  2-C ,  5-H ) :   0.9314
B(  3-C ,  6-H ) :   0.8997 B(  3-C ,  7-H ) :   0.9374

-----------------------------------------------------------------------------
         ABSORPTION SPECTRUM VIA TRANSITION ELECTRIC DIPOLE MOMENTS
-----------------------------------------------------------------------------
State   Energy    Wavelength  fosc         T2        TX        TY        TZ
        (cm-1)      (nm)                 (au**2)    (au)      (au)      (au)
-----------------------------------------------------------------------------
   1   27310.4    366.2   0.000245556   0.00296   0.02632   0.02518   0.04041

FINAL SINGLE POINT ENERGY      -191.642111787883

DIPOLE MOMENT
-------------
                                X             Y             Z
Electronic contribution:     -1.93487      -1.65939      -0.26512
Nuclear contribution   :      2.24668       2.52311       0.34026
                        -----------------------------------------
Total Dipole Moment    :      0.31180       0.86372       0.07514
                        -----------------------------------------
Magnitude (a.u.)       :      0.92135
Magnitude (Debye)      :      2.34188

Rotational constants in cm-1:     0.733362     0.224209     0.171959
Rotational constants in MHz : 21985.645456  6721.619826  5155.211309

                             ****ORCA TERMINATED NORMALLY****
TOTAL RUN TIME: 0 days 0 hours 3 minutes 19 seconds 394 msec
