                         Program Version 5.0.3 -  RELEASE  -
|  1> ! B3LYP cc-pVDZ
|  2> !TightSCF
|  3> %scf
|  4>  ConvForced true
|  5>  convergence tight
|  6>  MaxIter 500
|  7> end
|  8>
|  9> %tddft
| 10>  nroots 1
| 11> end
| 12>
| 13> # 	17894
| 14> * xyz 0 1
| 15> 		C   -1.200311  -0.303582   0.037964
| 16> 		O   -1.977397  -0.588992   0.902964
| 17> 		C    0.010127   0.492175   0.282912
| 18> 		C    1.186230   0.066816  -0.122398
| 19> 		H   -1.341552  -0.885139  -1.039340
| 20> 		H   -0.071401   1.434495   1.054298
| 21> 		H    1.226554  -0.786286  -1.007101
| 22> 		H    2.151160   0.553931  -0.019095
| 23> *
| 24>
| 25>                          ****END OF INPUT****

CARTESIAN COORDINATES (ANGSTROEM)
---------------------------------
  C     -1.200311   -0.303582    0.037964
  O     -1.977397   -0.588992    0.902964
  C      0.010127    0.492175    0.282912
  C      1.186230    0.066816   -0.122398
  H     -1.341552   -0.885139   -1.039340
  H     -0.071401    1.434495    1.054298
  H      1.226554   -0.786286   -1.007101
  H      2.151160    0.553931   -0.019095

 Total Charge           Charge          ....    0
 Multiplicity           Mult            ....    1
 Number of Electrons    NEL             ....   30
 Basis Dimension        Dim             ....   76

ORBITAL ENERGIES
----------------

  NO   OCC          E(Eh)            E(eV)
   0   2.0000     -19.144513      -520.9487
   1   2.0000     -10.288006      -279.9509
   2   2.0000     -10.223447      -278.1941
   3   2.0000     -10.221320      -278.1363
   4   2.0000      -1.059826       -28.8393
   5   2.0000      -0.802843       -21.8465
   6   2.0000      -0.639636       -17.4054
   7   2.0000      -0.543975       -14.8023
   8   2.0000      -0.478291       -13.0150
   9   2.0000      -0.466545       -12.6953
  10   2.0000      -0.432938       -11.7808
  11   2.0000      -0.396343       -10.7850
  12   2.0000      -0.363176        -9.8825
  13   2.0000      -0.296854        -8.0778
  14   2.0000      -0.257600        -7.0097
  15   0.0000      -0.056962        -1.5500
  16   0.0000       0.022518         0.6127
  17   0.0000       0.054328         1.4783
  18   0.0000       0.074859         2.0370
  19   0.0000       0.093105         2.5335

MULLIKEN ATOMIC CHARGES
-----------------------
   0 C :    0.134008
   1 O :   -0.167757
   2 C :   -0.084678
   3 C :   -0.004376
   4 H :   -0.011923
   5 H :    0.048118
   6 H :    0.045918
   7 H :    0.040691
Sum of atomic charges:    0.0000000

LOEWDIN ATOMIC CHARGES
----------------------
   0 C :   -0.049818
   1 O :    0.018093
   2 C :   -0.078716
   3 C :   -0.025644
   4 H :   -0.001156
   5 H :    0.059205
   6 H :    0.048164
   7 H :    0.029871

  Mayer bond orders larger than 0.100000
B(  0-C ,  1-O ) :   2.1966 B(  0-C ,  2-C ) :   1.0156 B(  0-C ,  4-H ) :   0.8918
B(  2-C ,  3-C ) :   1.9629 B(  2-C ,  5-H ) :   0.9249 B(  3-C ,  6-H ) :   0.9343
B(  3-C ,  7-H ) :   0.9445

-----------------------------------------------------------------------------
         ABSORPTION SPECTRUM VIA TRANSITION ELECTRIC DIPOLE MOMENTS
-----------------------------------------------------------------------------
State   Energy    Wavelength  fosc         T2        TX        TY        TZ
        (cm-1)      (nm)                 (au**2)    (au)      (au)      (au)
-----------------------------------------------------------------------------
   1   31095.7    321.6   0.000994511   0.01053  -0.09767   0.01391   0.02822

FINAL SINGLE POINT ENERGY      -191.637057347139

DIPOLE MOMENT
-------------
                                X             Y             Z
Electronic contribution:     -2.98455      -0.33986       1.49855
Nuclear contribution   :      3.81011       0.69431      -1.99787
                        -----------------------------------------
Total Dipole Moment    :      0.82556       0.35445      -0.49932
                        -----------------------------------------
Magnitude (a.u.)       :      1.02786
Magnitude (Debye)      :      2.61262

Rotational constants in cm-1:     1.191196     0.162044     0.151381
Rotational constants in MHz : 35711.158362  4857.953960  4538.284998

                             ****ORCA TERMINATED NORMALLY****
TOTAL RUN TIME: 0 days 0 hours 3 minutes 13 seconds 718 msec
