                         Program Version 5.0.3 -  RELEASE  -
|  1> ! HF-3c
|  2> !TightSCF
|  3> %scf
|  4>  ConvForced true
|  5>  convergence tight
|  6>  MaxIter 500
|  7> end
|  8>
|  9> %tddft
| 10>  nroots 1
| 11> end
| 12>
| 13> # 	8404
| 14> * xyz 0 1
| 15> 		C   -1.125221  -0.331908   0.015393
| 16> 		O   -1.242702  -1.470375   0.360407
| 17> 		C    0.000771   0.511986   0.152422
| 18> 		C    1.269434  -0.075702   0.010450
| 19> 		H   -2.037041   0.254467  -0.414740
| 20> 		H   -0.207456   1.585569   0.376198
| 21> 		H    1.308848  -1.134927  -0.300348
| 22> 		H    2.025972   0.611943  -0.248892
| 23> *
| 24>
| 25>                          ****END OF INPUT****

CARTESIAN COORDINATES (ANGSTROEM)
---------------------------------
  C     -1.125221   -0.331908    0.015393
  O     -1.242702   -1.470375    0.360407
  C      0.000771    0.511986    0.152422
  C      1.269434   -0.075702    0.010450
  H     -2.037041    0.254467   -0.414740
  H     -0.207456    1.585569    0.376198
  H      1.308848   -1.134927   -0.300348
  H      2.025972    0.611943   -0.248892

 Total Charge           Charge          ....    0
 Multiplicity           Mult            ....    1
 Number of Electrons    NEL             ....   30
 Basis Dimension        Dim             ....   24

ORBITAL ENERGIES
----------------

  NO   OCC          E(Eh)            E(eV)
   0   2.0000     -20.359242      -554.0031
   1   2.0000     -11.293946      -307.3239
   2   2.0000     -11.190618      -304.5122
   3   2.0000     -11.187166      -304.4183
   4   2.0000      -1.406820       -38.2815
   5   2.0000      -1.074704       -29.2442
   6   2.0000      -0.899162       -24.4674
   7   2.0000      -0.731407       -19.9026
   8   2.0000      -0.700877       -19.0718
   9   2.0000      -0.608553       -16.5596
  10   2.0000      -0.593120       -16.1396
  11   2.0000      -0.555998       -15.1295
  12   2.0000      -0.525099       -14.2887
  13   2.0000      -0.402569       -10.9545
  14   2.0000      -0.375935       -10.2297
  15   0.0000       0.123431         3.3587
  16   0.0000       0.282063         7.6753
  17   0.0000       0.562661        15.3108
  18   0.0000       0.615009        16.7353
  19   0.0000       0.646680        17.5971

MULLIKEN ATOMIC CHARGES
-----------------------
   0 C :    0.169075
   1 O :   -0.363970
   2 C :   -0.167747
   3 C :   -0.214825
   4 H :    0.124041
   5 H :    0.148441
   6 H :    0.159330
   7 H :    0.145656
Sum of atomic charges:   -0.0000000

LOEWDIN ATOMIC CHARGES
----------------------
   0 C :    0.144148
   1 O :   -0.266876
   2 C :   -0.126943
   3 C :   -0.115628
   4 H :    0.066592
   5 H :    0.098443
   6 H :    0.107273
   7 H :    0.092990

  Mayer bond orders larger than 0.100000
B(  0-C ,  1-O ) :   1.8918 B(  0-C ,  2-C ) :   1.0590 B(  0-C ,  4-H ) :   0.9100
B(  2-C ,  3-C ) :   1.9065 B(  2-C ,  5-H ) :   0.9571 B(  3-C ,  6-H ) :   0.9612
B(  3-C ,  7-H ) :   0.9674

-----------------------------------------------------------------------------
         ABSORPTION SPECTRUM VIA TRANSITION ELECTRIC DIPOLE MOMENTS
-----------------------------------------------------------------------------
State   Energy    Wavelength  fosc         T2        TX        TY        TZ
        (cm-1)      (nm)                 (au**2)    (au)      (au)      (au)
-----------------------------------------------------------------------------
   1   33395.7    299.4   0.000131685   0.00130  -0.03504   0.00366  -0.00757

Dispersion correction           -0.025857649
FINAL SINGLE POINT ENERGY      -189.309870836906

DIPOLE MOMENT
-------------
                                X             Y             Z
Electronic contribution:     -1.76627      -1.66998       0.65825
Nuclear contribution   :      2.14973       2.62127      -1.03767
                        -----------------------------------------
Total Dipole Moment    :      0.38346       0.95128      -0.37942
                        -----------------------------------------
Magnitude (a.u.)       :      1.09359
Magnitude (Debye)      :      2.77969

Rotational constants in cm-1:     0.755390     0.209174     0.167956
Rotational constants in MHz : 22646.018390  6270.892397  5035.183679

                             ****ORCA TERMINATED NORMALLY****
TOTAL RUN TIME: 0 days 0 hours 0 minutes 11 seconds 149 msec
