                         Program Version 5.0.3 -  RELEASE  -
|  1> ! B3LYP cc-pVDZ
|  2> !TightSCF
|  3> %scf
|  4>  ConvForced true
|  5>  convergence tight
|  6>  MaxIter 500
|  7> end
|  8>
|  9> %tddft
| 10>  nroots 1
| 11> end
| 12>
| 13> # 	2945
| 14> * xyz 0 1
| 15> 		C   -1.172950  -0.316295  -0.005486
| 16> 		O   -1.287116  -1.467265  -0.317482
| 17> 		C   -0.017327   0.534535  -0.142510
| 18> 		C    1.216074  -0.028314   0.060677
| 19> 		H   -2.064623   0.303587   0.371177
| 20> 		H   -0.089926   1.707144  -0.208715
| 21> 		H    1.272721  -1.180829   0.256713
| 22> 		H    2.170848   0.517043   0.018354
| 23> *
| 24>
| 25>                          ****END OF INPUT****

CARTESIAN COORDINATES (ANGSTROEM)
---------------------------------
  C     -1.172950   -0.316295   -0.005486
  O     -1.287116   -1.467265   -0.317482
  C     -0.017327    0.534535   -0.142510
  C      1.216074   -0.028314    0.060677
  H     -2.064623    0.303587    0.371177
  H     -0.089926    1.707144   -0.208715
  H      1.272721   -1.180829    0.256713
  H      2.170848    0.517043    0.018354

 Total Charge           Charge          ....    0
 Multiplicity           Mult            ....    1
 Number of Electrons    NEL             ....   30
 Basis Dimension        Dim             ....   76

ORBITAL ENERGIES
----------------

  NO   OCC          E(Eh)            E(eV)
   0   2.0000     -19.140156      -520.8301
   1   2.0000     -10.275864      -279.6205
   2   2.0000     -10.226970      -278.2900
   3   2.0000     -10.215785      -277.9856
   4   2.0000      -1.054144       -28.6847
   5   2.0000      -0.793568       -21.5941
   6   2.0000      -0.655695       -17.8424
   7   2.0000      -0.531457       -14.4617
   8   2.0000      -0.503066       -13.6891
   9   2.0000      -0.445856       -12.1324
  10   2.0000      -0.429893       -11.6980
  11   2.0000      -0.392516       -10.6809
  12   2.0000      -0.378006       -10.2861
  13   2.0000      -0.286542        -7.7972
  14   2.0000      -0.255970        -6.9653
  15   0.0000      -0.067642        -1.8406
  16   0.0000       0.041382         1.1261
  17   0.0000       0.062232         1.6934
  18   0.0000       0.080798         2.1986
  19   0.0000       0.114357         3.1118

MULLIKEN ATOMIC CHARGES
-----------------------
   0 C :    0.184412
   1 O :   -0.179769
   2 C :   -0.123780
   3 C :    0.013545
   4 H :   -0.029014
   5 H :    0.031026
   6 H :    0.062519
   7 H :    0.041062
Sum of atomic charges:    0.0000000

LOEWDIN ATOMIC CHARGES
----------------------
   0 C :   -0.058135
   1 O :    0.010599
   2 C :   -0.089302
   3 C :    0.015313
   4 H :   -0.008421
   5 H :    0.050682
   6 H :    0.049075
   7 H :    0.030189

  Mayer bond orders larger than 0.100000
B(  0-C ,  1-O ) :   2.2024 B(  0-C ,  2-C ) :   1.0571 B(  0-C ,  4-H ) :   0.9022
B(  2-C ,  3-C ) :   1.9304 B(  2-C ,  5-H ) :   0.9350 B(  3-C ,  6-H ) :   0.9385
B(  3-C ,  7-H ) :   0.9484

-----------------------------------------------------------------------------
         ABSORPTION SPECTRUM VIA TRANSITION ELECTRIC DIPOLE MOMENTS
-----------------------------------------------------------------------------
State   Energy    Wavelength  fosc         T2        TX        TY        TZ
        (cm-1)      (nm)                 (au**2)    (au)      (au)      (au)
-----------------------------------------------------------------------------
   1   28876.5    346.3   0.000823795   0.00939   0.09452   0.01297   0.01703

FINAL SINGLE POINT ENERGY      -191.663984271240

DIPOLE MOMENT
-------------
                                X             Y             Z
Electronic contribution:     -1.92198      -1.72130      -0.55670
Nuclear contribution   :      2.46597       2.57494       0.78796
                        -----------------------------------------
Total Dipole Moment    :      0.54400       0.85364       0.23126
                        -----------------------------------------
Magnitude (a.u.)       :      1.03833
Magnitude (Debye)      :      2.63921

Rotational constants in cm-1:     0.761767     0.204865     0.164638
Rotational constants in MHz : 22837.213121  6141.702826  4935.736673

                             ****ORCA TERMINATED NORMALLY****
TOTAL RUN TIME: 0 days 0 hours 3 minutes 18 seconds 890 msec
