                         Program Version 5.0.3 -  RELEASE  -
|  1> ! B3LYP cc-pVDZ
|  2> !TightSCF
|  3> %scf
|  4>  ConvForced true
|  5>  convergence tight
|  6>  MaxIter 500
|  7> end
|  8>
|  9> %tddft
| 10>  nroots 1
| 11> end
| 12>
| 13> # 	21072
| 14> * xyz 0 1
| 15> 		C   -0.568949  -0.388071  -0.020577
| 16> 		O   -0.635171  -1.699415   0.009616
| 17> 		C    0.638631   0.362132   0.042251
| 18> 		C    1.879110  -0.052256   0.011517
| 19> 		H   -1.453503   0.219719  -0.156241
| 20> 		H    0.409387   1.356696  -0.056358
| 21> 		H    2.037222  -1.042631  -0.141305
| 22> 		H    2.816426   0.633213  -0.202931
| 23> *
| 24>
| 25>                          ****END OF INPUT****

CARTESIAN COORDINATES (ANGSTROEM)
---------------------------------
  C     -0.568949   -0.388071   -0.020577
  O     -0.635171   -1.699415    0.009616
  C      0.638631    0.362132    0.042251
  C      1.879110   -0.052256    0.011517
  H     -1.453503    0.219719   -0.156241
  H      0.409387    1.356696   -0.056358
  H      2.037222   -1.042631   -0.141305
  H      2.816426    0.633213   -0.202931

 Total Charge           Charge          ....    0
 Multiplicity           Mult            ....    1
 Number of Electrons    NEL             ....   30
 Basis Dimension        Dim             ....   76

ORBITAL ENERGIES
----------------

  NO   OCC          E(Eh)            E(eV)
   0   2.0000     -19.136714      -520.7365
   1   2.0000     -10.275126      -279.6004
   2   2.0000     -10.218135      -278.0496
   3   2.0000     -10.199200      -277.5343
   4   2.0000      -0.991069       -26.9684
   5   2.0000      -0.814247       -22.1568
   6   2.0000      -0.683913       -18.6102
   7   2.0000      -0.553959       -15.0740
   8   2.0000      -0.507974       -13.8227
   9   2.0000      -0.452696       -12.3185
  10   2.0000      -0.417547       -11.3620
  11   2.0000      -0.379373       -10.3233
  12   2.0000      -0.373149       -10.1539
  13   2.0000      -0.289654        -7.8819
  14   2.0000      -0.254832        -6.9343
  15   0.0000      -0.089124        -2.4252
  16   0.0000       0.050436         1.3724
  17   0.0000       0.062746         1.7074
  18   0.0000       0.092969         2.5298
  19   0.0000       0.135031         3.6744

MULLIKEN ATOMIC CHARGES
-----------------------
   0 C :    0.187760
   1 O :   -0.266408
   2 C :   -0.039593
   3 C :    0.093680
   4 H :   -0.003557
   5 H :   -0.040130
   6 H :    0.010464
   7 H :    0.057784
Sum of atomic charges:    0.0000000

LOEWDIN ATOMIC CHARGES
----------------------
   0 C :    0.021898
   1 O :   -0.093699
   2 C :   -0.073388
   3 C :    0.048790
   4 H :    0.006358
   5 H :    0.019248
   6 H :    0.014100
   7 H :    0.056693

  Mayer bond orders larger than 0.100000
B(  0-C ,  1-O ) :   2.0788 B(  0-C ,  2-C ) :   1.1423 B(  0-C ,  4-H ) :   0.9228
B(  1-O ,  3-C ) :   0.1144 B(  2-C ,  3-C ) :   1.9364 B(  2-C ,  5-H ) :   0.9401
B(  3-C ,  6-H ) :   0.9265 B(  3-C ,  7-H ) :   0.9413

-----------------------------------------------------------------------------
         ABSORPTION SPECTRUM VIA TRANSITION ELECTRIC DIPOLE MOMENTS
-----------------------------------------------------------------------------
State   Energy    Wavelength  fosc         T2        TX        TY        TZ
        (cm-1)      (nm)                 (au**2)    (au)      (au)      (au)
-----------------------------------------------------------------------------
   1   22971.2    435.3   0.000068168   0.00098   0.01698   0.01073  -0.02395

FINAL SINGLE POINT ENERGY      -191.670619547810

DIPOLE MOMENT
-------------
                                X             Y             Z
Electronic contribution:     -1.91052      -1.80861       0.39142
Nuclear contribution   :      2.41652       2.88087      -0.52168
                        -----------------------------------------
Total Dipole Moment    :      0.50599       1.07227      -0.13025
                        -----------------------------------------
Magnitude (a.u.)       :      1.19279
Magnitude (Debye)      :      3.03184

Rotational constants in cm-1:     0.799419     0.195691     0.157557
Rotational constants in MHz : 23965.983485  5866.679772  4723.449336

                             ****ORCA TERMINATED NORMALLY****
TOTAL RUN TIME: 0 days 0 hours 2 minutes 49 seconds 703 msec
