                         Program Version 5.0.3 -  RELEASE  -
|  1> ! B3LYP cc-pVDZ
|  2> !TightSCF
|  3> %scf
|  4>  ConvForced true
|  5>  convergence tight
|  6>  MaxIter 500
|  7> end
|  8>
|  9> %tddft
| 10>  nroots 1
| 11> end
| 12>
| 13> # 	7779
| 14> * xyz 0 1
| 15> 		C   -1.254199  -0.293201   0.074993
| 16> 		O   -2.206802  -0.196370   0.862451
| 17> 		C    0.167848   0.248914   0.345746
| 18> 		C    1.181902   0.156212  -0.406847
| 19> 		H   -1.389437  -0.926466  -0.907335
| 20> 		H    0.111193   0.668727   1.147346
| 21> 		H    1.322264  -0.147606  -1.162224
| 22> 		H    2.015672   0.464559   0.117233
| 23> *
| 24>
| 25>                          ****END OF INPUT****

CARTESIAN COORDINATES (ANGSTROEM)
---------------------------------
  C     -1.254199   -0.293201    0.074993
  O     -2.206802   -0.196370    0.862451
  C      0.167848    0.248914    0.345746
  C      1.181902    0.156212   -0.406847
  H     -1.389437   -0.926466   -0.907335
  H      0.111193    0.668727    1.147346
  H      1.322264   -0.147606   -1.162224
  H      2.015672    0.464559    0.117233

 Total Charge           Charge          ....    0
 Multiplicity           Mult            ....    1
 Number of Electrons    NEL             ....   30
 Basis Dimension        Dim             ....   76

ORBITAL ENERGIES
----------------

  NO   OCC          E(Eh)            E(eV)
   0   2.0000     -19.145404      -520.9729
   1   2.0000     -10.283836      -279.8374
   2   2.0000     -10.191683      -277.3298
   3   2.0000     -10.182299      -277.0744
   4   2.0000      -1.032931       -28.1075
   5   2.0000      -0.828561       -22.5463
   6   2.0000      -0.675017       -18.3682
   7   2.0000      -0.591986       -16.1088
   8   2.0000      -0.512626       -13.9493
   9   2.0000      -0.482448       -13.1281
  10   2.0000      -0.425056       -11.5664
  11   2.0000      -0.397367       -10.8129
  12   2.0000      -0.388357       -10.5677
  13   2.0000      -0.305880        -8.3234
  14   2.0000      -0.252911        -6.8821
  15   0.0000      -0.064752        -1.7620
  16   0.0000       0.048824         1.3286
  17   0.0000       0.079202         2.1552
  18   0.0000       0.092846         2.5265
  19   0.0000       0.131245         3.5714

MULLIKEN ATOMIC CHARGES
-----------------------
   0 C :    0.120784
   1 O :   -0.207652
   2 C :    0.005208
   3 C :    0.366070
   4 H :   -0.014732
   5 H :   -0.112148
   6 H :   -0.166328
   7 H :    0.008797
Sum of atomic charges:    0.0000000

LOEWDIN ATOMIC CHARGES
----------------------
   0 C :   -0.000217
   1 O :   -0.026564
   2 C :    0.002090
   3 C :    0.080427
   4 H :   -0.005783
   5 H :   -0.025776
   6 H :   -0.071128
   7 H :    0.046952

  Mayer bond orders larger than 0.100000
B(  0-C ,  1-O ) :   2.1434 B(  0-C ,  2-C ) :   1.0419 B(  0-C ,  4-H ) :   0.9066
B(  2-C ,  3-C ) :   1.9950 B(  2-C ,  5-H ) :   0.9392 B(  3-C ,  6-H ) :   0.9034
B(  3-C ,  7-H ) :   0.9111

-----------------------------------------------------------------------------
         ABSORPTION SPECTRUM VIA TRANSITION ELECTRIC DIPOLE MOMENTS
-----------------------------------------------------------------------------
State   Energy    Wavelength  fosc         T2        TX        TY        TZ
        (cm-1)      (nm)                 (au**2)    (au)      (au)      (au)
-----------------------------------------------------------------------------
   1   27973.4    357.5   0.000179331   0.00211  -0.02024  -0.03270   0.02512

FINAL SINGLE POINT ENERGY      -191.547342590327

DIPOLE MOMENT
-------------
                                X             Y             Z
Electronic contribution:     -3.01065      -0.13993       1.11922
Nuclear contribution   :      4.05568       0.16942      -1.62639
                        -----------------------------------------
Total Dipole Moment    :      1.04503       0.02949      -0.50717
                        -----------------------------------------
Magnitude (a.u.)       :      1.16198
Magnitude (Debye)      :      2.95351

Rotational constants in cm-1:     1.811614     0.147689     0.136646
Rotational constants in MHz : 54310.806429  4427.619036  4096.530737

                             ****ORCA TERMINATED NORMALLY****
TOTAL RUN TIME: 0 days 0 hours 3 minutes 12 seconds 942 msec
