                         Program Version 5.0.3 -  RELEASE  -
|  1> ! B3LYP cc-pVDZ
|  2> !TightSCF
|  3> %scf
|  4>  ConvForced true
|  5>  convergence tight
|  6>  MaxIter 500
|  7> end
|  8>
|  9> %tddft
| 10>  nroots 1
| 11> end
| 12>
| 13> # 	16483
| 14> * xyz 0 1
| 15> 		C   -1.257116  -0.357423   0.061397
| 16> 		O   -1.331014  -1.485195  -0.271792
| 17> 		C    0.010150   0.467778  -0.087689
| 18> 		C    1.234111   0.045741   0.079664
| 19> 		H   -2.043790   0.233375   0.457652
| 20> 		H   -0.043102   1.518879  -0.308277
| 21> 		H    1.390348  -1.053306   0.266053
| 22> 		H    2.026608   0.577251  -0.157765
| 23> *
| 24>
| 25>                          ****END OF INPUT****

CARTESIAN COORDINATES (ANGSTROEM)
---------------------------------
  C     -1.257116   -0.357423    0.061397
  O     -1.331014   -1.485195   -0.271792
  C      0.010150    0.467778   -0.087689
  C      1.234111    0.045741    0.079664
  H     -2.043790    0.233375    0.457652
  H     -0.043102    1.518879   -0.308277
  H      1.390348   -1.053306    0.266053
  H      2.026608    0.577251   -0.157765

 Total Charge           Charge          ....    0
 Multiplicity           Mult            ....    1
 Number of Electrons    NEL             ....   30
 Basis Dimension        Dim             ....   76

ORBITAL ENERGIES
----------------

  NO   OCC          E(Eh)            E(eV)
   0   2.0000     -19.145723      -520.9816
   1   2.0000     -10.276559      -279.6394
   2   2.0000     -10.193898      -277.3901
   3   2.0000     -10.192239      -277.3449
   4   2.0000      -1.069651       -29.1067
   5   2.0000      -0.796439       -21.6722
   6   2.0000      -0.660147       -17.9635
   7   2.0000      -0.553777       -15.0690
   8   2.0000      -0.510981       -13.9045
   9   2.0000      -0.451605       -12.2888
  10   2.0000      -0.448980       -12.2174
  11   2.0000      -0.402873       -10.9627
  12   2.0000      -0.372384       -10.1331
  13   2.0000      -0.290284        -7.8990
  14   2.0000      -0.259130        -7.0513
  15   0.0000      -0.053568        -1.4577
  16   0.0000       0.044863         1.2208
  17   0.0000       0.081092         2.2066
  18   0.0000       0.096913         2.6371
  19   0.0000       0.122320         3.3285

MULLIKEN ATOMIC CHARGES
-----------------------
   0 C :    0.211279
   1 O :   -0.156442
   2 C :   -0.138679
   3 C :    0.112335
   4 H :   -0.025649
   5 H :   -0.016663
   6 H :    0.027210
   7 H :   -0.013391
Sum of atomic charges:   -0.0000000

LOEWDIN ATOMIC CHARGES
----------------------
   0 C :   -0.034515
   1 O :    0.041010
   2 C :   -0.069852
   3 C :    0.013315
   4 H :   -0.013716
   5 H :    0.025875
   6 H :    0.037755
   7 H :    0.000128

  Mayer bond orders larger than 0.100000
B(  0-C ,  1-O ) :   2.2508 B(  0-C ,  2-C ) :   0.9970 B(  0-C ,  4-H ) :   0.9160
B(  2-C ,  3-C ) :   2.0419 B(  2-C ,  5-H ) :   0.9313 B(  3-C ,  6-H ) :   0.9390
B(  3-C ,  7-H ) :   0.9329

-----------------------------------------------------------------------------
         ABSORPTION SPECTRUM VIA TRANSITION ELECTRIC DIPOLE MOMENTS
-----------------------------------------------------------------------------
State   Energy    Wavelength  fosc         T2        TX        TY        TZ
        (cm-1)      (nm)                 (au**2)    (au)      (au)      (au)
-----------------------------------------------------------------------------
   1   31606.6    316.4   0.000033867   0.00035  -0.01698  -0.00281  -0.00751

FINAL SINGLE POINT ENERGY      -191.642242646033

DIPOLE MOMENT
-------------
                                X             Y             Z
Electronic contribution:     -2.28385      -1.74504      -0.29512
Nuclear contribution   :      2.57945       2.55968       0.46939
                        -----------------------------------------
Total Dipole Moment    :      0.29560       0.81464       0.17427
                        -----------------------------------------
Magnitude (a.u.)       :      0.88396
Magnitude (Debye)      :      2.24685

Rotational constants in cm-1:     0.857029     0.192573     0.160750
Rotational constants in MHz : 25693.074097  5773.195054  4819.170043

                             ****ORCA TERMINATED NORMALLY****
TOTAL RUN TIME: 0 days 0 hours 3 minutes 24 seconds 483 msec
