                         Program Version 5.0.3 -  RELEASE  -
|  1> ! B3LYP cc-pVDZ
|  2> !TightSCF
|  3> %scf
|  4>  ConvForced true
|  5>  convergence tight
|  6>  MaxIter 500
|  7> end
|  8>
|  9> %tddft
| 10>  nroots 1
| 11> end
| 12>
| 13> # 	24624
| 14> * xyz 0 1
| 15> 		C   -0.603079  -0.438210   0.040452
| 16> 		O   -0.574505  -1.613612  -0.017514
| 17> 		C    0.624387   0.407932  -0.022264
| 18> 		C    1.854773  -0.143284   0.034158
| 19> 		H   -1.443945   0.056628  -0.036682
| 20> 		H    0.450954   1.527729  -0.112398
| 21> 		H    2.015990  -1.155651  -0.121471
| 22> 		H    2.695461   0.509273  -0.082638
| 23> *
| 24>
| 25>                          ****END OF INPUT****

CARTESIAN COORDINATES (ANGSTROEM)
---------------------------------
  C     -0.603079   -0.438210    0.040452
  O     -0.574505   -1.613612   -0.017514
  C      0.624387    0.407932   -0.022264
  C      1.854773   -0.143284    0.034158
  H     -1.443945    0.056628   -0.036682
  H      0.450954    1.527729   -0.112398
  H      2.015990   -1.155651   -0.121471
  H      2.695461    0.509273   -0.082638

 Total Charge           Charge          ....    0
 Multiplicity           Mult            ....    1
 Number of Electrons    NEL             ....   30
 Basis Dimension        Dim             ....   76

ORBITAL ENERGIES
----------------

  NO   OCC          E(Eh)            E(eV)
   0   2.0000     -19.134267      -520.6699
   1   2.0000     -10.258647      -279.1520
   2   2.0000     -10.204399      -277.6758
   3   2.0000     -10.202793      -277.6321
   4   2.0000      -1.063490       -28.9390
   5   2.0000      -0.787519       -21.4295
   6   2.0000      -0.667060       -18.1516
   7   2.0000      -0.558620       -15.2008
   8   2.0000      -0.507176       -13.8010
   9   2.0000      -0.449904       -12.2425
  10   2.0000      -0.425709       -11.5841
  11   2.0000      -0.406681       -11.0664
  12   2.0000      -0.385485       -10.4896
  13   2.0000      -0.283273        -7.7083
  14   2.0000      -0.253358        -6.8942
  15   0.0000      -0.066887        -1.8201
  16   0.0000       0.060734         1.6527
  17   0.0000       0.071104         1.9348
  18   0.0000       0.102521         2.7898
  19   0.0000       0.132608         3.6084

MULLIKEN ATOMIC CHARGES
-----------------------
   0 C :    0.264536
   1 O :   -0.171384
   2 C :   -0.185953
   3 C :    0.115547
   4 H :   -0.068817
   5 H :    0.003476
   6 H :    0.018805
   7 H :    0.023790
Sum of atomic charges:    0.0000000

LOEWDIN ATOMIC CHARGES
----------------------
   0 C :   -0.041411
   1 O :    0.033606
   2 C :   -0.072365
   3 C :    0.031376
   4 H :   -0.031595
   5 H :    0.033190
   6 H :    0.018780
   7 H :    0.028419

  Mayer bond orders larger than 0.100000
B(  0-C ,  1-O ) :   2.2308 B(  0-C ,  2-C ) :   1.0538 B(  0-C ,  4-H ) :   0.9306
B(  2-C ,  3-C ) :   1.9718 B(  2-C ,  5-H ) :   0.9397 B(  3-C ,  6-H ) :   0.9407
B(  3-C ,  7-H ) :   0.9446

-----------------------------------------------------------------------------
         ABSORPTION SPECTRUM VIA TRANSITION ELECTRIC DIPOLE MOMENTS
-----------------------------------------------------------------------------
State   Energy    Wavelength  fosc         T2        TX        TY        TZ
        (cm-1)      (nm)                 (au**2)    (au)      (au)      (au)
-----------------------------------------------------------------------------
   1   28123.3    355.6   0.000015007   0.00018  -0.00551   0.00545  -0.01075

FINAL SINGLE POINT ENERGY      -191.656326458870

DIPOLE MOMENT
-------------
                                X             Y             Z
Electronic contribution:     -2.05268      -1.82652       0.28273
Nuclear contribution   :      2.33161       2.66752      -0.33111
                        -----------------------------------------
Total Dipole Moment    :      0.27893       0.84100      -0.04838
                        -----------------------------------------
Magnitude (a.u.)       :      0.88737
Magnitude (Debye)      :      2.25552

Rotational constants in cm-1:     0.776197     0.211185     0.166279
Rotational constants in MHz : 23269.792101  6331.175481  4984.929397

                             ****ORCA TERMINATED NORMALLY****
TOTAL RUN TIME: 0 days 0 hours 3 minutes 23 seconds 412 msec
