                         Program Version 5.0.3 -  RELEASE  -
|  1> ! B3LYP cc-pVDZ
|  2> !TightSCF
|  3> %scf
|  4>  ConvForced true
|  5>  convergence tight
|  6>  MaxIter 500
|  7> end
|  8>
|  9> %tddft
| 10>  nroots 1
| 11> end
| 12>
| 13> # 	31555
| 14> * xyz 0 1
| 15> 		C   -0.635919  -0.454545   0.053817
| 16> 		O   -0.587191  -1.625611  -0.058615
| 17> 		C    0.611506   0.419921  -0.057789
| 18> 		C    1.916239  -0.134747   0.062252
| 19> 		H   -1.674441   0.068131   0.520086
| 20> 		H    0.449568   1.461848  -0.335654
| 21> 		H    2.226160  -1.083369   0.267111
| 22> 		H    2.719910   0.645309  -0.256435
| 23> *
| 24>
| 25>                          ****END OF INPUT****

CARTESIAN COORDINATES (ANGSTROEM)
---------------------------------
  C     -0.635919   -0.454545    0.053817
  O     -0.587191   -1.625611   -0.058615
  C      0.611506    0.419921   -0.057789
  C      1.916239   -0.134747    0.062252
  H     -1.674441    0.068131    0.520086
  H      0.449568    1.461848   -0.335654
  H      2.226160   -1.083369    0.267111
  H      2.719910    0.645309   -0.256435

 Total Charge           Charge          ....    0
 Multiplicity           Mult            ....    1
 Number of Electrons    NEL             ....   30
 Basis Dimension        Dim             ....   76

ORBITAL ENERGIES
----------------

  NO   OCC          E(Eh)            E(eV)
   0   2.0000     -19.144405      -520.9458
   1   2.0000     -10.286416      -279.9076
   2   2.0000     -10.224889      -278.2334
   3   2.0000     -10.220287      -278.1082
   4   2.0000      -1.069433       -29.1008
   5   2.0000      -0.773000       -21.0344
   6   2.0000      -0.645844       -17.5743
   7   2.0000      -0.540967       -14.7205
   8   2.0000      -0.491616       -13.3775
   9   2.0000      -0.455354       -12.3908
  10   2.0000      -0.427907       -11.6439
  11   2.0000      -0.396339       -10.7849
  12   2.0000      -0.391259       -10.6467
  13   2.0000      -0.277715        -7.5570
  14   2.0000      -0.253796        -6.9061
  15   0.0000      -0.070726        -1.9246
  16   0.0000       0.034478         0.9382
  17   0.0000       0.064877         1.7654
  18   0.0000       0.083149         2.2626
  19   0.0000       0.104736         2.8500

MULLIKEN ATOMIC CHARGES
-----------------------
   0 C :    0.127201
   1 O :   -0.145897
   2 C :   -0.102173
   3 C :    0.055931
   4 H :   -0.015372
   5 H :    0.012021
   6 H :    0.018281
   7 H :    0.050009
Sum of atomic charges:   -0.0000000

LOEWDIN ATOMIC CHARGES
----------------------
   0 C :   -0.066080
   1 O :    0.032836
   2 C :   -0.069420
   3 C :    0.027967
   4 H :   -0.007295
   5 H :    0.026025
   6 H :    0.006982
   7 H :    0.048985

  Mayer bond orders larger than 0.100000
B(  0-C ,  1-O ) :   2.2398 B(  0-C ,  2-C ) :   0.9965 B(  0-C ,  4-H ) :   0.8789
B(  2-C ,  3-C ) :   1.9497 B(  2-C ,  5-H ) :   0.9432 B(  3-C ,  6-H ) :   0.9587
B(  3-C ,  7-H ) :   0.9493

-----------------------------------------------------------------------------
         ABSORPTION SPECTRUM VIA TRANSITION ELECTRIC DIPOLE MOMENTS
-----------------------------------------------------------------------------
State   Energy    Wavelength  fosc         T2        TX        TY        TZ
        (cm-1)      (nm)                 (au**2)    (au)      (au)      (au)
-----------------------------------------------------------------------------
   1   28052.4    356.5   0.000421342   0.00494  -0.05241  -0.00797   0.04620

FINAL SINGLE POINT ENERGY      -191.650577738628

DIPOLE MOMENT
-------------
                                X             Y             Z
Electronic contribution:     -1.91918      -2.05799      -0.17251
Nuclear contribution   :      2.33473       2.81086       0.18494
                        -----------------------------------------
Total Dipole Moment    :      0.41555       0.75286       0.01243
                        -----------------------------------------
Magnitude (a.u.)       :      0.86002
Magnitude (Debye)      :      2.18601

Rotational constants in cm-1:     0.726011     0.197532     0.157313
Rotational constants in MHz : 21765.265116  5921.856588  4716.110164

                             ****ORCA TERMINATED NORMALLY****
TOTAL RUN TIME: 0 days 0 hours 3 minutes 20 seconds 985 msec
