                         Program Version 5.0.3 -  RELEASE  -
|  1> ! HF-3c
|  2> !TightSCF
|  3> %scf
|  4>  ConvForced true
|  5>  convergence tight
|  6>  MaxIter 500
|  7> end
|  8>
|  9> %tddft
| 10>  nroots 1
| 11> end
| 12>
| 13> # 	22022
| 14> * xyz 0 1
| 15> 		C   -0.544332  -0.408249  -0.021770
| 16> 		O   -0.564647  -1.640601   0.002099
| 17> 		C    0.627001   0.425135   0.065973
| 18> 		C    1.804111  -0.136560  -0.021486
| 19> 		H   -1.539860   0.065161  -0.095314
| 20> 		H    0.515623   1.576360  -0.162646
| 21> 		H    1.745486  -1.311251   0.080522
| 22> 		H    2.737659   0.371277  -0.140659
| 23> *
| 24>
| 25>                          ****END OF INPUT****

CARTESIAN COORDINATES (ANGSTROEM)
---------------------------------
  C     -0.544332   -0.408249   -0.021770
  O     -0.564647   -1.640601    0.002099
  C      0.627001    0.425135    0.065973
  C      1.804111   -0.136560   -0.021486
  H     -1.539860    0.065161   -0.095314
  H      0.515623    1.576360   -0.162646
  H      1.745486   -1.311251    0.080522
  H      2.737659    0.371277   -0.140659

 Total Charge           Charge          ....    0
 Multiplicity           Mult            ....    1
 Number of Electrons    NEL             ....   30
 Basis Dimension        Dim             ....   24

ORBITAL ENERGIES
----------------

  NO   OCC          E(Eh)            E(eV)
   0   2.0000     -20.347779      -553.6912
   1   2.0000     -11.287179      -307.1398
   2   2.0000     -11.191475      -304.5355
   3   2.0000     -11.187147      -304.4177
   4   2.0000      -1.382998       -37.6333
   5   2.0000      -1.089191       -29.6384
   6   2.0000      -0.888928       -24.1890
   7   2.0000      -0.734990       -20.0001
   8   2.0000      -0.695549       -18.9269
   9   2.0000      -0.611056       -16.6277
  10   2.0000      -0.584924       -15.9166
  11   2.0000      -0.536856       -14.6086
  12   2.0000      -0.500449       -13.6179
  13   2.0000      -0.414544       -11.2803
  14   2.0000      -0.393680       -10.7126
  15   0.0000       0.130490         3.5508
  16   0.0000       0.315733         8.5915
  17   0.0000       0.512810        13.9543
  18   0.0000       0.577182        15.7059
  19   0.0000       0.617027        16.7901

MULLIKEN ATOMIC CHARGES
-----------------------
   0 C :    0.152712
   1 O :   -0.359453
   2 C :   -0.185557
   3 C :   -0.207557
   4 H :    0.136805
   5 H :    0.145905
   6 H :    0.169174
   7 H :    0.147972
Sum of atomic charges:   -0.0000000

LOEWDIN ATOMIC CHARGES
----------------------
   0 C :    0.142831
   1 O :   -0.274439
   2 C :   -0.147634
   3 C :   -0.110607
   4 H :    0.073728
   5 H :    0.100490
   6 H :    0.120516
   7 H :    0.095115

  Mayer bond orders larger than 0.100000
B(  0-C ,  1-O ) :   1.8860 B(  0-C ,  2-C ) :   1.0468 B(  0-C ,  4-H ) :   0.9313
B(  2-C ,  3-C ) :   1.9327 B(  2-C ,  5-H ) :   0.9511 B(  3-C ,  6-H ) :   0.9459
B(  3-C ,  7-H ) :   0.9642

-----------------------------------------------------------------------------
         ABSORPTION SPECTRUM VIA TRANSITION ELECTRIC DIPOLE MOMENTS
-----------------------------------------------------------------------------
State   Energy    Wavelength  fosc         T2        TX        TY        TZ
        (cm-1)      (nm)                 (au**2)    (au)      (au)      (au)
-----------------------------------------------------------------------------
   1   31648.8    316.0   0.000223965   0.00233  -0.04265  -0.00047   0.02259

Dispersion correction           -0.026213751
FINAL SINGLE POINT ENERGY      -189.328964806098

DIPOLE MOMENT
-------------
                                X             Y             Z
Electronic contribution:     -1.71092      -1.52949       0.19931
Nuclear contribution   :      2.08660       2.44685      -0.29745
                        -----------------------------------------
Total Dipole Moment    :      0.37567       0.91736      -0.09814
                        -----------------------------------------
Magnitude (a.u.)       :      0.99614
Magnitude (Debye)      :      2.53200

Rotational constants in cm-1:     0.759250     0.217682     0.169606
Rotational constants in MHz : 22761.751779  6525.955522  5084.672958

                             ****ORCA TERMINATED NORMALLY****
TOTAL RUN TIME: 0 days 0 hours 0 minutes 11 seconds 412 msec
