                         Program Version 5.0.3 -  RELEASE  -
|  1> ! B3LYP cc-pVDZ
|  2> !TightSCF
|  3> %scf
|  4>  ConvForced true
|  5>  convergence tight
|  6>  MaxIter 500
|  7> end
|  8>
|  9> %tddft
| 10>  nroots 1
| 11> end
| 12>
| 13> # 	886
| 14> * xyz 0 1
| 15> 		C   -1.216493  -0.368908   0.058680
| 16> 		O   -1.426715  -1.405559   0.586159
| 17> 		C   -0.030975   0.506462   0.219568
| 18> 		C    1.242167  -0.021762  -0.127181
| 19> 		H   -1.892481   0.123113  -0.750790
| 20> 		H   -0.170102   1.509955   0.433679
| 21> 		H    1.400292  -1.054706  -0.516263
| 22> 		H    2.058874   0.718092   0.071014
| 23> *
| 24>
| 25>                          ****END OF INPUT****

CARTESIAN COORDINATES (ANGSTROEM)
---------------------------------
  C     -1.216493   -0.368908    0.058680
  O     -1.426715   -1.405559    0.586159
  C     -0.030975    0.506462    0.219568
  C      1.242167   -0.021762   -0.127181
  H     -1.892481    0.123113   -0.750790
  H     -0.170102    1.509955    0.433679
  H      1.400292   -1.054706   -0.516263
  H      2.058874    0.718092    0.071014

 Total Charge           Charge          ....    0
 Multiplicity           Mult            ....    1
 Number of Electrons    NEL             ....   30
 Basis Dimension        Dim             ....   76

ORBITAL ENERGIES
----------------

  NO   OCC          E(Eh)            E(eV)
   0   2.0000     -19.146752      -521.0096
   1   2.0000     -10.281029      -279.7610
   2   2.0000     -10.223862      -278.2054
   3   2.0000     -10.209890      -277.8252
   4   2.0000      -1.066972       -29.0338
   5   2.0000      -0.783863       -21.3300
   6   2.0000      -0.650724       -17.7071
   7   2.0000      -0.548968       -14.9382
   8   2.0000      -0.496993       -13.5239
   9   2.0000      -0.452496       -12.3130
  10   2.0000      -0.436019       -11.8647
  11   2.0000      -0.404652       -11.0111
  12   2.0000      -0.384685       -10.4678
  13   2.0000      -0.275715        -7.5026
  14   2.0000      -0.254249        -6.9185
  15   0.0000      -0.051609        -1.4044
  16   0.0000       0.006181         0.1682
  17   0.0000       0.075310         2.0493
  18   0.0000       0.085335         2.3221
  19   0.0000       0.106819         2.9067

MULLIKEN ATOMIC CHARGES
-----------------------
   0 C :    0.159500
   1 O :   -0.154527
   2 C :   -0.064175
   3 C :   -0.007369
   4 H :   -0.023933
   5 H :   -0.004907
   6 H :    0.050931
   7 H :    0.044480
Sum of atomic charges:   -0.0000000

LOEWDIN ATOMIC CHARGES
----------------------
   0 C :   -0.055523
   1 O :    0.035848
   2 C :   -0.049210
   3 C :   -0.011777
   4 H :   -0.010329
   5 H :    0.016853
   6 H :    0.036928
   7 H :    0.037209

  Mayer bond orders larger than 0.100000
B(  0-C ,  1-O ) :   2.2572 B(  0-C ,  2-C ) :   1.0121 B(  0-C ,  4-H ) :   0.8872
B(  2-C ,  3-C ) :   1.9738 B(  2-C ,  5-H ) :   0.9426 B(  3-C ,  6-H ) :   0.9499
B(  3-C ,  7-H ) :   0.9477

-----------------------------------------------------------------------------
         ABSORPTION SPECTRUM VIA TRANSITION ELECTRIC DIPOLE MOMENTS
-----------------------------------------------------------------------------
State   Energy    Wavelength  fosc         T2        TX        TY        TZ
        (cm-1)      (nm)                 (au**2)    (au)      (au)      (au)
-----------------------------------------------------------------------------
   1   31955.2    312.9   0.001817789   0.01873   0.13607  -0.00814  -0.01207

FINAL SINGLE POINT ENERGY      -191.639985106231

DIPOLE MOMENT
-------------
                                X             Y             Z
Electronic contribution:     -2.28697      -1.75710       1.06858
Nuclear contribution   :      2.73272       2.52540      -1.40705
                        -----------------------------------------
Total Dipole Moment    :      0.44575       0.76830      -0.33847
                        -----------------------------------------
Magnitude (a.u.)       :      0.95055
Magnitude (Debye)      :      2.41611

Rotational constants in cm-1:     0.812000     0.183950     0.158904
Rotational constants in MHz : 24343.149648  5514.677237  4763.811933

                             ****ORCA TERMINATED NORMALLY****
TOTAL RUN TIME: 0 days 0 hours 3 minutes 21 seconds 217 msec
