                         Program Version 5.0.3 -  RELEASE  -
|  1> ! B3LYP cc-pVDZ
|  2> !TightSCF
|  3> %scf
|  4>  ConvForced true
|  5>  convergence tight
|  6>  MaxIter 500
|  7> end
|  8>
|  9> %tddft
| 10>  nroots 1
| 11> end
| 12>
| 13> # 	22929
| 14> * xyz 0 1
| 15> 		C   -0.560432  -0.407121  -0.050491
| 16> 		O   -0.605759  -1.625217   0.021255
| 17> 		C    0.639266   0.372377   0.058645
| 18> 		C    1.833346  -0.112365  -0.028584
| 19> 		H   -1.455158  -0.030379  -0.026410
| 20> 		H    0.474553   1.422153  -0.070874
| 21> 		H    2.087242  -1.246423  -0.047981
| 22> 		H    2.705045   0.653180   0.052816
| 23> *
| 24>
| 25>                          ****END OF INPUT****

CARTESIAN COORDINATES (ANGSTROEM)
---------------------------------
  C     -0.560432   -0.407121   -0.050491
  O     -0.605759   -1.625217    0.021255
  C      0.639266    0.372377    0.058645
  C      1.833346   -0.112365   -0.028584
  H     -1.455158   -0.030379   -0.026410
  H      0.474553    1.422153   -0.070874
  H      2.087242   -1.246423   -0.047981
  H      2.705045    0.653180    0.052816

 Total Charge           Charge          ....    0
 Multiplicity           Mult            ....    1
 Number of Electrons    NEL             ....   30
 Basis Dimension        Dim             ....   76

ORBITAL ENERGIES
----------------

  NO   OCC          E(Eh)            E(eV)
   0   2.0000     -19.126110      -520.4479
   1   2.0000     -10.252752      -278.9916
   2   2.0000     -10.221363      -278.1374
   3   2.0000     -10.195109      -277.4230
   4   2.0000      -1.035638       -28.1811
   5   2.0000      -0.807092       -21.9621
   6   2.0000      -0.665804       -18.1174
   7   2.0000      -0.552179       -15.0256
   8   2.0000      -0.515749       -14.0342
   9   2.0000      -0.447642       -12.1810
  10   2.0000      -0.418390       -11.3850
  11   2.0000      -0.396463       -10.7883
  12   2.0000      -0.369015       -10.0414
  13   2.0000      -0.293487        -7.9862
  14   2.0000      -0.247765        -6.7420
  15   0.0000      -0.069138        -1.8813
  16   0.0000       0.060512         1.6466
  17   0.0000       0.069810         1.8996
  18   0.0000       0.084640         2.3032
  19   0.0000       0.128515         3.4971

MULLIKEN ATOMIC CHARGES
-----------------------
   0 C :    0.249339
   1 O :   -0.215347
   2 C :   -0.076500
   3 C :    0.021225
   4 H :   -0.070254
   5 H :   -0.014756
   6 H :    0.059810
   7 H :    0.046483
Sum of atomic charges:   -0.0000000

LOEWDIN ATOMIC CHARGES
----------------------
   0 C :   -0.018193
   1 O :   -0.014128
   2 C :   -0.090548
   3 C :    0.019422
   4 H :   -0.026640
   5 H :    0.030310
   6 H :    0.050960
   7 H :    0.048818

  Mayer bond orders larger than 0.100000
B(  0-C ,  1-O ) :   2.1682 B(  0-C ,  2-C ) :   1.0948 B(  0-C ,  4-H ) :   0.9477
B(  2-C ,  3-C ) :   1.9679 B(  2-C ,  5-H ) :   0.9324 B(  3-C ,  6-H ) :   0.9293
B(  3-C ,  7-H ) :   0.9291

-----------------------------------------------------------------------------
         ABSORPTION SPECTRUM VIA TRANSITION ELECTRIC DIPOLE MOMENTS
-----------------------------------------------------------------------------
State   Energy    Wavelength  fosc         T2        TX        TY        TZ
        (cm-1)      (nm)                 (au**2)    (au)      (au)      (au)
-----------------------------------------------------------------------------
   1   25885.2    386.3   0.000227551   0.00289  -0.04056  -0.01694   0.03102

FINAL SINGLE POINT ENERGY      -191.657170073745

DIPOLE MOMENT
-------------
                                X             Y             Z
Electronic contribution:     -2.01867      -1.59979       0.02484
Nuclear contribution   :      2.41675       2.53710      -0.08652
                        -----------------------------------------
Total Dipole Moment    :      0.39809       0.93731      -0.06168
                        -----------------------------------------
Magnitude (a.u.)       :      1.02021
Magnitude (Debye)      :      2.59316

Rotational constants in cm-1:     0.823612     0.208917     0.166976
Rotational constants in MHz : 24691.271938  6263.185301  5005.804166

                             ****ORCA TERMINATED NORMALLY****
TOTAL RUN TIME: 0 days 0 hours 3 minutes 21 seconds 343 msec
