                         Program Version 5.0.3 -  RELEASE  -
|  1> ! B3LYP cc-pVDZ
|  2> !TightSCF
|  3> %scf
|  4>  ConvForced true
|  5>  convergence tight
|  6>  MaxIter 500
|  7> end
|  8>
|  9> %tddft
| 10>  nroots 1
| 11> end
| 12>
| 13> # 	6520
| 14> * xyz 0 1
| 15> 		C   -1.226748  -0.298183  -0.013074
| 16> 		O   -1.170625  -1.564918  -0.061752
| 17> 		C   -0.040562   0.514241  -0.085181
| 18> 		C    1.244874   0.005786  -0.057530
| 19> 		H   -2.118092   0.412139   0.040343
| 20> 		H   -0.275482   1.571330   0.008028
| 21> 		H    1.327466  -1.165285   0.076323
| 22> 		H    2.280204   0.569065   0.123233
| 23> *
| 24>
| 25>                          ****END OF INPUT****

CARTESIAN COORDINATES (ANGSTROEM)
---------------------------------
  C     -1.226748   -0.298183   -0.013074
  O     -1.170625   -1.564918   -0.061752
  C     -0.040562    0.514241   -0.085181
  C      1.244874    0.005786   -0.057530
  H     -2.118092    0.412139    0.040343
  H     -0.275482    1.571330    0.008028
  H      1.327466   -1.165285    0.076323
  H      2.280204    0.569065    0.123233

 Total Charge           Charge          ....    0
 Multiplicity           Mult            ....    1
 Number of Electrons    NEL             ....   30
 Basis Dimension        Dim             ....   76

ORBITAL ENERGIES
----------------

  NO   OCC          E(Eh)            E(eV)
   0   2.0000     -19.140157      -520.8302
   1   2.0000     -10.280169      -279.7376
   2   2.0000     -10.239916      -278.6423
   3   2.0000     -10.210252      -277.8351
   4   2.0000      -1.015574       -27.6352
   5   2.0000      -0.789640       -21.4872
   6   2.0000      -0.664877       -18.0922
   7   2.0000      -0.532279       -14.4840
   8   2.0000      -0.495191       -13.4748
   9   2.0000      -0.440953       -11.9989
  10   2.0000      -0.414965       -11.2918
  11   2.0000      -0.386350       -10.5131
  12   2.0000      -0.366755        -9.9799
  13   2.0000      -0.281004        -7.6465
  14   2.0000      -0.258321        -7.0293
  15   0.0000      -0.087533        -2.3819
  16   0.0000       0.048803         1.3280
  17   0.0000       0.056206         1.5294
  18   0.0000       0.073703         2.0055
  19   0.0000       0.122688         3.3385

MULLIKEN ATOMIC CHARGES
-----------------------
   0 C :    0.184088
   1 O :   -0.236128
   2 C :   -0.065851
   3 C :   -0.017784
   4 H :    0.000906
   5 H :   -0.010222
   6 H :    0.074212
   7 H :    0.070777
Sum of atomic charges:    0.0000000

LOEWDIN ATOMIC CHARGES
----------------------
   0 C :   -0.015824
   1 O :   -0.055157
   2 C :   -0.087992
   3 C :    0.018110
   4 H :    0.008851
   5 H :    0.025952
   6 H :    0.053417
   7 H :    0.052644

  Mayer bond orders larger than 0.100000
B(  0-C ,  1-O ) :   2.1083 B(  0-C ,  2-C ) :   1.1212 B(  0-C ,  4-H ) :   0.9083
B(  1-O ,  3-C ) :   0.1157 B(  2-C ,  3-C ) :   1.8822 B(  2-C ,  5-H ) :   0.9469
B(  3-C ,  6-H ) :   0.9270 B(  3-C ,  7-H ) :   0.9456

-----------------------------------------------------------------------------
         ABSORPTION SPECTRUM VIA TRANSITION ELECTRIC DIPOLE MOMENTS
-----------------------------------------------------------------------------
State   Energy    Wavelength  fosc         T2        TX        TY        TZ
        (cm-1)      (nm)                 (au**2)    (au)      (au)      (au)
-----------------------------------------------------------------------------
   1   24680.8    405.2   0.000082863   0.00111  -0.01735  -0.00578  -0.02776

FINAL SINGLE POINT ENERGY      -191.671679616441

DIPOLE MOMENT
-------------
                                X             Y             Z
Electronic contribution:     -1.86850      -1.72231      -0.28887
Nuclear contribution   :      2.31617       2.68780       0.40702
                        -----------------------------------------
Total Dipole Moment    :      0.44766       0.96550       0.11815
                        -----------------------------------------
Magnitude (a.u.)       :      1.07077
Magnitude (Debye)      :      2.72168

Rotational constants in cm-1:     0.696677     0.209325     0.161243
Rotational constants in MHz : 20885.847517  6275.404012  4833.928803

                             ****ORCA TERMINATED NORMALLY****
TOTAL RUN TIME: 0 days 0 hours 3 minutes 21 seconds 558 msec
