                         Program Version 5.0.3 -  RELEASE  -
|  1> ! B3LYP cc-pVDZ
|  2> !TightSCF
|  3> %scf
|  4>  ConvForced true
|  5>  convergence tight
|  6>  MaxIter 500
|  7> end
|  8>
|  9> %tddft
| 10>  nroots 1
| 11> end
| 12>
| 13> # 	955
| 14> * xyz 0 1
| 15> 		C   -1.118271  -0.299222  -0.061098
| 16> 		O   -2.028089  -0.506288  -0.943332
| 17> 		C    0.043714   0.428469  -0.296059
| 18> 		C    1.223079   0.079273   0.292602
| 19> 		H   -1.414578  -0.821881   1.008660
| 20> 		H    0.024121   1.060525  -1.157298
| 21> 		H    1.089987  -0.547110   1.146584
| 22> 		H    2.204182   0.576997   0.004464
| 23> *
| 24>
| 25>                          ****END OF INPUT****

CARTESIAN COORDINATES (ANGSTROEM)
---------------------------------
  C     -1.118271   -0.299222   -0.061098
  O     -2.028089   -0.506288   -0.943332
  C      0.043714    0.428469   -0.296059
  C      1.223079    0.079273    0.292602
  H     -1.414578   -0.821881    1.008660
  H      0.024121    1.060525   -1.157298
  H      1.089987   -0.547110    1.146584
  H      2.204182    0.576997    0.004464

 Total Charge           Charge          ....    0
 Multiplicity           Mult            ....    1
 Number of Electrons    NEL             ....   30
 Basis Dimension        Dim             ....   76

ORBITAL ENERGIES
----------------

  NO   OCC          E(Eh)            E(eV)
   0   2.0000     -19.133153      -520.6396
   1   2.0000     -10.281244      -279.7669
   2   2.0000     -10.232297      -278.4350
   3   2.0000     -10.213468      -277.9226
   4   2.0000      -1.005472       -27.3603
   5   2.0000      -0.815921       -22.2024
   6   2.0000      -0.659071       -17.9342
   7   2.0000      -0.564840       -15.3701
   8   2.0000      -0.478635       -13.0243
   9   2.0000      -0.466264       -12.6877
  10   2.0000      -0.407421       -11.0865
  11   2.0000      -0.403907       -10.9909
  12   2.0000      -0.370184       -10.0732
  13   2.0000      -0.289987        -7.8910
  14   2.0000      -0.249695        -6.7945
  15   0.0000      -0.079796        -2.1714
  16   0.0000       0.028511         0.7758
  17   0.0000       0.067285         1.8309
  18   0.0000       0.071525         1.9463
  19   0.0000       0.114629         3.1192

MULLIKEN ATOMIC CHARGES
-----------------------
   0 C :    0.118060
   1 O :   -0.251581
   2 C :   -0.003961
   3 C :    0.045031
   4 H :    0.003022
   5 H :    0.002739
   6 H :    0.026084
   7 H :    0.060605
Sum of atomic charges:   -0.0000000

LOEWDIN ATOMIC CHARGES
----------------------
   0 C :   -0.015911
   1 O :   -0.073856
   2 C :   -0.057357
   3 C :    0.025612
   4 H :    0.013121
   5 H :    0.033731
   6 H :    0.025722
   7 H :    0.048940

  Mayer bond orders larger than 0.100000
B(  0-C ,  1-O ) :   2.0532 B(  0-C ,  2-C ) :   1.1269 B(  0-C ,  4-H ) :   0.9171
B(  1-O ,  3-C ) :   0.1236 B(  2-C ,  3-C ) :   1.8910 B(  2-C ,  5-H ) :   0.9369
B(  3-C ,  6-H ) :   0.9380 B(  3-C ,  7-H ) :   0.9428

-----------------------------------------------------------------------------
         ABSORPTION SPECTRUM VIA TRANSITION ELECTRIC DIPOLE MOMENTS
-----------------------------------------------------------------------------
State   Energy    Wavelength  fosc         T2        TX        TY        TZ
        (cm-1)      (nm)                 (au**2)    (au)      (au)      (au)
-----------------------------------------------------------------------------
   1   24686.3    405.1   0.000660663   0.00881  -0.09297   0.00933  -0.00894

FINAL SINGLE POINT ENERGY      -191.672349470143

DIPOLE MOMENT
-------------
                                X             Y             Z
Electronic contribution:     -2.56633      -0.29074      -1.32631
Nuclear contribution   :      3.68765       0.60227       1.92490
                        -----------------------------------------
Total Dipole Moment    :      1.12132       0.31153       0.59858
                        -----------------------------------------
Magnitude (a.u.)       :      1.30871
Magnitude (Debye)      :      3.32647

Rotational constants in cm-1:     1.403771     0.156750     0.145463
Rotational constants in MHz : 42083.986753  4699.260173  4360.881755

                             ****ORCA TERMINATED NORMALLY****
TOTAL RUN TIME: 0 days 0 hours 3 minutes 15 seconds 718 msec
