                         Program Version 5.0.3 -  RELEASE  -
|  1> ! B3LYP cc-pVDZ
|  2> !TightSCF
|  3> %scf
|  4>  ConvForced true
|  5>  convergence tight
|  6>  MaxIter 500
|  7> end
|  8>
|  9> %tddft
| 10>  nroots 1
| 11> end
| 12>
| 13> # 	29562
| 14> * xyz 0 1
| 15> 		C   -0.587851  -0.410813   0.002108
| 16> 		O   -0.557960  -1.645184  -0.014858
| 17> 		C    0.605023   0.424701  -0.028587
| 18> 		C    1.834312  -0.126657   0.012037
| 19> 		H   -1.627038  -0.000156   0.276516
| 20> 		H    0.669124   1.601868  -0.019289
| 21> 		H    1.921549  -1.370439   0.183877
| 22> 		H    2.829898   0.465272  -0.043285
| 23> *
| 24>
| 25>                          ****END OF INPUT****

CARTESIAN COORDINATES (ANGSTROEM)
---------------------------------
  C     -0.587851   -0.410813    0.002108
  O     -0.557960   -1.645184   -0.014858
  C      0.605023    0.424701   -0.028587
  C      1.834312   -0.126657    0.012037
  H     -1.627038   -0.000156    0.276516
  H      0.669124    1.601868   -0.019289
  H      1.921549   -1.370439    0.183877
  H      2.829898    0.465272   -0.043285

 Total Charge           Charge          ....    0
 Multiplicity           Mult            ....    1
 Number of Electrons    NEL             ....   30
 Basis Dimension        Dim             ....   76

ORBITAL ENERGIES
----------------

  NO   OCC          E(Eh)            E(eV)
   0   2.0000     -19.136407      -520.7281
   1   2.0000     -10.281049      -279.7616
   2   2.0000     -10.234766      -278.5022
   3   2.0000     -10.217324      -278.0275
   4   2.0000      -1.034057       -28.1381
   5   2.0000      -0.791369       -21.5343
   6   2.0000      -0.645975       -17.5779
   7   2.0000      -0.527827       -14.3629
   8   2.0000      -0.501334       -13.6420
   9   2.0000      -0.439283       -11.9535
  10   2.0000      -0.418363       -11.3842
  11   2.0000      -0.390765       -10.6333
  12   2.0000      -0.357014        -9.7148
  13   2.0000      -0.286589        -7.7985
  14   2.0000      -0.255380        -6.9492
  15   0.0000      -0.075838        -2.0637
  16   0.0000       0.050259         1.3676
  17   0.0000       0.057198         1.5564
  18   0.0000       0.069402         1.8885
  19   0.0000       0.104812         2.8521

MULLIKEN ATOMIC CHARGES
-----------------------
   0 C :    0.181696
   1 O :   -0.210743
   2 C :   -0.101998
   3 C :   -0.025601
   4 H :   -0.001330
   5 H :    0.022327
   6 H :    0.077772
   7 H :    0.057876
Sum of atomic charges:    0.0000000

LOEWDIN ATOMIC CHARGES
----------------------
   0 C :   -0.029472
   1 O :   -0.029116
   2 C :   -0.108287
   3 C :    0.006875
   4 H :    0.006466
   5 H :    0.049506
   6 H :    0.059858
   7 H :    0.044169

  Mayer bond orders larger than 0.100000
B(  0-C ,  1-O ) :   2.1432 B(  0-C ,  2-C ) :   1.0308 B(  0-C ,  4-H ) :   0.9303
B(  1-O ,  3-C ) :   0.1006 B(  2-C ,  3-C ) :   1.9314 B(  2-C ,  5-H ) :   0.9364
B(  3-C ,  6-H ) :   0.9229 B(  3-C ,  7-H ) :   0.9373

-----------------------------------------------------------------------------
         ABSORPTION SPECTRUM VIA TRANSITION ELECTRIC DIPOLE MOMENTS
-----------------------------------------------------------------------------
State   Energy    Wavelength  fosc         T2        TX        TY        TZ
        (cm-1)      (nm)                 (au**2)    (au)      (au)      (au)
-----------------------------------------------------------------------------
   1   26353.0    379.5   0.000200213   0.00250  -0.01321   0.00873   0.04744

FINAL SINGLE POINT ENERGY      -191.661143701608

DIPOLE MOMENT
-------------
                                X             Y             Z
Electronic contribution:     -1.95930      -1.52846      -0.30688
Nuclear contribution   :      2.39926       2.44178       0.37369
                        -----------------------------------------
Total Dipole Moment    :      0.43997       0.91332       0.06681
                        -----------------------------------------
Magnitude (a.u.)       :      1.01596
Magnitude (Debye)      :      2.58237

Rotational constants in cm-1:     0.730669     0.210160     0.163621
Rotational constants in MHz : 21904.893413  6300.430728  4905.246734

                             ****ORCA TERMINATED NORMALLY****
TOTAL RUN TIME: 0 days 0 hours 3 minutes 23 seconds 492 msec
