                         Program Version 5.0.3 -  RELEASE  -
|  1> ! HF-3c
|  2> !TightSCF
|  3> %scf
|  4>  ConvForced true
|  5>  convergence tight
|  6>  MaxIter 500
|  7> end
|  8>
|  9> %tddft
| 10>  nroots 1
| 11> end
| 12>
| 13> # 	21116
| 14> * xyz 0 1
| 15> 		C   -0.566624  -0.461700   0.041405
| 16> 		O   -0.560500  -1.554248  -0.009589
| 17> 		C    0.592462   0.382941  -0.010481
| 18> 		C    1.821188  -0.161233  -0.036982
| 19> 		H   -1.471930   0.117526  -0.214933
| 20> 		H    0.554488   1.502321   0.137193
| 21> 		H    2.069084  -1.193600   0.244886
| 22> 		H    2.682367   0.372083   0.065946
| 23> *
| 24>
| 25>                          ****END OF INPUT****

CARTESIAN COORDINATES (ANGSTROEM)
---------------------------------
  C     -0.566624   -0.461700    0.041405
  O     -0.560500   -1.554248   -0.009589
  C      0.592462    0.382941   -0.010481
  C      1.821188   -0.161233   -0.036982
  H     -1.471930    0.117526   -0.214933
  H      0.554488    1.502321    0.137193
  H      2.069084   -1.193600    0.244886
  H      2.682367    0.372083    0.065946

 Total Charge           Charge          ....    0
 Multiplicity           Mult            ....    1
 Number of Electrons    NEL             ....   30
 Basis Dimension        Dim             ....   24

ORBITAL ENERGIES
----------------

  NO   OCC          E(Eh)            E(eV)
   0   2.0000     -20.405936      -555.2738
   1   2.0000     -11.332142      -308.3633
   2   2.0000     -11.187497      -304.4273
   3   2.0000     -11.182924      -304.3028
   4   2.0000      -1.502468       -40.8842
   5   2.0000      -1.081877       -29.4394
   6   2.0000      -0.903303       -24.5801
   7   2.0000      -0.766738       -20.8640
   8   2.0000      -0.719542       -19.5797
   9   2.0000      -0.641543       -17.4573
  10   2.0000      -0.617946       -16.8152
  11   2.0000      -0.597704       -16.2644
  12   2.0000      -0.529619       -14.4117
  13   2.0000      -0.406835       -11.0706
  14   2.0000      -0.395301       -10.7567
  15   0.0000       0.135578         3.6893
  16   0.0000       0.324990         8.8434
  17   0.0000       0.570714        15.5299
  18   0.0000       0.635707        17.2985
  19   0.0000       0.679085        18.4789

MULLIKEN ATOMIC CHARGES
-----------------------
   0 C :    0.199407
   1 O :   -0.368753
   2 C :   -0.172302
   3 C :   -0.221911
   4 H :    0.122693
   5 H :    0.148256
   6 H :    0.155177
   7 H :    0.137434
Sum of atomic charges:    0.0000000

LOEWDIN ATOMIC CHARGES
----------------------
   0 C :    0.147692
   1 O :   -0.230012
   2 C :   -0.139143
   3 C :   -0.117841
   4 H :    0.055045
   5 H :    0.099385
   6 H :    0.102433
   7 H :    0.082441

  Mayer bond orders larger than 0.100000
B(  0-C ,  1-O ) :   1.9148 B(  0-C ,  2-C ) :   1.0113 B(  0-C ,  4-H ) :   0.9051
B(  2-C ,  3-C ) :   1.9427 B(  2-C ,  5-H ) :   0.9581 B(  3-C ,  6-H ) :   0.9614
B(  3-C ,  7-H ) :   0.9694

-----------------------------------------------------------------------------
         ABSORPTION SPECTRUM VIA TRANSITION ELECTRIC DIPOLE MOMENTS
-----------------------------------------------------------------------------
State   Energy    Wavelength  fosc         T2        TX        TY        TZ
        (cm-1)      (nm)                 (au**2)    (au)      (au)      (au)
-----------------------------------------------------------------------------
   1   37093.2    269.6   0.000199744   0.00177   0.04094   0.00305   0.00934

Dispersion correction           -0.026188504
FINAL SINGLE POINT ENERGY      -189.267308370112

DIPOLE MOMENT
-------------
                                X             Y             Z
Electronic contribution:     -2.10454      -1.70386      -0.10328
Nuclear contribution   :      2.44079       2.53664       0.21795
                        -----------------------------------------
Total Dipole Moment    :      0.33625       0.83278       0.11467
                        -----------------------------------------
Magnitude (a.u.)       :      0.90539
Magnitude (Debye)      :      2.30132

Rotational constants in cm-1:     0.811708     0.223094     0.175617
Rotational constants in MHz : 24334.380324  6688.202869  5264.873627

                             ****ORCA TERMINATED NORMALLY****
TOTAL RUN TIME: 0 days 0 hours 0 minutes 10 seconds 845 msec
