                         Program Version 5.0.3 -  RELEASE  -
|  1> ! HF-3c
|  2> !TightSCF
|  3> %scf
|  4>  ConvForced true
|  5>  convergence tight
|  6>  MaxIter 500
|  7> end
|  8>
|  9> %tddft
| 10>  nroots 1
| 11> end
| 12>
| 13> # 	11816
| 14> * xyz 0 1
| 15> 		C   -1.235675  -0.415376  -0.126280
| 16> 		O   -2.108781  -0.475936  -0.811001
| 17> 		C    0.071504   0.446151  -0.345070
| 18> 		C    1.176366   0.107273   0.320474
| 19> 		H   -1.229087  -0.948043   0.880459
| 20> 		H    0.091541   1.262206  -1.198911
| 21> 		H    1.089794  -0.636632   1.271322
| 22> 		H    2.175778   0.702196  -0.009697
| 23> *
| 24>
| 25>                          ****END OF INPUT****

CARTESIAN COORDINATES (ANGSTROEM)
---------------------------------
  C     -1.235675   -0.415376   -0.126280
  O     -2.108781   -0.475936   -0.811001
  C      0.071504    0.446151   -0.345070
  C      1.176366    0.107273    0.320474
  H     -1.229087   -0.948043    0.880459
  H      0.091541    1.262206   -1.198911
  H      1.089794   -0.636632    1.271322
  H      2.175778    0.702196   -0.009697

 Total Charge           Charge          ....    0
 Multiplicity           Mult            ....    1
 Number of Electrons    NEL             ....   30
 Basis Dimension        Dim             ....   24

ORBITAL ENERGIES
----------------

  NO   OCC          E(Eh)            E(eV)
   0   2.0000     -20.403958      -555.2199
   1   2.0000     -11.322958      -308.1133
   2   2.0000     -11.172871      -304.0293
   3   2.0000     -11.166939      -303.8678
   4   2.0000      -1.483352       -40.3641
   5   2.0000      -1.052117       -28.6296
   6   2.0000      -0.834806       -22.7162
   7   2.0000      -0.756736       -20.5918
   8   2.0000      -0.659094       -17.9349
   9   2.0000      -0.640374       -17.4255
  10   2.0000      -0.588404       -16.0113
  11   2.0000      -0.560071       -15.2403
  12   2.0000      -0.516780       -14.0623
  13   2.0000      -0.396297       -10.7838
  14   2.0000      -0.382120       -10.3980
  15   0.0000       0.171929         4.6784
  16   0.0000       0.310359         8.4453
  17   0.0000       0.496662        13.5149
  18   0.0000       0.497950        13.5499
  19   0.0000       0.519961        14.1489

MULLIKEN ATOMIC CHARGES
-----------------------
   0 C :    0.214712
   1 O :   -0.373913
   2 C :   -0.168947
   3 C :   -0.223227
   4 H :    0.121021
   5 H :    0.145259
   6 H :    0.141171
   7 H :    0.143924
Sum of atomic charges:   -0.0000000

LOEWDIN ATOMIC CHARGES
----------------------
   0 C :    0.158048
   1 O :   -0.236461
   2 C :   -0.140575
   3 C :   -0.145041
   4 H :    0.058567
   5 H :    0.100654
   6 H :    0.101361
   7 H :    0.103447

  Mayer bond orders larger than 0.100000
B(  0-C ,  1-O ) :   1.9500 B(  0-C ,  2-C ) :   0.9522 B(  0-C ,  4-H ) :   0.9020
B(  2-C ,  3-C ) :   1.9812 B(  2-C ,  5-H ) :   0.9531 B(  3-C ,  6-H ) :   0.9553
B(  3-C ,  7-H ) :   0.9569

-----------------------------------------------------------------------------
         ABSORPTION SPECTRUM VIA TRANSITION ELECTRIC DIPOLE MOMENTS
-----------------------------------------------------------------------------
State   Energy    Wavelength  fosc         T2        TX        TY        TZ
        (cm-1)      (nm)                 (au**2)    (au)      (au)      (au)
-----------------------------------------------------------------------------
   1   39922.1    250.5   0.000122243   0.00101  -0.01641  -0.02159   0.01651

Dispersion correction           -0.024742680
FINAL SINGLE POINT ENERGY      -189.260805916640

DIPOLE MOMENT
-------------
                                X             Y             Z
Electronic contribution:     -3.16044      -0.61332      -1.24089
Nuclear contribution   :      4.07850       0.72376       1.80269
                        -----------------------------------------
Total Dipole Moment    :      0.91806       0.11044       0.56180
                        -----------------------------------------
Magnitude (a.u.)       :      1.08197
Magnitude (Debye)      :      2.75015

Rotational constants in cm-1:     1.374468     0.154219     0.140119
Rotational constants in MHz : 41205.509175  4623.372343  4200.662808

                             ****ORCA TERMINATED NORMALLY****
TOTAL RUN TIME: 0 days 0 hours 0 minutes 10 seconds 723 msec
