                         Program Version 5.0.3 -  RELEASE  -
|  1> ! B3LYP cc-pVDZ
|  2> !TightSCF
|  3> %scf
|  4>  ConvForced true
|  5>  convergence tight
|  6>  MaxIter 500
|  7> end
|  8>
|  9> %tddft
| 10>  nroots 1
| 11> end
| 12>
| 13> # 	5135
| 14> * xyz 0 1
| 15> 		C   -1.220126  -0.279966  -0.070788
| 16> 		O   -2.059211  -0.381053  -0.850985
| 17> 		C    0.032565   0.477615  -0.363946
| 18> 		C    1.162296   0.031295   0.250990
| 19> 		H   -1.230743  -0.884022   0.937114
| 20> 		H   -0.204795   1.079594  -1.084859
| 21> 		H    1.219491  -0.693336   1.027874
| 22> 		H    2.342084   0.626321   0.055133
| 23> *
| 24>
| 25>                          ****END OF INPUT****

CARTESIAN COORDINATES (ANGSTROEM)
---------------------------------
  C     -1.220126   -0.279966   -0.070788
  O     -2.059211   -0.381053   -0.850985
  C      0.032565    0.477615   -0.363946
  C      1.162296    0.031295    0.250990
  H     -1.230743   -0.884022    0.937114
  H     -0.204795    1.079594   -1.084859
  H      1.219491   -0.693336    1.027874
  H      2.342084    0.626321    0.055133

 Total Charge           Charge          ....    0
 Multiplicity           Mult            ....    1
 Number of Electrons    NEL             ....   30
 Basis Dimension        Dim             ....   76

ORBITAL ENERGIES
----------------

  NO   OCC          E(Eh)            E(eV)
   0   2.0000     -19.142180      -520.8852
   1   2.0000     -10.274097      -279.5724
   2   2.0000     -10.238916      -278.6151
   3   2.0000     -10.202961      -277.6367
   4   2.0000      -1.086422       -29.5630
   5   2.0000      -0.797280       -21.6951
   6   2.0000      -0.639181       -17.3930
   7   2.0000      -0.574451       -15.6316
   8   2.0000      -0.484813       -13.1924
   9   2.0000      -0.462965       -12.5979
  10   2.0000      -0.441313       -12.0087
  11   2.0000      -0.415200       -11.2982
  12   2.0000      -0.373107       -10.1528
  13   2.0000      -0.292345        -7.9551
  14   2.0000      -0.252925        -6.8824
  15   0.0000      -0.057034        -1.5520
  16   0.0000       0.034653         0.9429
  17   0.0000       0.053387         1.4527
  18   0.0000       0.083755         2.2791
  19   0.0000       0.114896         3.1265

MULLIKEN ATOMIC CHARGES
-----------------------
   0 C :    0.108210
   1 O :   -0.136916
   2 C :    0.074686
   3 C :   -0.038199
   4 H :   -0.041545
   5 H :   -0.065798
   6 H :    0.039186
   7 H :    0.060376
Sum of atomic charges:   -0.0000000

LOEWDIN ATOMIC CHARGES
----------------------
   0 C :   -0.073564
   1 O :    0.059930
   2 C :   -0.031526
   3 C :   -0.006378
   4 H :   -0.017321
   5 H :   -0.008245
   6 H :    0.021110
   7 H :    0.055993

  Mayer bond orders larger than 0.100000
B(  0-C ,  1-O ) :   2.2382 B(  0-C ,  2-C ) :   1.0467 B(  0-C ,  4-H ) :   0.8933
B(  2-C ,  3-C ) :   1.9117 B(  2-C ,  5-H ) :   0.9556 B(  3-C ,  6-H ) :   0.9414
B(  3-C ,  7-H ) :   0.9414

-----------------------------------------------------------------------------
         ABSORPTION SPECTRUM VIA TRANSITION ELECTRIC DIPOLE MOMENTS
-----------------------------------------------------------------------------
State   Energy    Wavelength  fosc         T2        TX        TY        TZ
        (cm-1)      (nm)                 (au**2)    (au)      (au)      (au)
-----------------------------------------------------------------------------
   1   31045.1    322.1   0.000472497   0.00501   0.04949  -0.04231   0.02776

FINAL SINGLE POINT ENERGY      -191.614670702788

DIPOLE MOMENT
-------------
                                X             Y             Z
Electronic contribution:     -3.28520      -0.18650      -1.40217
Nuclear contribution   :      4.05445       0.33116       1.86473
                        -----------------------------------------
Total Dipole Moment    :      0.76925       0.14465       0.46256
                        -----------------------------------------
Magnitude (a.u.)       :      0.90919
Magnitude (Debye)      :      2.31098

Rotational constants in cm-1:     1.397596     0.161391     0.148129
Rotational constants in MHz : 41898.864078  4838.394672  4440.786417

                             ****ORCA TERMINATED NORMALLY****
TOTAL RUN TIME: 0 days 0 hours 3 minutes 6 seconds 625 msec
