                         Program Version 5.0.3 -  RELEASE  -
|  1> ! HF-3c
|  2> !TightSCF
|  3> %scf
|  4>  ConvForced true
|  5>  convergence tight
|  6>  MaxIter 500
|  7> end
|  8>
|  9> %tddft
| 10>  nroots 1
| 11> end
| 12>
| 13> # 	1028
| 14> * xyz 0 1
| 15> 		C   -1.171292  -0.232349   0.028263
| 16> 		O   -1.444491  -1.134170  -0.771086
| 17> 		C    0.048543   0.605228  -0.147423
| 18> 		C    1.230682   0.054269   0.197272
| 19> 		H   -1.784760  -0.100229   0.883412
| 20> 		H   -0.042570   1.534961  -0.541773
| 21> 		H    1.081416  -1.068122   0.438756
| 22> 		H    2.158354   0.373621  -0.038451
| 23> *
| 24>
| 25>                          ****END OF INPUT****

CARTESIAN COORDINATES (ANGSTROEM)
---------------------------------
  C     -1.171292   -0.232349    0.028263
  O     -1.444491   -1.134170   -0.771086
  C      0.048543    0.605228   -0.147423
  C      1.230682    0.054269    0.197272
  H     -1.784760   -0.100229    0.883412
  H     -0.042570    1.534961   -0.541773
  H      1.081416   -1.068122    0.438756
  H      2.158354    0.373621   -0.038451

 Total Charge           Charge          ....    0
 Multiplicity           Mult            ....    1
 Number of Electrons    NEL             ....   30
 Basis Dimension        Dim             ....   24

ORBITAL ENERGIES
----------------

  NO   OCC          E(Eh)            E(eV)
   0   2.0000     -20.373795      -554.3991
   1   2.0000     -11.298020      -307.4348
   2   2.0000     -11.195333      -304.6405
   3   2.0000     -11.183254      -304.3118
   4   2.0000      -1.394319       -37.9414
   5   2.0000      -1.082454       -29.4551
   6   2.0000      -0.890831       -24.2408
   7   2.0000      -0.782201       -21.2848
   8   2.0000      -0.703805       -19.1515
   9   2.0000      -0.644980       -17.5508
  10   2.0000      -0.599911       -16.3244
  11   2.0000      -0.539555       -14.6820
  12   2.0000      -0.498669       -13.5695
  13   2.0000      -0.424638       -11.5550
  14   2.0000      -0.402041       -10.9401
  15   0.0000       0.170075         4.6280
  16   0.0000       0.205972         5.6048
  17   0.0000       0.535054        14.5596
  18   0.0000       0.643035        17.4979
  19   0.0000       0.741214        20.1694

MULLIKEN ATOMIC CHARGES
-----------------------
   0 C :    0.154494
   1 O :   -0.332001
   2 C :   -0.170004
   3 C :   -0.236341
   4 H :    0.145346
   5 H :    0.148984
   6 H :    0.144804
   7 H :    0.144719
Sum of atomic charges:   -0.0000000

LOEWDIN ATOMIC CHARGES
----------------------
   0 C :    0.148158
   1 O :   -0.244864
   2 C :   -0.116392
   3 C :   -0.143685
   4 H :    0.077509
   5 H :    0.090357
   6 H :    0.100810
   7 H :    0.088107

  Mayer bond orders larger than 0.100000
B(  0-C ,  1-O ) :   1.9453 B(  0-C ,  2-C ) :   0.9927 B(  0-C ,  4-H ) :   0.9281
B(  2-C ,  3-C ) :   1.9885 B(  2-C ,  5-H ) :   0.9554 B(  3-C ,  6-H ) :   0.9618
B(  3-C ,  7-H ) :   0.9670

-----------------------------------------------------------------------------
         ABSORPTION SPECTRUM VIA TRANSITION ELECTRIC DIPOLE MOMENTS
-----------------------------------------------------------------------------
State   Energy    Wavelength  fosc         T2        TX        TY        TZ
        (cm-1)      (nm)                 (au**2)    (au)      (au)      (au)
-----------------------------------------------------------------------------
   1   32673.3    306.1   0.000008711   0.00009   0.00857   0.00338   0.00169

Dispersion correction           -0.025841232
FINAL SINGLE POINT ENERGY      -189.312872491322

DIPOLE MOMENT
-------------
                                X             Y             Z
Electronic contribution:     -2.34384      -0.93921      -0.85211
Nuclear contribution   :      2.67398       1.50217       1.40038
                        -----------------------------------------
Total Dipole Moment    :      0.33014       0.56296       0.54828
                        -----------------------------------------
Magnitude (a.u.)       :      0.85236
Magnitude (Debye)      :      2.16653

Rotational constants in cm-1:     0.847199     0.185104     0.167147
Rotational constants in MHz : 25398.390823  5549.287572  5010.941821

                             ****ORCA TERMINATED NORMALLY****
TOTAL RUN TIME: 0 days 0 hours 0 minutes 16 seconds 113 msec
