                         Program Version 5.0.3 -  RELEASE  -
|  1> ! B3LYP cc-pVDZ
|  2> !TightSCF
|  3> %scf
|  4>  ConvForced true
|  5>  convergence tight
|  6>  MaxIter 500
|  7> end
|  8>
|  9> %tddft
| 10>  nroots 1
| 11> end
| 12>
| 13> # 	27442
| 14> * xyz 0 1
| 15> 		C   -0.610369  -0.415076   0.039487
| 16> 		O   -0.529989  -1.608796  -0.016940
| 17> 		C    0.625553   0.388040  -0.048414
| 18> 		C    1.813177  -0.136354   0.007403
| 19> 		H   -1.644587   0.259060   0.058662
| 20> 		H    0.456586   1.409164   0.067935
| 21> 		H    1.840108  -1.241433   0.114767
| 22> 		H    2.886107   0.326178   0.048180
| 23> *
| 24>
| 25>                          ****END OF INPUT****

CARTESIAN COORDINATES (ANGSTROEM)
---------------------------------
  C     -0.610369   -0.415076    0.039487
  O     -0.529989   -1.608796   -0.016940
  C      0.625553    0.388040   -0.048414
  C      1.813177   -0.136354    0.007403
  H     -1.644587    0.259060    0.058662
  H      0.456586    1.409164    0.067935
  H      1.840108   -1.241433    0.114767
  H      2.886107    0.326178    0.048180

 Total Charge           Charge          ....    0
 Multiplicity           Mult            ....    1
 Number of Electrons    NEL             ....   30
 Basis Dimension        Dim             ....   76

ORBITAL ENERGIES
----------------

  NO   OCC          E(Eh)            E(eV)
   0   2.0000     -19.143977      -520.9341
   1   2.0000     -10.284929      -279.8671
   2   2.0000     -10.214283      -277.9448
   3   2.0000     -10.193620      -277.3825
   4   2.0000      -1.059375       -28.8271
   5   2.0000      -0.799585       -21.7578
   6   2.0000      -0.649580       -17.6760
   7   2.0000      -0.534019       -14.5314
   8   2.0000      -0.502931       -13.6854
   9   2.0000      -0.454610       -12.3706
  10   2.0000      -0.425832       -11.5875
  11   2.0000      -0.408391       -11.1129
  12   2.0000      -0.364254        -9.9119
  13   2.0000      -0.291908        -7.9432
  14   2.0000      -0.259828        -7.0703
  15   0.0000      -0.066733        -1.8159
  16   0.0000       0.055709         1.5159
  17   0.0000       0.065213         1.7745
  18   0.0000       0.083212         2.2643
  19   0.0000       0.123671         3.3652

MULLIKEN ATOMIC CHARGES
-----------------------
   0 C :    0.131144
   1 O :   -0.169831
   2 C :   -0.047843
   3 C :    0.033958
   4 H :   -0.003875
   5 H :   -0.036157
   6 H :    0.039039
   7 H :    0.053566
Sum of atomic charges:   -0.0000000

LOEWDIN ATOMIC CHARGES
----------------------
   0 C :   -0.044213
   1 O :    0.015368
   2 C :   -0.088673
   3 C :    0.016174
   4 H :    0.003737
   5 H :    0.014004
   6 H :    0.035077
   7 H :    0.048527

  Mayer bond orders larger than 0.100000
B(  0-C ,  1-O ) :   2.2001 B(  0-C ,  2-C ) :   1.0452 B(  0-C ,  4-H ) :   0.8849
B(  2-C ,  3-C ) :   1.9665 B(  2-C ,  5-H ) :   0.9483 B(  3-C ,  6-H ) :   0.9175
B(  3-C ,  7-H ) :   0.9481

-----------------------------------------------------------------------------
         ABSORPTION SPECTRUM VIA TRANSITION ELECTRIC DIPOLE MOMENTS
-----------------------------------------------------------------------------
State   Energy    Wavelength  fosc         T2        TX        TY        TZ
        (cm-1)      (nm)                 (au**2)    (au)      (au)      (au)
-----------------------------------------------------------------------------
   1   29360.2    340.6   0.000376161   0.00422  -0.05021  -0.00229  -0.04113

FINAL SINGLE POINT ENERGY      -191.655102207309

DIPOLE MOMENT
-------------
                                X             Y             Z
Electronic contribution:     -1.80254      -1.70074      -0.18122
Nuclear contribution   :      2.16603       2.49317       0.27122
                        -----------------------------------------
Total Dipole Moment    :      0.36349       0.79242       0.09000
                        -----------------------------------------
Magnitude (a.u.)       :      0.87645
Magnitude (Debye)      :      2.22776

Rotational constants in cm-1:     0.750664     0.219771     0.170261
Rotational constants in MHz : 22504.326172  6588.580347  5104.288666

                             ****ORCA TERMINATED NORMALLY****
TOTAL RUN TIME: 0 days 0 hours 3 minutes 16 seconds 245 msec
