                         Program Version 5.0.3 -  RELEASE  -
|  1> ! B3LYP cc-pVDZ
|  2> !TightSCF
|  3> %scf
|  4>  ConvForced true
|  5>  convergence tight
|  6>  MaxIter 500
|  7> end
|  8>
|  9> %tddft
| 10>  nroots 1
| 11> end
| 12>
| 13> # 	32700
| 14> * xyz 0 1
| 15> 		C   -0.635123  -0.449895  -0.005415
| 16> 		O   -0.579110  -1.639961   0.008397
| 17> 		C    0.648998   0.417273   0.009422
| 18> 		C    1.852823  -0.121110  -0.009952
| 19> 		H   -1.628609   0.250952  -0.095070
| 20> 		H    0.526821   1.439204   0.042751
| 21> 		H    2.283050  -1.150496  -0.048793
| 22> 		H    2.735625   0.624647   0.045184
| 23> *
| 24>
| 25>                          ****END OF INPUT****

CARTESIAN COORDINATES (ANGSTROEM)
---------------------------------
  C     -0.635123   -0.449895   -0.005415
  O     -0.579110   -1.639961    0.008397
  C      0.648998    0.417273    0.009422
  C      1.852823   -0.121110   -0.009952
  H     -1.628609    0.250952   -0.095070
  H      0.526821    1.439204    0.042751
  H      2.283050   -1.150496   -0.048793
  H      2.735625    0.624647    0.045184

 Total Charge           Charge          ....    0
 Multiplicity           Mult            ....    1
 Number of Electrons    NEL             ....   30
 Basis Dimension        Dim             ....   76

ORBITAL ENERGIES
----------------

  NO   OCC          E(Eh)            E(eV)
   0   2.0000     -19.147933      -521.0417
   1   2.0000     -10.288451      -279.9630
   2   2.0000     -10.216226      -277.9977
   3   2.0000     -10.200376      -277.5663
   4   2.0000      -1.062268       -28.9058
   5   2.0000      -0.789879       -21.4937
   6   2.0000      -0.640681       -17.4338
   7   2.0000      -0.543077       -14.7779
   8   2.0000      -0.495703       -13.4888
   9   2.0000      -0.455402       -12.3921
  10   2.0000      -0.426573       -11.6076
  11   2.0000      -0.405222       -11.0266
  12   2.0000      -0.370967       -10.0945
  13   2.0000      -0.290766        -7.9122
  14   2.0000      -0.256489        -6.9794
  15   0.0000      -0.062422        -1.6986
  16   0.0000       0.056990         1.5508
  17   0.0000       0.060276         1.6402
  18   0.0000       0.080749         2.1973
  19   0.0000       0.109538         2.9807

MULLIKEN ATOMIC CHARGES
-----------------------
   0 C :    0.146134
   1 O :   -0.157128
   2 C :   -0.052503
   3 C :    0.020274
   4 H :   -0.009722
   5 H :   -0.027692
   6 H :    0.046225
   7 H :    0.034412
Sum of atomic charges:   -0.0000000

LOEWDIN ATOMIC CHARGES
----------------------
   0 C :   -0.040052
   1 O :    0.022615
   2 C :   -0.080429
   3 C :    0.007750
   4 H :   -0.004526
   5 H :    0.013216
   6 H :    0.039179
   7 H :    0.042248

  Mayer bond orders larger than 0.100000
B(  0-C ,  1-O ) :   2.2422 B(  0-C ,  2-C ) :   1.0025 B(  0-C ,  4-H ) :   0.8806
B(  2-C ,  3-C ) :   1.9839 B(  2-C ,  5-H ) :   0.9349 B(  3-C ,  6-H ) :   0.9543
B(  3-C ,  7-H ) :   0.9385

-----------------------------------------------------------------------------
         ABSORPTION SPECTRUM VIA TRANSITION ELECTRIC DIPOLE MOMENTS
-----------------------------------------------------------------------------
State   Energy    Wavelength  fosc         T2        TX        TY        TZ
        (cm-1)      (nm)                 (au**2)    (au)      (au)      (au)
-----------------------------------------------------------------------------
   1   29740.1    336.2   0.000093396   0.00103  -0.01279   0.00404  -0.02922

FINAL SINGLE POINT ENERGY      -191.655444249828

DIPOLE MOMENT
-------------
                                X             Y             Z
Electronic contribution:     -2.13830      -2.08029       0.04735
Nuclear contribution   :      2.51678       2.87646      -0.05279
                        -----------------------------------------
Total Dipole Moment    :      0.37848       0.79617      -0.00544
                        -----------------------------------------
Magnitude (a.u.)       :      0.88157
Magnitude (Debye)      :      2.24078

Rotational constants in cm-1:     0.747697     0.202574     0.159448
Rotational constants in MHz : 22415.390960  6073.022828  4780.135630

                             ****ORCA TERMINATED NORMALLY****
TOTAL RUN TIME: 0 days 0 hours 3 minutes 10 seconds 551 msec
