                         Program Version 5.0.3 -  RELEASE  -
|  1> ! B3LYP cc-pVDZ
|  2> !TightSCF
|  3> %scf
|  4>  ConvForced true
|  5>  convergence tight
|  6>  MaxIter 500
|  7> end
|  8>
|  9> %tddft
| 10>  nroots 1
| 11> end
| 12>
| 13> # 	20218
| 14> * xyz 0 1
| 15> 		C   -0.625941  -0.425830   0.004518
| 16> 		O   -0.556452  -1.612639  -0.028811
| 17> 		C    0.666822   0.359555   0.007904
| 18> 		C    1.816137  -0.108467   0.031504
| 19> 		H   -1.651968   0.026457   0.314995
| 20> 		H    0.585681   1.668661  -0.321069
| 21> 		H    1.955297  -1.197319   0.136528
| 22> 		H    2.794098   0.439649  -0.229682
| 23> *
| 24>
| 25>                          ****END OF INPUT****

CARTESIAN COORDINATES (ANGSTROEM)
---------------------------------
  C     -0.625941   -0.425830    0.004518
  O     -0.556452   -1.612639   -0.028811
  C      0.666822    0.359555    0.007904
  C      1.816137   -0.108467    0.031504
  H     -1.651968    0.026457    0.314995
  H      0.585681    1.668661   -0.321069
  H      1.955297   -1.197319    0.136528
  H      2.794098    0.439649   -0.229682

 Total Charge           Charge          ....    0
 Multiplicity           Mult            ....    1
 Number of Electrons    NEL             ....   30
 Basis Dimension        Dim             ....   76

ORBITAL ENERGIES
----------------

  NO   OCC          E(Eh)            E(eV)
   0   2.0000     -19.146036      -520.9901
   1   2.0000     -10.287184      -279.9285
   2   2.0000     -10.214072      -277.9390
   3   2.0000     -10.202700      -277.6296
   4   2.0000      -1.067993       -29.0616
   5   2.0000      -0.803546       -21.8656
   6   2.0000      -0.640703       -17.4344
   7   2.0000      -0.532959       -14.5026
   8   2.0000      -0.497376       -13.5343
   9   2.0000      -0.452155       -12.3037
  10   2.0000      -0.437838       -11.9142
  11   2.0000      -0.405964       -11.0468
  12   2.0000      -0.339950        -9.2505
  13   2.0000      -0.303159        -8.2494
  14   2.0000      -0.259893        -7.0721
  15   0.0000      -0.061640        -1.6773
  16   0.0000       0.029364         0.7990
  17   0.0000       0.065266         1.7760
  18   0.0000       0.091095         2.4788
  19   0.0000       0.095472         2.5979

MULLIKEN ATOMIC CHARGES
-----------------------
   0 C :    0.163345
   1 O :   -0.160255
   2 C :   -0.172874
   3 C :    0.075386
   4 H :    0.004920
   5 H :    0.011229
   6 H :    0.029989
   7 H :    0.048259
Sum of atomic charges:    0.0000000

LOEWDIN ATOMIC CHARGES
----------------------
   0 C :   -0.040390
   1 O :    0.025459
   2 C :   -0.101056
   3 C :   -0.014019
   4 H :    0.006982
   5 H :    0.038000
   6 H :    0.034616
   7 H :    0.050407

  Mayer bond orders larger than 0.100000
B(  0-C ,  1-O ) :   2.2154 B(  0-C ,  2-C ) :   0.9809 B(  0-C ,  4-H ) :   0.9137
B(  2-C ,  3-C ) :   2.0421 B(  2-C ,  5-H ) :   0.8999 B(  3-C ,  6-H ) :   0.9139
B(  3-C ,  7-H ) :   0.9298

-----------------------------------------------------------------------------
         ABSORPTION SPECTRUM VIA TRANSITION ELECTRIC DIPOLE MOMENTS
-----------------------------------------------------------------------------
State   Energy    Wavelength  fosc         T2        TX        TY        TZ
        (cm-1)      (nm)                 (au**2)    (au)      (au)      (au)
-----------------------------------------------------------------------------
   1   29908.3    334.4   0.001546322   0.01702  -0.11615   0.00380   0.05930

FINAL SINGLE POINT ENERGY      -191.621470043653

DIPOLE MOMENT
-------------
                                X             Y             Z
Electronic contribution:     -2.02637      -2.00418       0.06686
Nuclear contribution   :      2.29708       2.66698      -0.09128
                        -----------------------------------------
Total Dipole Moment    :      0.27071       0.66280      -0.02441
                        -----------------------------------------
Magnitude (a.u.)       :      0.71637
Magnitude (Debye)      :      1.82087

Rotational constants in cm-1:     0.786532     0.209801     0.166611
Rotational constants in MHz : 23579.649451  6289.682682  4994.860462

                             ****ORCA TERMINATED NORMALLY****
TOTAL RUN TIME: 0 days 0 hours 3 minutes 22 seconds 717 msec
