                         Program Version 5.0.3 -  RELEASE  -
|  1> ! B3LYP cc-pVDZ
|  2> !TightSCF
|  3> %scf
|  4>  ConvForced true
|  5>  convergence tight
|  6>  MaxIter 500
|  7> end
|  8>
|  9> %tddft
| 10>  nroots 1
| 11> end
| 12>
| 13> # 	9196
| 14> * xyz 0 1
| 15> 		C   -1.194747  -0.328263   0.046607
| 16> 		O   -2.178745  -0.422476   0.625092
| 17> 		C   -0.002840   0.386146   0.396060
| 18> 		C    1.152755   0.171141  -0.292544
| 19> 		H   -1.165683  -0.957471  -0.726978
| 20> 		H   -0.123358   1.179710   1.209003
| 21> 		H    1.204038  -0.837876  -1.170874
| 22> 		H    2.340258   0.787914  -0.143214
| 23> *
| 24>
| 25>                          ****END OF INPUT****

CARTESIAN COORDINATES (ANGSTROEM)
---------------------------------
  C     -1.194747   -0.328263    0.046607
  O     -2.178745   -0.422476    0.625092
  C     -0.002840    0.386146    0.396060
  C      1.152755    0.171141   -0.292544
  H     -1.165683   -0.957471   -0.726978
  H     -0.123358    1.179710    1.209003
  H      1.204038   -0.837876   -1.170874
  H      2.340258    0.787914   -0.143214

 Total Charge           Charge          ....    0
 Multiplicity           Mult            ....    1
 Number of Electrons    NEL             ....   30
 Basis Dimension        Dim             ....   76

ORBITAL ENERGIES
----------------

  NO   OCC          E(Eh)            E(eV)
   0   2.0000     -19.128141      -520.5032
   1   2.0000     -10.262660      -279.2612
   2   2.0000     -10.252958      -278.9972
   3   2.0000     -10.215322      -277.9730
   4   2.0000      -1.081336       -29.4247
   5   2.0000      -0.797833       -21.7101
   6   2.0000      -0.630671       -17.1614
   7   2.0000      -0.575267       -15.6538
   8   2.0000      -0.473173       -12.8757
   9   2.0000      -0.458596       -12.4790
  10   2.0000      -0.420943       -11.4545
  11   2.0000      -0.414216       -11.2714
  12   2.0000      -0.359833        -9.7916
  13   2.0000      -0.293656        -7.9908
  14   2.0000      -0.247922        -6.7463
  15   0.0000      -0.062420        -1.6985
  16   0.0000       0.016479         0.4484
  17   0.0000       0.044837         1.2201
  18   0.0000       0.066508         1.8098
  19   0.0000       0.115693         3.1482

MULLIKEN ATOMIC CHARGES
-----------------------
   0 C :    0.228661
   1 O :   -0.151890
   2 C :   -0.042753
   3 C :   -0.125256
   4 H :   -0.094999
   5 H :    0.023603
   6 H :    0.074062
   7 H :    0.088572
Sum of atomic charges:    0.0000000

LOEWDIN ATOMIC CHARGES
----------------------
   0 C :   -0.092943
   1 O :    0.064586
   2 C :   -0.078809
   3 C :   -0.038275
   4 H :   -0.029956
   5 H :    0.045495
   6 H :    0.060266
   7 H :    0.069636

  Mayer bond orders larger than 0.100000
B(  0-C ,  1-O ) :   2.2324 B(  0-C ,  2-C ) :   1.0822 B(  0-C ,  4-H ) :   0.9408
B(  2-C ,  3-C ) :   1.8642 B(  2-C ,  5-H ) :   0.9336 B(  3-C ,  6-H ) :   0.9165
B(  3-C ,  7-H ) :   0.9268

-----------------------------------------------------------------------------
         ABSORPTION SPECTRUM VIA TRANSITION ELECTRIC DIPOLE MOMENTS
-----------------------------------------------------------------------------
State   Energy    Wavelength  fosc         T2        TX        TY        TZ
        (cm-1)      (nm)                 (au**2)    (au)      (au)      (au)
-----------------------------------------------------------------------------
   1   28546.2    350.3   0.000079342   0.00092   0.00644   0.02779  -0.01005

FINAL SINGLE POINT ENERGY      -191.600544787289

DIPOLE MOMENT
-------------
                                X             Y             Z
Electronic contribution:     -3.33025      -0.23719       1.14894
Nuclear contribution   :      4.30946       0.41307      -1.50824
                        -----------------------------------------
Total Dipole Moment    :      0.97921       0.17588      -0.35930
                        -----------------------------------------
Magnitude (a.u.)       :      1.05777
Magnitude (Debye)      :      2.68864

Rotational constants in cm-1:     1.544601     0.157087     0.143153
Rotational constants in MHz : 46305.970476  4709.360104  4291.614783

                             ****ORCA TERMINATED NORMALLY****
TOTAL RUN TIME: 0 days 0 hours 3 minutes 28 seconds 81 msec
