                         Program Version 5.0.3 -  RELEASE  -
|  1> ! B3LYP cc-pVDZ
|  2> !TightSCF
|  3> %scf
|  4>  ConvForced true
|  5>  convergence tight
|  6>  MaxIter 500
|  7> end
|  8>
|  9> %tddft
| 10>  nroots 1
| 11> end
| 12>
| 13> # 	28767
| 14> * xyz 0 1
| 15> 		C   -0.561716  -0.363363  -0.013019
| 16> 		O   -0.538967  -1.643483  -0.001972
| 17> 		C    0.595790   0.432309  -0.019577
| 18> 		C    1.819914  -0.162629   0.045972
| 19> 		H   -1.566923  -0.056951   0.138314
| 20> 		H    0.358754   1.580603   0.031512
| 21> 		H    1.807777  -1.338103  -0.081757
| 22> 		H    2.806357   0.262718  -0.227903
| 23> *
| 24>
| 25>                          ****END OF INPUT****

CARTESIAN COORDINATES (ANGSTROEM)
---------------------------------
  C     -0.561716   -0.363363   -0.013019
  O     -0.538967   -1.643483   -0.001972
  C      0.595790    0.432309   -0.019577
  C      1.819914   -0.162629    0.045972
  H     -1.566923   -0.056951    0.138314
  H      0.358754    1.580603    0.031512
  H      1.807777   -1.338103   -0.081757
  H      2.806357    0.262718   -0.227903

 Total Charge           Charge          ....    0
 Multiplicity           Mult            ....    1
 Number of Electrons    NEL             ....   30
 Basis Dimension        Dim             ....   76

ORBITAL ENERGIES
----------------

  NO   OCC          E(Eh)            E(eV)
   0   2.0000     -19.126553      -520.4600
   1   2.0000     -10.264599      -279.3139
   2   2.0000     -10.230301      -278.3806
   3   2.0000     -10.220515      -278.1144
   4   2.0000      -1.006302       -27.3829
   5   2.0000      -0.797415       -21.6988
   6   2.0000      -0.665101       -18.0983
   7   2.0000      -0.544638       -14.8203
   8   2.0000      -0.499358       -13.5882
   9   2.0000      -0.450895       -12.2695
  10   2.0000      -0.409216       -11.1353
  11   2.0000      -0.381834       -10.3902
  12   2.0000      -0.362112        -9.8536
  13   2.0000      -0.281928        -7.6717
  14   2.0000      -0.248208        -6.7541
  15   0.0000      -0.088990        -2.4215
  16   0.0000       0.053591         1.4583
  17   0.0000       0.059394         1.6162
  18   0.0000       0.085348         2.3224
  19   0.0000       0.121060         3.2942

MULLIKEN ATOMIC CHARGES
-----------------------
   0 C :    0.206481
   1 O :   -0.258679
   2 C :   -0.104566
   3 C :    0.025993
   4 H :   -0.015000
   5 H :    0.019808
   6 H :    0.073754
   7 H :    0.052209
Sum of atomic charges:   -0.0000000

LOEWDIN ATOMIC CHARGES
----------------------
   0 C :   -0.008241
   1 O :   -0.073635
   2 C :   -0.087645
   3 C :    0.028239
   4 H :    0.003299
   5 H :    0.045958
   6 H :    0.056200
   7 H :    0.035824

  Mayer bond orders larger than 0.100000
B(  0-C ,  1-O ) :   2.0642 B(  0-C ,  2-C ) :   1.1173 B(  0-C ,  4-H ) :   0.9581
B(  1-O ,  3-C ) :   0.1246 B(  2-C ,  3-C ) :   1.8942 B(  2-C ,  5-H ) :   0.9420
B(  3-C ,  6-H ) :   0.9189 B(  3-C ,  7-H ) :   0.9489

-----------------------------------------------------------------------------
         ABSORPTION SPECTRUM VIA TRANSITION ELECTRIC DIPOLE MOMENTS
-----------------------------------------------------------------------------
State   Energy    Wavelength  fosc         T2        TX        TY        TZ
        (cm-1)      (nm)                 (au**2)    (au)      (au)      (au)
-----------------------------------------------------------------------------
   1   22002.0    454.5   0.000127173   0.00190   0.01834   0.00038   0.03958

FINAL SINGLE POINT ENERGY      -191.677525836877

DIPOLE MOMENT
-------------
                                X             Y             Z
Electronic contribution:     -1.63206      -1.24432       0.08043
Nuclear contribution   :      2.03975       2.20846      -0.13042
                        -----------------------------------------
Total Dipole Moment    :      0.40769       0.96414      -0.05000
                        -----------------------------------------
Magnitude (a.u.)       :      1.04799
Magnitude (Debye)      :      2.66377

Rotational constants in cm-1:     0.696966     0.221988     0.168739
Rotational constants in MHz : 20894.528125  6655.044167  5058.671455

                             ****ORCA TERMINATED NORMALLY****
TOTAL RUN TIME: 0 days 0 hours 3 minutes 7 seconds 37 msec
