                         Program Version 5.0.3 -  RELEASE  -
|  1> ! B3LYP cc-pVDZ
|  2> !TightSCF
|  3> %scf
|  4>  ConvForced true
|  5>  convergence tight
|  6>  MaxIter 500
|  7> end
|  8>
|  9> %tddft
| 10>  nroots 1
| 11> end
| 12>
| 13> # 	6774
| 14> * xyz 0 1
| 15> 		C   -1.188068  -0.373525   0.110219
| 16> 		O   -1.845312  -0.859947   0.861724
| 17> 		C    0.081651   0.420395   0.349027
| 18> 		C    1.222472   0.069821  -0.260924
| 19> 		H   -1.419564  -0.331675  -1.056378
| 20> 		H   -0.148972   1.192004   0.910608
| 21> 		H    1.101801  -0.821530  -0.876984
| 22> 		H    2.194783   0.743296  -0.141613
| 23> *
| 24>
| 25>                          ****END OF INPUT****

CARTESIAN COORDINATES (ANGSTROEM)
---------------------------------
  C     -1.188068   -0.373525    0.110219
  O     -1.845312   -0.859947    0.861724
  C      0.081651    0.420395    0.349027
  C      1.222472    0.069821   -0.260924
  H     -1.419564   -0.331675   -1.056378
  H     -0.148972    1.192004    0.910608
  H      1.101801   -0.821530   -0.876984
  H      2.194783    0.743296   -0.141613

 Total Charge           Charge          ....    0
 Multiplicity           Mult            ....    1
 Number of Electrons    NEL             ....   30
 Basis Dimension        Dim             ....   76

ORBITAL ENERGIES
----------------

  NO   OCC          E(Eh)            E(eV)
   0   2.0000     -19.151611      -521.1418
   1   2.0000     -10.277846      -279.6744
   2   2.0000     -10.215383      -277.9747
   3   2.0000     -10.192471      -277.3512
   4   2.0000      -1.115777       -30.3618
   5   2.0000      -0.795936       -21.6585
   6   2.0000      -0.637457       -17.3461
   7   2.0000      -0.564056       -15.3487
   8   2.0000      -0.488845       -13.3021
   9   2.0000      -0.472694       -12.8627
  10   2.0000      -0.450492       -12.2585
  11   2.0000      -0.415043       -11.2939
  12   2.0000      -0.398444       -10.8422
  13   2.0000      -0.287112        -7.8127
  14   2.0000      -0.249150        -6.7797
  15   0.0000      -0.036758        -1.0002
  16   0.0000       0.021846         0.5945
  17   0.0000       0.075520         2.0550
  18   0.0000       0.098293         2.6747
  19   0.0000       0.114197         3.1075

MULLIKEN ATOMIC CHARGES
-----------------------
   0 C :    0.107243
   1 O :   -0.082560
   2 C :   -0.020156
   3 C :    0.010012
   4 H :   -0.046706
   5 H :   -0.045455
   6 H :    0.019502
   7 H :    0.058121
Sum of atomic charges:    0.0000000

LOEWDIN ATOMIC CHARGES
----------------------
   0 C :   -0.092391
   1 O :    0.114662
   2 C :   -0.041512
   3 C :   -0.032541
   4 H :   -0.025725
   5 H :   -0.004657
   6 H :    0.028852
   7 H :    0.053311

  Mayer bond orders larger than 0.100000
B(  0-C ,  1-O ) :   2.3421 B(  0-C ,  2-C ) :   0.9739 B(  0-C ,  4-H ) :   0.8717
B(  2-C ,  3-C ) :   2.0119 B(  2-C ,  5-H ) :   0.9581 B(  3-C ,  6-H ) :   0.9275
B(  3-C ,  7-H ) :   0.9394

-----------------------------------------------------------------------------
         ABSORPTION SPECTRUM VIA TRANSITION ELECTRIC DIPOLE MOMENTS
-----------------------------------------------------------------------------
State   Energy    Wavelength  fosc         T2        TX        TY        TZ
        (cm-1)      (nm)                 (au**2)    (au)      (au)      (au)
-----------------------------------------------------------------------------
   1   34519.8    289.7   0.000954397   0.00910  -0.06601  -0.05145  -0.04581

FINAL SINGLE POINT ENERGY      -191.602105471127

DIPOLE MOMENT
-------------
                                X             Y             Z
Electronic contribution:     -2.82455      -1.08488       1.75195
Nuclear contribution   :      3.36715       1.49842      -2.08731
                        -----------------------------------------
Total Dipole Moment    :      0.54260       0.41354      -0.33535
                        -----------------------------------------
Magnitude (a.u.)       :      0.76019
Magnitude (Debye)      :      1.93224

Rotational constants in cm-1:     1.306473     0.159767     0.152967
Rotational constants in MHz : 39167.063853  4789.697971  4585.846646

                             ****ORCA TERMINATED NORMALLY****
TOTAL RUN TIME: 0 days 0 hours 3 minutes 17 seconds 311 msec
