                         Program Version 5.0.3 -  RELEASE  -
|  1> ! B3LYP cc-pVDZ
|  2> !TightSCF
|  3> %scf
|  4>  ConvForced true
|  5>  convergence tight
|  6>  MaxIter 500
|  7> end
|  8>
|  9> %tddft
| 10>  nroots 1
| 11> end
| 12>
| 13> # 	20788
| 14> * xyz 0 1
| 15> 		C   -0.606345  -0.415152  -0.016074
| 16> 		O   -0.530495  -1.607723   0.013585
| 17> 		C    0.612446   0.393345   0.007976
| 18> 		C    1.817396  -0.146480  -0.014136
| 19> 		H   -1.514156   0.128886  -0.139180
| 20> 		H    0.553544   1.577542   0.202678
| 21> 		H    1.787951  -1.318486   0.057243
| 22> 		H    2.820344   0.387802  -0.064728
| 23> *
| 24>
| 25>                          ****END OF INPUT****

CARTESIAN COORDINATES (ANGSTROEM)
---------------------------------
  C     -0.606345   -0.415152   -0.016074
  O     -0.530495   -1.607723    0.013585
  C      0.612446    0.393345    0.007976
  C      1.817396   -0.146480   -0.014136
  H     -1.514156    0.128886   -0.139180
  H      0.553544    1.577542    0.202678
  H      1.787951   -1.318486    0.057243
  H      2.820344    0.387802   -0.064728

 Total Charge           Charge          ....    0
 Multiplicity           Mult            ....    1
 Number of Electrons    NEL             ....   30
 Basis Dimension        Dim             ....   76

ORBITAL ENERGIES
----------------

  NO   OCC          E(Eh)            E(eV)
   0   2.0000     -19.138842      -520.7944
   1   2.0000     -10.271958      -279.5142
   2   2.0000     -10.216333      -278.0005
   3   2.0000     -10.204686      -277.6836
   4   2.0000      -1.058431       -28.8014
   5   2.0000      -0.790434       -21.5088
   6   2.0000      -0.656255       -17.8576
   7   2.0000      -0.536980       -14.6120
   8   2.0000      -0.499328       -13.5874
   9   2.0000      -0.446613       -12.1530
  10   2.0000      -0.428402       -11.6574
  11   2.0000      -0.406811       -11.0699
  12   2.0000      -0.355601        -9.6764
  13   2.0000      -0.285030        -7.7561
  14   2.0000      -0.260389        -7.0855
  15   0.0000      -0.067059        -1.8248
  16   0.0000       0.052470         1.4278
  17   0.0000       0.072516         1.9733
  18   0.0000       0.087045         2.3686
  19   0.0000       0.117552         3.1988

MULLIKEN ATOMIC CHARGES
-----------------------
   0 C :    0.226989
   1 O :   -0.183178
   2 C :   -0.164015
   3 C :    0.026619
   4 H :   -0.023422
   5 H :    0.010778
   6 H :    0.057531
   7 H :    0.048698
Sum of atomic charges:   -0.0000000

LOEWDIN ATOMIC CHARGES
----------------------
   0 C :   -0.039392
   1 O :    0.015637
   2 C :   -0.103479
   3 C :    0.005239
   4 H :   -0.007086
   5 H :    0.039703
   6 H :    0.047960
   7 H :    0.041418

  Mayer bond orders larger than 0.100000
B(  0-C ,  1-O ) :   2.1933 B(  0-C ,  2-C ) :   1.0487 B(  0-C ,  4-H ) :   0.9262
B(  2-C ,  3-C ) :   1.9695 B(  2-C ,  5-H ) :   0.9325 B(  3-C ,  6-H ) :   0.9140
B(  3-C ,  7-H ) :   0.9409

-----------------------------------------------------------------------------
         ABSORPTION SPECTRUM VIA TRANSITION ELECTRIC DIPOLE MOMENTS
-----------------------------------------------------------------------------
State   Energy    Wavelength  fosc         T2        TX        TY        TZ
        (cm-1)      (nm)                 (au**2)    (au)      (au)      (au)
-----------------------------------------------------------------------------
   1   29252.0    341.9   0.000242069   0.00272  -0.03731  -0.01158  -0.03461

FINAL SINGLE POINT ENERGY      -191.658022656077

DIPOLE MOMENT
-------------
                                X             Y             Z
Electronic contribution:     -1.98350      -1.69224      -0.03769
Nuclear contribution   :      2.26578       2.51580       0.05230
                        -----------------------------------------
Total Dipole Moment    :      0.28228       0.82357       0.01461
                        -----------------------------------------
Magnitude (a.u.)       :      0.87072
Magnitude (Debye)      :      2.21320

Rotational constants in cm-1:     0.750679     0.220514     0.170713
Rotational constants in MHz : 22504.781315  6610.844399  5117.859079

                             ****ORCA TERMINATED NORMALLY****
TOTAL RUN TIME: 0 days 0 hours 2 minutes 47 seconds 371 msec
