                         Program Version 5.0.3 -  RELEASE  -
|  1> ! HF-3c
|  2> !TightSCF
|  3> %scf
|  4>  ConvForced true
|  5>  convergence tight
|  6>  MaxIter 500
|  7> end
|  8>
|  9> %tddft
| 10>  nroots 1
| 11> end
| 12>
| 13> # 	2510
| 14> * xyz 0 1
| 15> 		C   -1.172392  -0.359748  -0.062745
| 16> 		O   -1.632403  -1.148428   0.836539
| 17> 		C    0.023811   0.498772   0.188720
| 18> 		C    1.214283   0.115369  -0.169631
| 19> 		H   -1.750273  -0.199186  -1.020046
| 20> 		H   -0.187773   1.432634   0.763776
| 21> 		H    1.294108  -1.000103  -0.577413
| 22> 		H    2.203176   0.620138   0.020210
| 23> *
| 24>
| 25>                          ****END OF INPUT****

CARTESIAN COORDINATES (ANGSTROEM)
---------------------------------
  C     -1.172392   -0.359748   -0.062745
  O     -1.632403   -1.148428    0.836539
  C      0.023811    0.498772    0.188720
  C      1.214283    0.115369   -0.169631
  H     -1.750273   -0.199186   -1.020046
  H     -0.187773    1.432634    0.763776
  H      1.294108   -1.000103   -0.577413
  H      2.203176    0.620138    0.020210

 Total Charge           Charge          ....    0
 Multiplicity           Mult            ....    1
 Number of Electrons    NEL             ....   30
 Basis Dimension        Dim             ....   24

ORBITAL ENERGIES
----------------

  NO   OCC          E(Eh)            E(eV)
   0   2.0000     -20.354385      -553.8710
   1   2.0000     -11.282137      -307.0026
   2   2.0000     -11.191474      -304.5355
   3   2.0000     -11.180285      -304.2310
   4   2.0000      -1.353880       -36.8409
   5   2.0000      -1.079555       -29.3762
   6   2.0000      -0.872799       -23.7501
   7   2.0000      -0.747187       -20.3320
   8   2.0000      -0.665824       -18.1180
   9   2.0000      -0.628478       -17.1018
  10   2.0000      -0.584170       -15.8961
  11   2.0000      -0.516204       -14.0466
  12   2.0000      -0.468924       -12.7601
  13   2.0000      -0.413549       -11.2532
  14   2.0000      -0.405968       -11.0469
  15   0.0000       0.170635         4.6432
  16   0.0000       0.224128         6.0988
  17   0.0000       0.501019        13.6334
  18   0.0000       0.580848        15.8057
  19   0.0000       0.620290        16.8789

MULLIKEN ATOMIC CHARGES
-----------------------
   0 C :    0.151200
   1 O :   -0.332518
   2 C :   -0.176837
   3 C :   -0.225018
   4 H :    0.145065
   5 H :    0.154600
   6 H :    0.138029
   7 H :    0.145480
Sum of atomic charges:   -0.0000000

LOEWDIN ATOMIC CHARGES
----------------------
   0 C :    0.148070
   1 O :   -0.257754
   2 C :   -0.129093
   3 C :   -0.144360
   4 H :    0.085061
   5 H :    0.104008
   6 H :    0.096426
   7 H :    0.097642

  Mayer bond orders larger than 0.100000
B(  0-C ,  1-O ) :   1.9415 B(  0-C ,  2-C ) :   0.9945 B(  0-C ,  4-H ) :   0.9242
B(  2-C ,  3-C ) :   2.0030 B(  2-C ,  5-H ) :   0.9421 B(  3-C ,  6-H ) :   0.9585
B(  3-C ,  7-H ) :   0.9602

-----------------------------------------------------------------------------
         ABSORPTION SPECTRUM VIA TRANSITION ELECTRIC DIPOLE MOMENTS
-----------------------------------------------------------------------------
State   Energy    Wavelength  fosc         T2        TX        TY        TZ
        (cm-1)      (nm)                 (au**2)    (au)      (au)      (au)
-----------------------------------------------------------------------------
   1   30489.7    328.0   0.000126071   0.00136  -0.03402  -0.01005  -0.01014

Dispersion correction           -0.024872173
FINAL SINGLE POINT ENERGY      -189.327919962399

DIPOLE MOMENT
-------------
                                X             Y             Z
Electronic contribution:     -2.52478      -1.14881       0.92112
Nuclear contribution   :      3.03510       1.75530      -1.55986
                        -----------------------------------------
Total Dipole Moment    :      0.51032       0.60649      -0.63874
                        -----------------------------------------
Magnitude (a.u.)       :      1.01796
Magnitude (Debye)      :      2.58745

Rotational constants in cm-1:     0.945175     0.164779     0.157809
Rotational constants in MHz : 28335.648421  4939.949664  4730.989448

                             ****ORCA TERMINATED NORMALLY****
TOTAL RUN TIME: 0 days 0 hours 0 minutes 16 seconds 37 msec
