                         Program Version 5.0.3 -  RELEASE  -
|  1> ! HF-3c
|  2> !TightSCF
|  3> %scf
|  4>  ConvForced true
|  5>  convergence tight
|  6>  MaxIter 500
|  7> end
|  8>
|  9> %tddft
| 10>  nroots 1
| 11> end
| 12>
| 13> # 	30151
| 14> * xyz 0 1
| 15> 		C   -0.596805  -0.480652  -0.013461
| 16> 		O   -0.617142  -1.658090   0.011508
| 17> 		C    0.644552   0.442670   0.007888
| 18> 		C    1.889559  -0.106025  -0.007403
| 19> 		H   -1.544172   0.242614  -0.052233
| 20> 		H    0.507301   1.576375   0.044571
| 21> 		H    2.214728  -1.141560  -0.080071
| 22> 		H    2.530396   0.641528   0.067379
| 23> *
| 24>
| 25>                          ****END OF INPUT****

CARTESIAN COORDINATES (ANGSTROEM)
---------------------------------
  C     -0.596805   -0.480652   -0.013461
  O     -0.617142   -1.658090    0.011508
  C      0.644552    0.442670    0.007888
  C      1.889559   -0.106025   -0.007403
  H     -1.544172    0.242614   -0.052233
  H      0.507301    1.576375    0.044571
  H      2.214728   -1.141560   -0.080071
  H      2.530396    0.641528    0.067379

 Total Charge           Charge          ....    0
 Multiplicity           Mult            ....    1
 Number of Electrons    NEL             ....   30
 Basis Dimension        Dim             ....   24

ORBITAL ENERGIES
----------------

  NO   OCC          E(Eh)            E(eV)
   0   2.0000     -20.382178      -554.6273
   1   2.0000     -11.301758      -307.5365
   2   2.0000     -11.184593      -304.3483
   3   2.0000     -11.181380      -304.2608
   4   2.0000      -1.425083       -38.7785
   5   2.0000      -1.067598       -29.0508
   6   2.0000      -0.880048       -23.9473
   7   2.0000      -0.734439       -19.9851
   8   2.0000      -0.695525       -18.9262
   9   2.0000      -0.620818       -16.8933
  10   2.0000      -0.587471       -15.9859
  11   2.0000      -0.550027       -14.9670
  12   2.0000      -0.549737       -14.9591
  13   2.0000      -0.394681       -10.7398
  14   2.0000      -0.390505       -10.6262
  15   0.0000       0.139212         3.7882
  16   0.0000       0.303555         8.2602
  17   0.0000       0.528608        14.3842
  18   0.0000       0.545179        14.8351
  19   0.0000       0.604510        16.4495

MULLIKEN ATOMIC CHARGES
-----------------------
   0 C :    0.198127
   1 O :   -0.364124
   2 C :   -0.151703
   3 C :   -0.251032
   4 H :    0.121706
   5 H :    0.142401
   6 H :    0.164768
   7 H :    0.139857
Sum of atomic charges:   -0.0000000

LOEWDIN ATOMIC CHARGES
----------------------
   0 C :    0.159965
   1 O :   -0.254034
   2 C :   -0.118839
   3 C :   -0.142458
   4 H :    0.065266
   5 H :    0.095285
   6 H :    0.110734
   7 H :    0.084082

  Mayer bond orders larger than 0.100000
B(  0-C ,  1-O ) :   1.9374 B(  0-C ,  2-C ) :   0.9860 B(  0-C ,  4-H ) :   0.9070
B(  2-C ,  3-C ) :   1.9587 B(  2-C ,  5-H ) :   0.9611 B(  3-C ,  6-H ) :   0.9612
B(  3-C ,  7-H ) :   0.9690

-----------------------------------------------------------------------------
         ABSORPTION SPECTRUM VIA TRANSITION ELECTRIC DIPOLE MOMENTS
-----------------------------------------------------------------------------
State   Energy    Wavelength  fosc         T2        TX        TY        TZ
        (cm-1)      (nm)                 (au**2)    (au)      (au)      (au)
-----------------------------------------------------------------------------
   1   34587.8    289.1   0.000005481   0.00005  -0.00717  -0.00054  -0.00070

Dispersion correction           -0.025019682
FINAL SINGLE POINT ENERGY      -189.308479620209

DIPOLE MOMENT
-------------
                                X             Y             Z
Electronic contribution:     -2.05743      -2.03384       0.00276
Nuclear contribution   :      2.31852       3.02245      -0.01945
                        -----------------------------------------
Total Dipole Moment    :      0.26109       0.98861      -0.01668
                        -----------------------------------------
Magnitude (a.u.)       :      1.02264
Magnitude (Debye)      :      2.59935

Rotational constants in cm-1:     0.753787     0.197493     0.156554
Rotational constants in MHz : 22597.977397  5920.692142  4693.379646

                             ****ORCA TERMINATED NORMALLY****
TOTAL RUN TIME: 0 days 0 hours 0 minutes 11 seconds 807 msec
