                         Program Version 5.0.3 -  RELEASE  -
|  1> ! B3LYP cc-pVDZ
|  2> !TightSCF
|  3> %scf
|  4>  ConvForced true
|  5>  convergence tight
|  6>  MaxIter 500
|  7> end
|  8>
|  9> %tddft
| 10>  nroots 1
| 11> end
| 12>
| 13> # 	26633
| 14> * xyz 0 1
| 15> 		C   -0.604620  -0.493651  -0.021320
| 16> 		O   -0.631067  -1.646180   0.019267
| 17> 		C    0.658716   0.402097   0.004895
| 18> 		C    1.901265  -0.061022  -0.013795
| 19> 		H   -1.474230   0.132749  -0.101351
| 20> 		H    0.457816   1.627956   0.162806
| 21> 		H    2.030289  -1.053055  -0.066133
| 22> 		H    2.671980   0.487334   0.072662
| 23> *
| 24>
| 25>                          ****END OF INPUT****

CARTESIAN COORDINATES (ANGSTROEM)
---------------------------------
  C     -0.604620   -0.493651   -0.021320
  O     -0.631067   -1.646180    0.019267
  C      0.658716    0.402097    0.004895
  C      1.901265   -0.061022   -0.013795
  H     -1.474230    0.132749   -0.101351
  H      0.457816    1.627956    0.162806
  H      2.030289   -1.053055   -0.066133
  H      2.671980    0.487334    0.072662

 Total Charge           Charge          ....    0
 Multiplicity           Mult            ....    1
 Number of Electrons    NEL             ....   30
 Basis Dimension        Dim             ....   76

ORBITAL ENERGIES
----------------

  NO   OCC          E(Eh)            E(eV)
   0   2.0000     -19.146981      -521.0158
   1   2.0000     -10.275876      -279.6208
   2   2.0000     -10.212371      -277.8927
   3   2.0000     -10.185808      -277.1699
   4   2.0000      -1.084725       -29.5169
   5   2.0000      -0.791697       -21.5432
   6   2.0000      -0.659502       -17.9460
   7   2.0000      -0.552303       -15.0289
   8   2.0000      -0.505198       -13.7471
   9   2.0000      -0.458287       -12.4706
  10   2.0000      -0.444824       -12.1043
  11   2.0000      -0.417917       -11.3721
  12   2.0000      -0.374763       -10.1978
  13   2.0000      -0.289689        -7.8828
  14   2.0000      -0.258211        -7.0263
  15   0.0000      -0.058808        -1.6002
  16   0.0000       0.056563         1.5392
  17   0.0000       0.067432         1.8349
  18   0.0000       0.105794         2.8788
  19   0.0000       0.121702         3.3117

MULLIKEN ATOMIC CHARGES
-----------------------
   0 C :    0.213560
   1 O :   -0.133880
   2 C :   -0.270636
   3 C :    0.249541
   4 H :   -0.034433
   5 H :    0.019022
   6 H :   -0.010988
   7 H :   -0.032187
Sum of atomic charges:    0.0000000

LOEWDIN ATOMIC CHARGES
----------------------
   0 C :   -0.059221
   1 O :    0.062231
   2 C :   -0.078064
   3 C :    0.045204
   4 H :   -0.017362
   5 H :    0.042413
   6 H :    0.013087
   7 H :   -0.008289

  Mayer bond orders larger than 0.100000
B(  0-C ,  1-O ) :   2.2794 B(  0-C ,  2-C ) :   0.9910 B(  0-C ,  4-H ) :   0.9096
B(  2-C ,  3-C ) :   2.0045 B(  2-C ,  5-H ) :   0.9264 B(  3-C ,  6-H ) :   0.9314
B(  3-C ,  7-H ) :   0.9334

-----------------------------------------------------------------------------
         ABSORPTION SPECTRUM VIA TRANSITION ELECTRIC DIPOLE MOMENTS
-----------------------------------------------------------------------------
State   Energy    Wavelength  fosc         T2        TX        TY        TZ
        (cm-1)      (nm)                 (au**2)    (au)      (au)      (au)
-----------------------------------------------------------------------------
   1   31039.6    322.2   0.000048524   0.00051  -0.01737  -0.00372  -0.01411

FINAL SINGLE POINT ENERGY      -191.623652676174

DIPOLE MOMENT
-------------
                                X             Y             Z
Electronic contribution:     -1.96352      -2.18215      -0.05805
Nuclear contribution   :      2.29921       2.90882       0.06314
                        -----------------------------------------
Total Dipole Moment    :      0.33570       0.72667       0.00509
                        -----------------------------------------
Magnitude (a.u.)       :      0.80048
Magnitude (Debye)      :      2.03466

Rotational constants in cm-1:     0.821153     0.194067     0.157147
Rotational constants in MHz : 24617.543590  5817.979059  4711.155046

                             ****ORCA TERMINATED NORMALLY****
TOTAL RUN TIME: 0 days 0 hours 3 minutes 22 seconds 529 msec
