                         Program Version 5.0.3 -  RELEASE  -
|  1> ! B3LYP cc-pVDZ
|  2> !TightSCF
|  3> %scf
|  4>  ConvForced true
|  5>  convergence tight
|  6>  MaxIter 500
|  7> end
|  8>
|  9> %tddft
| 10>  nroots 1
| 11> end
| 12>
| 13> # 	16018
| 14> * xyz 0 1
| 15> 		C   -1.184363  -0.403706  -0.095950
| 16> 		O   -2.127352  -0.385092  -0.820328
| 17> 		C    0.053010   0.395167  -0.287663
| 18> 		C    1.180850   0.076606   0.273146
| 19> 		H   -1.214671  -0.925034   0.931479
| 20> 		H   -0.066862   1.202462  -1.023882
| 21> 		H    1.164984  -0.619939   1.000368
| 22> 		H    2.239389   0.641083   0.058136
| 23> *
| 24>
| 25>                          ****END OF INPUT****

CARTESIAN COORDINATES (ANGSTROEM)
---------------------------------
  C     -1.184363   -0.403706   -0.095950
  O     -2.127352   -0.385092   -0.820328
  C      0.053010    0.395167   -0.287663
  C      1.180850    0.076606    0.273146
  H     -1.214671   -0.925034    0.931479
  H     -0.066862    1.202462   -1.023882
  H      1.164984   -0.619939    1.000368
  H      2.239389    0.641083    0.058136

 Total Charge           Charge          ....    0
 Multiplicity           Mult            ....    1
 Number of Electrons    NEL             ....   30
 Basis Dimension        Dim             ....   76

ORBITAL ENERGIES
----------------

  NO   OCC          E(Eh)            E(eV)
   0   2.0000     -19.143350      -520.9170
   1   2.0000     -10.279058      -279.7074
   2   2.0000     -10.215721      -277.9839
   3   2.0000     -10.203459      -277.6502
   4   2.0000      -1.061680       -28.8898
   5   2.0000      -0.810911       -22.0660
   6   2.0000      -0.642266       -17.4769
   7   2.0000      -0.569391       -15.4939
   8   2.0000      -0.481907       -13.1134
   9   2.0000      -0.467586       -12.7237
  10   2.0000      -0.431037       -11.7291
  11   2.0000      -0.402985       -10.9658
  12   2.0000      -0.382545       -10.4096
  13   2.0000      -0.300235        -8.1698
  14   2.0000      -0.256436        -6.9780
  15   0.0000      -0.058041        -1.5794
  16   0.0000       0.042458         1.1553
  17   0.0000       0.061348         1.6694
  18   0.0000       0.084101         2.2885
  19   0.0000       0.128094         3.4856

MULLIKEN ATOMIC CHARGES
-----------------------
   0 C :    0.156464
   1 O :   -0.170025
   2 C :   -0.077133
   3 C :    0.065242
   4 H :   -0.027150
   5 H :    0.000588
   6 H :   -0.008852
   7 H :    0.060867
Sum of atomic charges:   -0.0000000

LOEWDIN ATOMIC CHARGES
----------------------
   0 C :   -0.049534
   1 O :    0.024328
   2 C :   -0.063738
   3 C :    0.001215
   4 H :   -0.009298
   5 H :    0.033556
   6 H :    0.004382
   7 H :    0.059090

  Mayer bond orders larger than 0.100000
B(  0-C ,  1-O ) :   2.2031 B(  0-C ,  2-C ) :   1.0508 B(  0-C ,  4-H ) :   0.9018
B(  2-C ,  3-C ) :   1.9610 B(  2-C ,  5-H ) :   0.9466 B(  3-C ,  6-H ) :   0.9257
B(  3-C ,  7-H ) :   0.9375

-----------------------------------------------------------------------------
         ABSORPTION SPECTRUM VIA TRANSITION ELECTRIC DIPOLE MOMENTS
-----------------------------------------------------------------------------
State   Energy    Wavelength  fosc         T2        TX        TY        TZ
        (cm-1)      (nm)                 (au**2)    (au)      (au)      (au)
-----------------------------------------------------------------------------
   1   30598.0    326.8   0.000259956   0.00280   0.03615  -0.00092  -0.03860

FINAL SINGLE POINT ENERGY      -191.652127931529

DIPOLE MOMENT
-------------
                                X             Y             Z
Electronic contribution:     -3.12692      -0.47768      -1.32227
Nuclear contribution   :      4.06357       0.61328       1.79992
                        -----------------------------------------
Total Dipole Moment    :      0.93665       0.13560       0.47766
                        -----------------------------------------
Magnitude (a.u.)       :      1.06012
Magnitude (Debye)      :      2.69462

Rotational constants in cm-1:     1.579922     0.156198     0.143856
Rotational constants in MHz : 47364.865944  4682.696876  4312.705416

                             ****ORCA TERMINATED NORMALLY****
TOTAL RUN TIME: 0 days 0 hours 3 minutes 22 seconds 82 msec
