                         Program Version 5.0.3 -  RELEASE  -
|  1> ! HF-3c
|  2> !TightSCF
|  3> %scf
|  4>  ConvForced true
|  5>  convergence tight
|  6>  MaxIter 500
|  7> end
|  8>
|  9> %tddft
| 10>  nroots 1
| 11> end
| 12>
| 13> # 	6439
| 14> * xyz 0 1
| 15> 		C   -1.162868  -0.447685   0.060460
| 16> 		O   -2.209629  -0.369282   0.624262
| 17> 		C   -0.019669   0.418123   0.221838
| 18> 		C    1.203584   0.103261  -0.311929
| 19> 		H   -1.030553  -1.007027  -0.560679
| 20> 		H   -0.097624   1.267910   1.032033
| 21> 		H    1.361670  -0.760574  -0.849882
| 22> 		H    1.997089   0.747744  -0.181614
| 23> *
| 24>
| 25>                          ****END OF INPUT****

CARTESIAN COORDINATES (ANGSTROEM)
---------------------------------
  C     -1.162868   -0.447685    0.060460
  O     -2.209629   -0.369282    0.624262
  C     -0.019669    0.418123    0.221838
  C      1.203584    0.103261   -0.311929
  H     -1.030553   -1.007027   -0.560679
  H     -0.097624    1.267910    1.032033
  H      1.361670   -0.760574   -0.849882
  H      1.997089    0.747744   -0.181614

 Total Charge           Charge          ....    0
 Multiplicity           Mult            ....    1
 Number of Electrons    NEL             ....   30
 Basis Dimension        Dim             ....   24

ORBITAL ENERGIES
----------------

  NO   OCC          E(Eh)            E(eV)
   0   2.0000     -20.392120      -554.8978
   1   2.0000     -11.322900      -308.1118
   2   2.0000     -11.198821      -304.7354
   3   2.0000     -11.195852      -304.6546
   4   2.0000      -1.431036       -38.9405
   5   2.0000      -1.094549       -29.7842
   6   2.0000      -0.934616       -25.4322
   7   2.0000      -0.824800       -22.4440
   8   2.0000      -0.688466       -18.7341
   9   2.0000      -0.662693       -18.0328
  10   2.0000      -0.599477       -16.3126
  11   2.0000      -0.563982       -15.3467
  12   2.0000      -0.551062       -14.9952
  13   2.0000      -0.435207       -11.8426
  14   2.0000      -0.392007       -10.6670
  15   0.0000       0.110494         3.0067
  16   0.0000       0.295682         8.0459
  17   0.0000       0.549980        14.9657
  18   0.0000       0.639252        17.3949
  19   0.0000       0.715059        19.4577

MULLIKEN ATOMIC CHARGES
-----------------------
   0 C :    0.114353
   1 O :   -0.323712
   2 C :   -0.134447
   3 C :   -0.243947
   4 H :    0.136786
   5 H :    0.157729
   6 H :    0.144797
   7 H :    0.148442
Sum of atomic charges:    0.0000000

LOEWDIN ATOMIC CHARGES
----------------------
   0 C :    0.116918
   1 O :   -0.224208
   2 C :   -0.100859
   3 C :   -0.136085
   4 H :    0.052158
   5 H :    0.109386
   6 H :    0.089804
   7 H :    0.092886

  Mayer bond orders larger than 0.100000
B(  0-C ,  1-O ) :   1.8922 B(  0-C ,  2-C ) :   1.0438 B(  0-C ,  4-H ) :   0.9432
B(  2-C ,  3-C ) :   1.9284 B(  2-C ,  5-H ) :   0.9540 B(  3-C ,  6-H ) :   0.9671
B(  3-C ,  7-H ) :   0.9676

-----------------------------------------------------------------------------
         ABSORPTION SPECTRUM VIA TRANSITION ELECTRIC DIPOLE MOMENTS
-----------------------------------------------------------------------------
State   Energy    Wavelength  fosc         T2        TX        TY        TZ
        (cm-1)      (nm)                 (au**2)    (au)      (au)      (au)
-----------------------------------------------------------------------------
   1   31745.8    315.0   0.000131787   0.00137  -0.03339  -0.01366   0.00807

Dispersion correction           -0.025963195
FINAL SINGLE POINT ENERGY      -189.248776534836

DIPOLE MOMENT
-------------
                                X             Y             Z
Electronic contribution:     -3.24846      -0.46000       0.80302
Nuclear contribution   :      4.26756       0.54799      -1.12558
                        -----------------------------------------
Total Dipole Moment    :      1.01910       0.08800      -0.32256
                        -----------------------------------------
Magnitude (a.u.)       :      1.07255
Magnitude (Debye)      :      2.72620

Rotational constants in cm-1:     1.730140     0.154852     0.142615
Rotational constants in MHz : 51868.287019  4642.344436  4275.503805

                             ****ORCA TERMINATED NORMALLY****
TOTAL RUN TIME: 0 days 0 hours 0 minutes 9 seconds 613 msec
