                         Program Version 5.0.3 -  RELEASE  -
|  1> ! B3LYP cc-pVDZ
|  2> !TightSCF
|  3> %scf
|  4>  ConvForced true
|  5>  convergence tight
|  6>  MaxIter 500
|  7> end
|  8>
|  9> %tddft
| 10>  nroots 1
| 11> end
| 12>
| 13> # 	21323
| 14> * xyz 0 1
| 15> 		C   -0.573424  -0.426291  -0.019398
| 16> 		O   -0.620208  -1.667745   0.017636
| 17> 		C    0.649002   0.428093  -0.001795
| 18> 		C    1.846587  -0.101145  -0.044148
| 19> 		H   -1.537256   0.051198   0.013724
| 20> 		H    0.472379   1.462632   0.132655
| 21> 		H    2.301206  -1.086714   0.050968
| 22> 		H    2.683275   0.505533   0.323806
| 23> *
| 24>
| 25>                          ****END OF INPUT****

CARTESIAN COORDINATES (ANGSTROEM)
---------------------------------
  C     -0.573424   -0.426291   -0.019398
  O     -0.620208   -1.667745    0.017636
  C      0.649002    0.428093   -0.001795
  C      1.846587   -0.101145   -0.044148
  H     -1.537256    0.051198    0.013724
  H      0.472379    1.462632    0.132655
  H      2.301206   -1.086714    0.050968
  H      2.683275    0.505533    0.323806

 Total Charge           Charge          ....    0
 Multiplicity           Mult            ....    1
 Number of Electrons    NEL             ....   30
 Basis Dimension        Dim             ....   76

ORBITAL ENERGIES
----------------

  NO   OCC          E(Eh)            E(eV)
   0   2.0000     -19.134327      -520.6715
   1   2.0000     -10.271139      -279.4919
   2   2.0000     -10.212732      -277.9026
   3   2.0000     -10.209315      -277.8096
   4   2.0000      -1.024651       -27.8822
   5   2.0000      -0.802918       -21.8485
   6   2.0000      -0.662345       -18.0233
   7   2.0000      -0.558288       -15.1918
   8   2.0000      -0.504924       -13.7397
   9   2.0000      -0.461219       -12.5504
  10   2.0000      -0.417631       -11.3643
  11   2.0000      -0.387018       -10.5313
  12   2.0000      -0.366194        -9.9647
  13   2.0000      -0.292777        -7.9669
  14   2.0000      -0.250547        -6.8177
  15   0.0000      -0.074524        -2.0279
  16   0.0000       0.052977         1.4416
  17   0.0000       0.065868         1.7924
  18   0.0000       0.089582         2.4376
  19   0.0000       0.123143         3.3509

MULLIKEN ATOMIC CHARGES
-----------------------
   0 C :    0.195115
   1 O :   -0.215848
   2 C :   -0.070878
   3 C :    0.065651
   4 H :   -0.025738
   5 H :   -0.007723
   6 H :    0.036291
   7 H :    0.023129
Sum of atomic charges:    0.0000000

LOEWDIN ATOMIC CHARGES
----------------------
   0 C :   -0.008683
   1 O :   -0.035022
   2 C :   -0.070492
   3 C :    0.019789
   4 H :   -0.008965
   5 H :    0.028173
   6 H :    0.038974
   7 H :    0.036226

  Mayer bond orders larger than 0.100000
B(  0-C ,  1-O ) :   2.1740 B(  0-C ,  2-C ) :   1.0572 B(  0-C ,  4-H ) :   0.9305
B(  2-C ,  3-C ) :   1.9495 B(  2-C ,  5-H ) :   0.9397 B(  3-C ,  6-H ) :   0.9595
B(  3-C ,  7-H ) :   0.9425

-----------------------------------------------------------------------------
         ABSORPTION SPECTRUM VIA TRANSITION ELECTRIC DIPOLE MOMENTS
-----------------------------------------------------------------------------
State   Energy    Wavelength  fosc         T2        TX        TY        TZ
        (cm-1)      (nm)                 (au**2)    (au)      (au)      (au)
-----------------------------------------------------------------------------
   1   25630.8    390.2   0.000043984   0.00056  -0.00232   0.01066   0.02112

FINAL SINGLE POINT ENERGY      -191.670230506972

DIPOLE MOMENT
-------------
                                X             Y             Z
Electronic contribution:     -2.05504      -1.71455      -0.38983
Nuclear contribution   :      2.51796       2.66038       0.48767
                        -----------------------------------------
Total Dipole Moment    :      0.46292       0.94582       0.09784
                        -----------------------------------------
Magnitude (a.u.)       :      1.05757
Magnitude (Debye)      :      2.68812

Rotational constants in cm-1:     0.771764     0.200106     0.159383
Rotational constants in MHz : 23136.896153  5999.019724  4778.172955

                             ****ORCA TERMINATED NORMALLY****
TOTAL RUN TIME: 0 days 0 hours 3 minutes 21 seconds 370 msec
