                         Program Version 5.0.3 -  RELEASE  -
|  1> ! B3LYP cc-pVDZ
|  2> !TightSCF
|  3> %scf
|  4>  ConvForced true
|  5>  convergence tight
|  6>  MaxIter 500
|  7> end
|  8>
|  9> %tddft
| 10>  nroots 1
| 11> end
| 12>
| 13> # 	13407
| 14> * xyz 0 1
| 15> 		C   -1.228319  -0.326231  -0.056028
| 16> 		O   -1.417922  -1.321598  -0.679239
| 17> 		C    0.025957   0.490964  -0.175034
| 18> 		C    1.269127   0.050094   0.207952
| 19> 		H   -2.086184   0.039505   0.628646
| 20> 		H   -0.019620   1.505217  -0.538330
| 21> 		H    1.281525  -1.053882   0.514855
| 22> 		H    2.154379   0.612633   0.083912
| 23> *
| 24>
| 25>                          ****END OF INPUT****

CARTESIAN COORDINATES (ANGSTROEM)
---------------------------------
  C     -1.228319   -0.326231   -0.056028
  O     -1.417922   -1.321598   -0.679239
  C      0.025957    0.490964   -0.175034
  C      1.269127    0.050094    0.207952
  H     -2.086184    0.039505    0.628646
  H     -0.019620    1.505217   -0.538330
  H      1.281525   -1.053882    0.514855
  H      2.154379    0.612633    0.083912

 Total Charge           Charge          ....    0
 Multiplicity           Mult            ....    1
 Number of Electrons    NEL             ....   30
 Basis Dimension        Dim             ....   76

ORBITAL ENERGIES
----------------

  NO   OCC          E(Eh)            E(eV)
   0   2.0000     -19.145027      -520.9627
   1   2.0000     -10.285113      -279.8722
   2   2.0000     -10.212246      -277.8894
   3   2.0000     -10.209809      -277.8230
   4   2.0000      -1.064391       -28.9636
   5   2.0000      -0.785013       -21.3613
   6   2.0000      -0.646593       -17.5947
   7   2.0000      -0.546876       -14.8813
   8   2.0000      -0.503968       -13.7137
   9   2.0000      -0.453233       -12.3331
  10   2.0000      -0.441395       -12.0110
  11   2.0000      -0.396640       -10.7931
  12   2.0000      -0.375125       -10.2077
  13   2.0000      -0.282249        -7.6804
  14   2.0000      -0.256405        -6.9771
  15   0.0000      -0.044346        -1.2067
  16   0.0000       0.001516         0.0413
  17   0.0000       0.081504         2.2178
  18   0.0000       0.087453         2.3797
  19   0.0000       0.103038         2.8038

MULLIKEN ATOMIC CHARGES
-----------------------
   0 C :    0.151675
   1 O :   -0.160615
   2 C :   -0.083846
   3 C :    0.026254
   4 H :   -0.006893
   5 H :    0.007634
   6 H :    0.039939
   7 H :    0.025851
Sum of atomic charges:   -0.0000000

LOEWDIN ATOMIC CHARGES
----------------------
   0 C :   -0.040649
   1 O :    0.027101
   2 C :   -0.059398
   3 C :   -0.014270
   4 H :   -0.002029
   5 H :    0.028310
   6 H :    0.040399
   7 H :    0.020535

  Mayer bond orders larger than 0.100000
B(  0-C ,  1-O ) :   2.2365 B(  0-C ,  2-C ) :   0.9679 B(  0-C ,  4-H ) :   0.9080
B(  2-C ,  3-C ) :   2.0186 B(  2-C ,  5-H ) :   0.9404 B(  3-C ,  6-H ) :   0.9430
B(  3-C ,  7-H ) :   0.9466

-----------------------------------------------------------------------------
         ABSORPTION SPECTRUM VIA TRANSITION ELECTRIC DIPOLE MOMENTS
-----------------------------------------------------------------------------
State   Energy    Wavelength  fosc         T2        TX        TY        TZ
        (cm-1)      (nm)                 (au**2)    (au)      (au)      (au)
-----------------------------------------------------------------------------
   1   32803.4    304.8   0.000093376   0.00094   0.02262  -0.01960  -0.00645

FINAL SINGLE POINT ENERGY      -191.643194721551

DIPOLE MOMENT
-------------
                                X             Y             Z
Electronic contribution:     -2.23210      -1.45521      -0.98188
Nuclear contribution   :      2.60736       2.18846       1.33868
                        -----------------------------------------
Total Dipole Moment    :      0.37527       0.73324       0.35680
                        -----------------------------------------
Magnitude (a.u.)       :      0.89765
Magnitude (Debye)      :      2.28165

Rotational constants in cm-1:     0.874523     0.177633     0.157345
Rotational constants in MHz : 26217.541842  5325.292239  4717.086471

                             ****ORCA TERMINATED NORMALLY****
TOTAL RUN TIME: 0 days 0 hours 3 minutes 22 seconds 901 msec
