                         Program Version 5.0.3 -  RELEASE  -
|  1> ! HF-3c
|  2> !TightSCF
|  3> %scf
|  4>  ConvForced true
|  5>  convergence tight
|  6>  MaxIter 500
|  7> end
|  8>
|  9> %tddft
| 10>  nroots 1
| 11> end
| 12>
| 13> # 	16151
| 14> * xyz 0 1
| 15> 		C   -1.196074  -0.312797  -0.071398
| 16> 		O   -1.867975  -0.801874  -0.968983
| 17> 		C   -0.007466   0.501277  -0.236520
| 18> 		C    1.214546   0.053555   0.139029
| 19> 		H   -1.410389  -0.649529   0.985310
| 20> 		H   -0.004991   1.421706  -0.845327
| 21> 		H    1.123148  -0.783321   0.821379
| 22> 		H    2.129289   0.639643   0.170373
| 23> *
| 24>
| 25>                          ****END OF INPUT****

CARTESIAN COORDINATES (ANGSTROEM)
---------------------------------
  C     -1.196074   -0.312797   -0.071398
  O     -1.867975   -0.801874   -0.968983
  C     -0.007466    0.501277   -0.236520
  C      1.214546    0.053555    0.139029
  H     -1.410389   -0.649529    0.985310
  H     -0.004991    1.421706   -0.845327
  H      1.123148   -0.783321    0.821379
  H      2.129289    0.639643    0.170373

 Total Charge           Charge          ....    0
 Multiplicity           Mult            ....    1
 Number of Electrons    NEL             ....   30
 Basis Dimension        Dim             ....   24

ORBITAL ENERGIES
----------------

  NO   OCC          E(Eh)            E(eV)
   0   2.0000     -20.373719      -554.3971
   1   2.0000     -11.300778      -307.5098
   2   2.0000     -11.193836      -304.5998
   3   2.0000     -11.184084      -304.3344
   4   2.0000      -1.398620       -38.0584
   5   2.0000      -1.085703       -29.5435
   6   2.0000      -0.885197       -24.0874
   7   2.0000      -0.770681       -20.9713
   8   2.0000      -0.673162       -18.3177
   9   2.0000      -0.645876       -17.5752
  10   2.0000      -0.595943       -16.2164
  11   2.0000      -0.545193       -14.8354
  12   2.0000      -0.502394       -13.6708
  13   2.0000      -0.419050       -11.4029
  14   2.0000      -0.395651       -10.7662
  15   0.0000       0.143248         3.8980
  16   0.0000       0.241309         6.5663
  17   0.0000       0.575009        15.6468
  18   0.0000       0.606026        16.4908
  19   0.0000       0.671526        18.2732

MULLIKEN ATOMIC CHARGES
-----------------------
   0 C :    0.161374
   1 O :   -0.337136
   2 C :   -0.165744
   3 C :   -0.235783
   4 H :    0.138016
   5 H :    0.155148
   6 H :    0.133891
   7 H :    0.150235
Sum of atomic charges:    0.0000000

LOEWDIN ATOMIC CHARGES
----------------------
   0 C :    0.146316
   1 O :   -0.246430
   2 C :   -0.119485
   3 C :   -0.143948
   4 H :    0.076330
   5 H :    0.102342
   6 H :    0.085754
   7 H :    0.099122

  Mayer bond orders larger than 0.100000
B(  0-C ,  1-O ) :   1.9282 B(  0-C ,  2-C ) :   1.0173 B(  0-C ,  4-H ) :   0.9193
B(  2-C ,  3-C ) :   1.9661 B(  2-C ,  5-H ) :   0.9493 B(  3-C ,  6-H ) :   0.9666
B(  3-C ,  7-H ) :   0.9637

-----------------------------------------------------------------------------
         ABSORPTION SPECTRUM VIA TRANSITION ELECTRIC DIPOLE MOMENTS
-----------------------------------------------------------------------------
State   Energy    Wavelength  fosc         T2        TX        TY        TZ
        (cm-1)      (nm)                 (au**2)    (au)      (au)      (au)
-----------------------------------------------------------------------------
   1   32688.1    305.9   0.000034834   0.00035   0.00257  -0.01113   0.01484

Dispersion correction           -0.025476678
FINAL SINGLE POINT ENERGY      -189.324619629242

DIPOLE MOMENT
-------------
                                X             Y             Z
Electronic contribution:     -2.87011      -0.78014      -1.42157
Nuclear contribution   :      3.57085       1.20197       2.14888
                        -----------------------------------------
Total Dipole Moment    :      0.70075       0.42183       0.72730
                        -----------------------------------------
Magnitude (a.u.)       :      1.09451
Magnitude (Debye)      :      2.78203

Rotational constants in cm-1:     1.172707     0.159213     0.154280
Rotational constants in MHz : 35156.864368  4773.087724  4625.207357

                             ****ORCA TERMINATED NORMALLY****
TOTAL RUN TIME: 0 days 0 hours 0 minutes 11 seconds 816 msec
