                         Program Version 5.0.3 -  RELEASE  -
|  1> ! HF-3c
|  2> !TightSCF
|  3> %scf
|  4>  ConvForced true
|  5>  convergence tight
|  6>  MaxIter 500
|  7> end
|  8>
|  9> %tddft
| 10>  nroots 1
| 11> end
| 12>
| 13> # 	18787
| 14> * xyz 0 1
| 15> 		C   -1.135328  -0.328818   0.005738
| 16> 		O   -1.364061  -1.442208   0.501417
| 17> 		C    0.020814   0.433562   0.207965
| 18> 		C    1.232676   0.016139  -0.115366
| 19> 		H   -2.054107   0.162091  -0.601164
| 20> 		H   -0.217318   1.503197   0.387720
| 21> 		H    1.368696  -1.017902  -0.347000
| 22> 		H    2.135046   0.641859  -0.009635
| 23> *
| 24>
| 25>                          ****END OF INPUT****

CARTESIAN COORDINATES (ANGSTROEM)
---------------------------------
  C     -1.135328   -0.328818    0.005738
  O     -1.364061   -1.442208    0.501417
  C      0.020814    0.433562    0.207965
  C      1.232676    0.016139   -0.115366
  H     -2.054107    0.162091   -0.601164
  H     -0.217318    1.503197    0.387720
  H      1.368696   -1.017902   -0.347000
  H      2.135046    0.641859   -0.009635

 Total Charge           Charge          ....    0
 Multiplicity           Mult            ....    1
 Number of Electrons    NEL             ....   30
 Basis Dimension        Dim             ....   24

ORBITAL ENERGIES
----------------

  NO   OCC          E(Eh)            E(eV)
   0   2.0000     -20.349872      -553.7482
   1   2.0000     -11.285675      -307.0988
   2   2.0000     -11.199213      -304.7461
   3   2.0000     -11.195532      -304.6459
   4   2.0000      -1.376389       -37.4535
   5   2.0000      -1.096793       -29.8453
   6   2.0000      -0.901604       -24.5339
   7   2.0000      -0.734493       -19.9866
   8   2.0000      -0.696075       -18.9412
   9   2.0000      -0.625032       -17.0080
  10   2.0000      -0.597975       -16.2717
  11   2.0000      -0.540413       -14.7054
  12   2.0000      -0.497384       -13.5345
  13   2.0000      -0.409319       -11.1381
  14   2.0000      -0.397306       -10.8112
  15   0.0000       0.142255         3.8710
  16   0.0000       0.267621         7.2823
  17   0.0000       0.520392        14.1606
  18   0.0000       0.620918        16.8960
  19   0.0000       0.663091        18.0436

MULLIKEN ATOMIC CHARGES
-----------------------
   0 C :    0.159151
   1 O :   -0.347606
   2 C :   -0.180752
   3 C :   -0.220658
   4 H :    0.136461
   5 H :    0.151375
   6 H :    0.151687
   7 H :    0.150342
Sum of atomic charges:   -0.0000000

LOEWDIN ATOMIC CHARGES
----------------------
   0 C :    0.140375
   1 O :   -0.264141
   2 C :   -0.132459
   3 C :   -0.123953
   4 H :    0.082332
   5 H :    0.100678
   6 H :    0.097361
   7 H :    0.099807

  Mayer bond orders larger than 0.100000
B(  0-C ,  1-O ) :   1.9016 B(  0-C ,  2-C ) :   1.0530 B(  0-C ,  4-H ) :   0.9128
B(  2-C ,  3-C ) :   1.9468 B(  2-C ,  5-H ) :   0.9448 B(  3-C ,  6-H ) :   0.9617
B(  3-C ,  7-H ) :   0.9625

-----------------------------------------------------------------------------
         ABSORPTION SPECTRUM VIA TRANSITION ELECTRIC DIPOLE MOMENTS
-----------------------------------------------------------------------------
State   Energy    Wavelength  fosc         T2        TX        TY        TZ
        (cm-1)      (nm)                 (au**2)    (au)      (au)      (au)
-----------------------------------------------------------------------------
   1   31570.7    316.7   0.000295839   0.00308   0.05554  -0.00025  -0.00033

Dispersion correction           -0.025606090
FINAL SINGLE POINT ENERGY      -189.326053867643

DIPOLE MOMENT
-------------
                                X             Y             Z
Electronic contribution:     -2.00648      -1.62296       0.67491
Nuclear contribution   :      2.42365       2.55387      -1.10726
                        -----------------------------------------
Total Dipole Moment    :      0.41718       0.93091      -0.43236
                        -----------------------------------------
Magnitude (a.u.)       :      1.10795
Magnitude (Debye)      :      2.81619

Rotational constants in cm-1:     0.863745     0.191877     0.164306
Rotational constants in MHz : 25894.432664  5752.323849  4925.757766

                             ****ORCA TERMINATED NORMALLY****
TOTAL RUN TIME: 0 days 0 hours 0 minutes 13 seconds 476 msec
