                         Program Version 5.0.3 -  RELEASE  -
|  1> ! HF-3c
|  2> !TightSCF
|  3> %scf
|  4>  ConvForced true
|  5>  convergence tight
|  6>  MaxIter 500
|  7> end
|  8>
|  9> %tddft
| 10>  nroots 1
| 11> end
| 12>
| 13> # 	7279
| 14> * xyz 0 1
| 15> 		C   -1.099241  -0.452448   0.146673
| 16> 		O   -2.141185  -0.266536   0.794377
| 17> 		C    0.078867   0.397464   0.291155
| 18> 		C    1.154549   0.207230  -0.458993
| 19> 		H   -1.163001  -1.144525  -0.850194
| 20> 		H    0.265441   1.127137   1.305818
| 21> 		H    1.059818  -0.489950  -0.947521
| 22> 		H    1.902194   0.652639  -0.316031
| 23> *
| 24>
| 25>                          ****END OF INPUT****

CARTESIAN COORDINATES (ANGSTROEM)
---------------------------------
  C     -1.099241   -0.452448    0.146673
  O     -2.141185   -0.266536    0.794377
  C      0.078867    0.397464    0.291155
  C      1.154549    0.207230   -0.458993
  H     -1.163001   -1.144525   -0.850194
  H      0.265441    1.127137    1.305818
  H      1.059818   -0.489950   -0.947521
  H      1.902194    0.652639   -0.316031

 Total Charge           Charge          ....    0
 Multiplicity           Mult            ....    1
 Number of Electrons    NEL             ....   30
 Basis Dimension        Dim             ....   24

ORBITAL ENERGIES
----------------

  NO   OCC          E(Eh)            E(eV)
   0   2.0000     -20.370386      -554.3064
   1   2.0000     -11.296190      -307.3849
   2   2.0000     -11.214654      -305.1662
   3   2.0000     -11.206788      -304.9522
   4   2.0000      -1.388033       -37.7703
   5   2.0000      -1.126460       -30.6525
   6   2.0000      -0.912688       -24.8355
   7   2.0000      -0.774407       -21.0727
   8   2.0000      -0.715326       -19.4650
   9   2.0000      -0.670894       -18.2560
  10   2.0000      -0.583851       -15.8874
  11   2.0000      -0.543663       -14.7938
  12   2.0000      -0.530098       -14.4247
  13   2.0000      -0.419073       -11.4036
  14   2.0000      -0.407649       -11.0927
  15   0.0000       0.107595         2.9278
  16   0.0000       0.288178         7.8417
  17   0.0000       0.442538        12.0421
  18   0.0000       0.568934        15.4815
  19   0.0000       0.653768        17.7899

MULLIKEN ATOMIC CHARGES
-----------------------
   0 C :    0.156551
   1 O :   -0.335530
   2 C :   -0.093692
   3 C :   -0.340866
   4 H :    0.144504
   5 H :    0.169769
   6 H :    0.146628
   7 H :    0.152637
Sum of atomic charges:    0.0000000

LOEWDIN ATOMIC CHARGES
----------------------
   0 C :    0.133392
   1 O :   -0.248345
   2 C :   -0.057208
   3 C :   -0.213376
   4 H :    0.090093
   5 H :    0.125827
   6 H :    0.082255
   7 H :    0.087362

  Mayer bond orders larger than 0.100000
B(  0-C ,  1-O ) :   1.9008 B(  0-C ,  2-C ) :   1.0411 B(  0-C ,  4-H ) :   0.9123
B(  2-C ,  3-C ) :   1.9354 B(  2-C ,  5-H ) :   0.9446 B(  3-C ,  6-H ) :   0.9663
B(  3-C ,  7-H ) :   0.9661

-----------------------------------------------------------------------------
         ABSORPTION SPECTRUM VIA TRANSITION ELECTRIC DIPOLE MOMENTS
-----------------------------------------------------------------------------
State   Energy    Wavelength  fosc         T2        TX        TY        TZ
        (cm-1)      (nm)                 (au**2)    (au)      (au)      (au)
-----------------------------------------------------------------------------
   1   29328.1    341.0   0.000285382   0.00320   0.03572   0.02952   0.03250

Dispersion correction           -0.025996552
FINAL SINGLE POINT ENERGY      -189.204325781217

DIPOLE MOMENT
-------------
                                X             Y             Z
Electronic contribution:     -3.17827      -0.33017       1.21432
Nuclear contribution   :      3.95907       0.28621      -1.52848
                        -----------------------------------------
Total Dipole Moment    :      0.78080      -0.04396      -0.31416
                        -----------------------------------------
Magnitude (a.u.)       :      0.84278
Magnitude (Debye)      :      2.14218

Rotational constants in cm-1:     1.549582     0.157744     0.143461
Rotational constants in MHz : 46455.301423  4729.037468  4300.859081

                             ****ORCA TERMINATED NORMALLY****
TOTAL RUN TIME: 0 days 0 hours 0 minutes 12 seconds 291 msec
