                         Program Version 5.0.3 -  RELEASE  -
|  1> ! HF-3c
|  2> !TightSCF
|  3> %scf
|  4>  ConvForced true
|  5>  convergence tight
|  6>  MaxIter 500
|  7> end
|  8>
|  9> %tddft
| 10>  nroots 1
| 11> end
| 12>
| 13> # 	24070
| 14> * xyz 0 1
| 15> 		C   -0.616230  -0.422267   0.028743
| 16> 		O   -0.588591  -1.665461  -0.004148
| 17> 		C    0.638674   0.447205  -0.048028
| 18> 		C    1.859976  -0.101183   0.033972
| 19> 		H   -1.492143   0.000976   0.022479
| 20> 		H    0.578043   1.427520   0.008914
| 21> 		H    2.151981  -1.193540  -0.242929
| 22> 		H    2.641783   0.359942   0.111671
| 23> *
| 24>
| 25>                          ****END OF INPUT****

CARTESIAN COORDINATES (ANGSTROEM)
---------------------------------
  C     -0.616230   -0.422267    0.028743
  O     -0.588591   -1.665461   -0.004148
  C      0.638674    0.447205   -0.048028
  C      1.859976   -0.101183    0.033972
  H     -1.492143    0.000976    0.022479
  H      0.578043    1.427520    0.008914
  H      2.151981   -1.193540   -0.242929
  H      2.641783    0.359942    0.111671

 Total Charge           Charge          ....    0
 Multiplicity           Mult            ....    1
 Number of Electrons    NEL             ....   30
 Basis Dimension        Dim             ....   24

ORBITAL ENERGIES
----------------

  NO   OCC          E(Eh)            E(eV)
   0   2.0000     -20.369150      -554.2728
   1   2.0000     -11.300147      -307.4926
   2   2.0000     -11.202776      -304.8430
   3   2.0000     -11.200422      -304.7790
   4   2.0000      -1.385941       -37.7134
   5   2.0000      -1.087154       -29.5830
   6   2.0000      -0.917479       -24.9659
   7   2.0000      -0.804333       -21.8870
   8   2.0000      -0.717397       -19.5214
   9   2.0000      -0.633830       -17.2474
  10   2.0000      -0.600326       -16.3357
  11   2.0000      -0.543343       -14.7851
  12   2.0000      -0.528426       -14.3792
  13   2.0000      -0.430645       -11.7185
  14   2.0000      -0.396336       -10.7849
  15   0.0000       0.117103         3.1865
  16   0.0000       0.276078         7.5125
  17   0.0000       0.525171        14.2906
  18   0.0000       0.618473        16.8295
  19   0.0000       0.704527        19.1712

MULLIKEN ATOMIC CHARGES
-----------------------
   0 C :    0.141591
   1 O :   -0.330545
   2 C :   -0.176750
   3 C :   -0.226981
   4 H :    0.143781
   5 H :    0.146503
   6 H :    0.166433
   7 H :    0.135967
Sum of atomic charges:    0.0000000

LOEWDIN ATOMIC CHARGES
----------------------
   0 C :    0.143001
   1 O :   -0.245922
   2 C :   -0.121767
   3 C :   -0.120209
   4 H :    0.069011
   5 H :    0.085497
   6 H :    0.117247
   7 H :    0.073143

  Mayer bond orders larger than 0.100000
B(  0-C ,  1-O ) :   1.9145 B(  0-C ,  2-C ) :   1.0160 B(  0-C ,  4-H ) :   0.9442
B(  2-C ,  3-C ) :   1.9509 B(  2-C ,  5-H ) :   0.9631 B(  3-C ,  6-H ) :   0.9577
B(  3-C ,  7-H ) :   0.9723

-----------------------------------------------------------------------------
         ABSORPTION SPECTRUM VIA TRANSITION ELECTRIC DIPOLE MOMENTS
-----------------------------------------------------------------------------
State   Energy    Wavelength  fosc         T2        TX        TY        TZ
        (cm-1)      (nm)                 (au**2)    (au)      (au)      (au)
-----------------------------------------------------------------------------
   1   30262.2    330.4   0.000081245   0.00088   0.02913   0.00540  -0.00252

Dispersion correction           -0.025521945
FINAL SINGLE POINT ENERGY      -189.282004520850

DIPOLE MOMENT
-------------
                                X             Y             Z
Electronic contribution:     -2.18328      -1.54764       0.07956
Nuclear contribution   :      2.48175       2.34532      -0.09438
                        -----------------------------------------
Total Dipole Moment    :      0.29847       0.79768      -0.01482
                        -----------------------------------------
Magnitude (a.u.)       :      0.85182
Magnitude (Debye)      :      2.16515

Rotational constants in cm-1:     0.750240     0.202862     0.160061
Rotational constants in MHz : 22491.615061  6081.651714  4798.511327

                             ****ORCA TERMINATED NORMALLY****
TOTAL RUN TIME: 0 days 0 hours 0 minutes 16 seconds 20 msec
