                         Program Version 5.0.3 -  RELEASE  -
|  1> ! HF-3c
|  2> !TightSCF
|  3> %scf
|  4>  ConvForced true
|  5>  convergence tight
|  6>  MaxIter 500
|  7> end
|  8>
|  9> %tddft
| 10>  nroots 1
| 11> end
| 12>
| 13> # 	946
| 14> * xyz 0 1
| 15> 		C   -1.195778  -0.246229  -0.006008
| 16> 		O   -1.357764  -1.277708  -0.651962
| 17> 		C   -0.002480   0.545997  -0.100324
| 18> 		C    1.203647  -0.001358   0.181166
| 19> 		H   -1.984207  -0.035384   0.838915
| 20> 		H   -0.041602   1.386036  -0.788377
| 21> 		H    1.246747  -0.971494   0.556430
| 22> 		H    2.079569   0.624864  -0.027844
| 23> *
| 24>
| 25>                          ****END OF INPUT****

CARTESIAN COORDINATES (ANGSTROEM)
---------------------------------
  C     -1.195778   -0.246229   -0.006008
  O     -1.357764   -1.277708   -0.651962
  C     -0.002480    0.545997   -0.100324
  C      1.203647   -0.001358    0.181166
  H     -1.984207   -0.035384    0.838915
  H     -0.041602    1.386036   -0.788377
  H      1.246747   -0.971494    0.556430
  H      2.079569    0.624864   -0.027844

 Total Charge           Charge          ....    0
 Multiplicity           Mult            ....    1
 Number of Electrons    NEL             ....   30
 Basis Dimension        Dim             ....   24

ORBITAL ENERGIES
----------------

  NO   OCC          E(Eh)            E(eV)
   0   2.0000     -20.361699      -554.0700
   1   2.0000     -11.290215      -307.2224
   2   2.0000     -11.189283      -304.4759
   3   2.0000     -11.186625      -304.4035
   4   2.0000      -1.391478       -37.8641
   5   2.0000      -1.083212       -29.4757
   6   2.0000      -0.888905       -24.1883
   7   2.0000      -0.753565       -20.5056
   8   2.0000      -0.690838       -18.7987
   9   2.0000      -0.620012       -16.8714
  10   2.0000      -0.602360       -16.3910
  11   2.0000      -0.559102       -15.2139
  12   2.0000      -0.487526       -13.2662
  13   2.0000      -0.411339       -11.1931
  14   2.0000      -0.395194       -10.7538
  15   0.0000       0.170082         4.6282
  16   0.0000       0.209634         5.7044
  17   0.0000       0.563159        15.3243
  18   0.0000       0.633011        17.2251
  19   0.0000       0.666834        18.1455

MULLIKEN ATOMIC CHARGES
-----------------------
   0 C :    0.160998
   1 O :   -0.343530
   2 C :   -0.177995
   3 C :   -0.230237
   4 H :    0.138660
   5 H :    0.154902
   6 H :    0.148143
   7 H :    0.149059
Sum of atomic charges:   -0.0000000

LOEWDIN ATOMIC CHARGES
----------------------
   0 C :    0.143894
   1 O :   -0.255213
   2 C :   -0.131794
   3 C :   -0.132661
   4 H :    0.081160
   5 H :    0.102561
   6 H :    0.093076
   7 H :    0.098977

  Mayer bond orders larger than 0.100000
B(  0-C ,  1-O ) :   1.9310 B(  0-C ,  2-C ) :   1.0160 B(  0-C ,  4-H ) :   0.9148
B(  2-C ,  3-C ) :   1.9729 B(  2-C ,  5-H ) :   0.9479 B(  3-C ,  6-H ) :   0.9664
B(  3-C ,  7-H ) :   0.9639

-----------------------------------------------------------------------------
         ABSORPTION SPECTRUM VIA TRANSITION ELECTRIC DIPOLE MOMENTS
-----------------------------------------------------------------------------
State   Energy    Wavelength  fosc         T2        TX        TY        TZ
        (cm-1)      (nm)                 (au**2)    (au)      (au)      (au)
-----------------------------------------------------------------------------
   1   32886.3    304.1   0.000130646   0.00131   0.03446   0.00660  -0.00877

Dispersion correction           -0.025690910
FINAL SINGLE POINT ENERGY      -189.315784901659

DIPOLE MOMENT
-------------
                                X             Y             Z
Electronic contribution:     -2.21199      -1.23508      -0.70646
Nuclear contribution   :      2.56736       1.98789       1.13499
                        -----------------------------------------
Total Dipole Moment    :      0.35537       0.75280       0.42853
                        -----------------------------------------
Magnitude (a.u.)       :      0.93629
Magnitude (Debye)      :      2.37986

Rotational constants in cm-1:     0.813653     0.194052     0.170089
Rotational constants in MHz : 24392.716709  5817.546294  5099.149285

                             ****ORCA TERMINATED NORMALLY****
TOTAL RUN TIME: 0 days 0 hours 0 minutes 11 seconds 275 msec
