                         Program Version 5.0.3 -  RELEASE  -
|  1> ! HF-3c
|  2> !TightSCF
|  3> %scf
|  4>  ConvForced true
|  5>  convergence tight
|  6>  MaxIter 500
|  7> end
|  8>
|  9> %tddft
| 10>  nroots 1
| 11> end
| 12>
| 13> # 	15301
| 14> * xyz 0 1
| 15> 		C   -1.197846  -0.397575   0.027175
| 16> 		O   -1.222187  -1.536429   0.185100
| 17> 		C    0.037377   0.461144   0.101658
| 18> 		C    1.238113  -0.010017   0.027259
| 19> 		H   -2.119825   0.498999  -0.227613
| 20> 		H   -0.097988   1.591147   0.235170
| 21> 		H    1.117888  -1.095742  -0.189650
| 22> 		H    2.308256   0.508338  -0.112778
| 23> *
| 24>
| 25>                          ****END OF INPUT****

CARTESIAN COORDINATES (ANGSTROEM)
---------------------------------
  C     -1.197846   -0.397575    0.027175
  O     -1.222187   -1.536429    0.185100
  C      0.037377    0.461144    0.101658
  C      1.238113   -0.010017    0.027259
  H     -2.119825    0.498999   -0.227613
  H     -0.097988    1.591147    0.235170
  H      1.117888   -1.095742   -0.189650
  H      2.308256    0.508338   -0.112778

 Total Charge           Charge          ....    0
 Multiplicity           Mult            ....    1
 Number of Electrons    NEL             ....   30
 Basis Dimension        Dim             ....   24

ORBITAL ENERGIES
----------------

  NO   OCC          E(Eh)            E(eV)
   0   2.0000     -20.395418      -554.9875
   1   2.0000     -11.313140      -307.8462
   2   2.0000     -11.176113      -304.1175
   3   2.0000     -11.169715      -303.9434
   4   2.0000      -1.453718       -39.5577
   5   2.0000      -1.077682       -29.3252
   6   2.0000      -0.861414       -23.4403
   7   2.0000      -0.708983       -19.2924
   8   2.0000      -0.690623       -18.7928
   9   2.0000      -0.620052       -16.8725
  10   2.0000      -0.595136       -16.1945
  11   2.0000      -0.566628       -15.4187
  12   2.0000      -0.492447       -13.4002
  13   2.0000      -0.403624       -10.9832
  14   2.0000      -0.386999       -10.5308
  15   0.0000       0.158124         4.3028
  16   0.0000       0.325000         8.8437
  17   0.0000       0.431305        11.7364
  18   0.0000       0.528284        14.3753
  19   0.0000       0.591275        16.0894

MULLIKEN ATOMIC CHARGES
-----------------------
   0 C :    0.222618
   1 O :   -0.372992
   2 C :   -0.183277
   3 C :   -0.225094
   4 H :    0.125047
   5 H :    0.128403
   6 H :    0.148536
   7 H :    0.156758
Sum of atomic charges:    0.0000000

LOEWDIN ATOMIC CHARGES
----------------------
   0 C :    0.166350
   1 O :   -0.251543
   2 C :   -0.151662
   3 C :   -0.134908
   4 H :    0.076217
   5 H :    0.082975
   6 H :    0.099250
   7 H :    0.113320

  Mayer bond orders larger than 0.100000
B(  0-C ,  1-O ) :   1.9442 B(  0-C ,  2-C ) :   0.9824 B(  0-C ,  4-H ) :   0.8807
B(  2-C ,  3-C ) :   1.9700 B(  2-C ,  5-H ) :   0.9570 B(  3-C ,  6-H ) :   0.9525
B(  3-C ,  7-H ) :   0.9567

-----------------------------------------------------------------------------
         ABSORPTION SPECTRUM VIA TRANSITION ELECTRIC DIPOLE MOMENTS
-----------------------------------------------------------------------------
State   Energy    Wavelength  fosc         T2        TX        TY        TZ
        (cm-1)      (nm)                 (au**2)    (au)      (au)      (au)
-----------------------------------------------------------------------------
   1   37333.6    267.9   0.000111557   0.00098  -0.03063   0.00056   0.00672

Dispersion correction           -0.025865976
FINAL SINGLE POINT ENERGY      -189.265869463755

DIPOLE MOMENT
-------------
                                X             Y             Z
Electronic contribution:     -1.99667      -1.95159       0.36680
Nuclear contribution   :      2.28504       2.89396      -0.57892
                        -----------------------------------------
Total Dipole Moment    :      0.28837       0.94237      -0.21212
                        -----------------------------------------
Magnitude (a.u.)       :      1.00808
Magnitude (Debye)      :      2.56233

Rotational constants in cm-1:     0.805835     0.203630     0.163724
Rotational constants in MHz : 24158.339195  6104.676728  4908.307753

                             ****ORCA TERMINATED NORMALLY****
TOTAL RUN TIME: 0 days 0 hours 0 minutes 13 seconds 412 msec
