                         Program Version 5.0.3 -  RELEASE  -
|  1> ! HF-3c
|  2> !TightSCF
|  3> %scf
|  4>  ConvForced true
|  5>  convergence tight
|  6>  MaxIter 500
|  7> end
|  8>
|  9> %tddft
| 10>  nroots 1
| 11> end
| 12>
| 13> # 	19234
| 14> * xyz 0 1
| 15> 		C   -1.208064  -0.361604  -0.065858
| 16> 		O   -1.791411  -0.884288  -0.935097
| 17> 		C    0.020760   0.437247  -0.188117
| 18> 		C    1.217809   0.030105   0.279468
| 19> 		H   -1.534048  -0.415271   0.964320
| 20> 		H    0.024461   1.388913  -0.862077
| 21> 		H    1.227723  -0.740238   0.652766
| 22> 		H    2.069571   0.552402   0.125748
| 23> *
| 24>
| 25>                          ****END OF INPUT****

CARTESIAN COORDINATES (ANGSTROEM)
---------------------------------
  C     -1.208064   -0.361604   -0.065858
  O     -1.791411   -0.884288   -0.935097
  C      0.020760    0.437247   -0.188117
  C      1.217809    0.030105    0.279468
  H     -1.534048   -0.415271    0.964320
  H      0.024461    1.388913   -0.862077
  H      1.227723   -0.740238    0.652766
  H      2.069571    0.552402    0.125748

 Total Charge           Charge          ....    0
 Multiplicity           Mult            ....    1
 Number of Electrons    NEL             ....   30
 Basis Dimension        Dim             ....   24

ORBITAL ENERGIES
----------------

  NO   OCC          E(Eh)            E(eV)
   0   2.0000     -20.402183      -555.1716
   1   2.0000     -11.323651      -308.1322
   2   2.0000     -11.204280      -304.8840
   3   2.0000     -11.193115      -304.5801
   4   2.0000      -1.448446       -39.4142
   5   2.0000      -1.101877       -29.9836
   6   2.0000      -0.917869       -24.9765
   7   2.0000      -0.792145       -21.5554
   8   2.0000      -0.710998       -19.3472
   9   2.0000      -0.666781       -18.1440
  10   2.0000      -0.621976       -16.9248
  11   2.0000      -0.586394       -15.9566
  12   2.0000      -0.528090       -14.3701
  13   2.0000      -0.424441       -11.5496
  14   2.0000      -0.408214       -11.1081
  15   0.0000       0.156053         4.2464
  16   0.0000       0.233298         6.3484
  17   0.0000       0.574073        15.6213
  18   0.0000       0.611555        16.6413
  19   0.0000       0.714926        19.4541

MULLIKEN ATOMIC CHARGES
-----------------------
   0 C :    0.176816
   1 O :   -0.340898
   2 C :   -0.117275
   3 C :   -0.310979
   4 H :    0.141170
   5 H :    0.160932
   6 H :    0.134870
   7 H :    0.155363
Sum of atomic charges:   -0.0000000

LOEWDIN ATOMIC CHARGES
----------------------
   0 C :    0.151242
   1 O :   -0.231165
   2 C :   -0.076813
   3 C :   -0.198374
   4 H :    0.072487
   5 H :    0.112407
   6 H :    0.071378
   7 H :    0.098839

  Mayer bond orders larger than 0.100000
B(  0-C ,  1-O ) :   1.9468 B(  0-C ,  2-C ) :   0.9937 B(  0-C ,  4-H ) :   0.9144
B(  2-C ,  3-C ) :   1.9818 B(  2-C ,  5-H ) :   0.9458 B(  3-C ,  6-H ) :   0.9731
B(  3-C ,  7-H ) :   0.9646

-----------------------------------------------------------------------------
         ABSORPTION SPECTRUM VIA TRANSITION ELECTRIC DIPOLE MOMENTS
-----------------------------------------------------------------------------
State   Energy    Wavelength  fosc         T2        TX        TY        TZ
        (cm-1)      (nm)                 (au**2)    (au)      (au)      (au)
-----------------------------------------------------------------------------
   1   36253.7    275.8   0.000059232   0.00054   0.01776   0.01433   0.00415

Dispersion correction           -0.025660829
FINAL SINGLE POINT ENERGY      -189.240501195573

DIPOLE MOMENT
-------------
                                X             Y             Z
Electronic contribution:     -2.97206      -0.99848      -1.21961
Nuclear contribution   :      3.43098       1.53629       1.73759
                        -----------------------------------------
Total Dipole Moment    :      0.45891       0.53781       0.51798
                        -----------------------------------------
Magnitude (a.u.)       :      0.87644
Magnitude (Debye)      :      2.22773

Rotational constants in cm-1:     1.226059     0.160170     0.156669
Rotational constants in MHz : 36756.329622  4801.782938  4696.811620

                             ****ORCA TERMINATED NORMALLY****
TOTAL RUN TIME: 0 days 0 hours 0 minutes 13 seconds 36 msec
