                         Program Version 5.0.3 -  RELEASE  -
|  1> ! HF-3c
|  2> !TightSCF
|  3> %scf
|  4>  ConvForced true
|  5>  convergence tight
|  6>  MaxIter 500
|  7> end
|  8>
|  9> %tddft
| 10>  nroots 1
| 11> end
| 12>
| 13> # 	8763
| 14> * xyz 0 1
| 15> 		C   -1.158608  -0.337429  -0.038216
| 16> 		O   -1.205627  -1.452824  -0.261887
| 17> 		C   -0.006910   0.539469  -0.093365
| 18> 		C    1.209222  -0.010879   0.018363
| 19> 		H   -2.138698   0.261544   0.292812
| 20> 		H   -0.074337   1.611178  -0.084043
| 21> 		H    1.313538  -1.166050   0.301190
| 22> 		H    2.122962   0.530187  -0.103345
| 23> *
| 24>
| 25>                          ****END OF INPUT****

CARTESIAN COORDINATES (ANGSTROEM)
---------------------------------
  C     -1.158608   -0.337429   -0.038216
  O     -1.205627   -1.452824   -0.261887
  C     -0.006910    0.539469   -0.093365
  C      1.209222   -0.010879    0.018363
  H     -2.138698    0.261544    0.292812
  H     -0.074337    1.611178   -0.084043
  H      1.313538   -1.166050    0.301190
  H      2.122962    0.530187   -0.103345

 Total Charge           Charge          ....    0
 Multiplicity           Mult            ....    1
 Number of Electrons    NEL             ....   30
 Basis Dimension        Dim             ....   24

ORBITAL ENERGIES
----------------

  NO   OCC          E(Eh)            E(eV)
   0   2.0000     -20.384074      -554.6789
   1   2.0000     -11.312497      -307.8287
   2   2.0000     -11.190656      -304.5132
   3   2.0000     -11.180772      -304.2443
   4   2.0000      -1.456529       -39.6342
   5   2.0000      -1.080788       -29.4097
   6   2.0000      -0.880212       -23.9518
   7   2.0000      -0.732823       -19.9411
   8   2.0000      -0.714482       -19.4420
   9   2.0000      -0.620407       -16.8821
  10   2.0000      -0.609362       -16.5816
  11   2.0000      -0.565810       -15.3965
  12   2.0000      -0.526015       -14.3136
  13   2.0000      -0.403518       -10.9803
  14   2.0000      -0.388279       -10.5656
  15   0.0000       0.143573         3.9068
  16   0.0000       0.322422         8.7736
  17   0.0000       0.525410        14.2971
  18   0.0000       0.578559        15.7434
  19   0.0000       0.637477        17.3466

MULLIKEN ATOMIC CHARGES
-----------------------
   0 C :    0.205803
   1 O :   -0.374138
   2 C :   -0.199620
   3 C :   -0.193004
   4 H :    0.115165
   5 H :    0.147667
   6 H :    0.157130
   7 H :    0.140997
Sum of atomic charges:    0.0000000

LOEWDIN ATOMIC CHARGES
----------------------
   0 C :    0.159071
   1 O :   -0.253467
   2 C :   -0.159797
   3 C :   -0.098488
   4 H :    0.057546
   5 H :    0.094978
   6 H :    0.111321
   7 H :    0.088836

  Mayer bond orders larger than 0.100000
B(  0-C ,  1-O ) :   1.9159 B(  0-C ,  2-C ) :   1.0198 B(  0-C ,  4-H ) :   0.9012
B(  2-C ,  3-C ) :   1.9374 B(  2-C ,  5-H ) :   0.9583 B(  3-C ,  6-H ) :   0.9571
B(  3-C ,  7-H ) :   0.9668

-----------------------------------------------------------------------------
         ABSORPTION SPECTRUM VIA TRANSITION ELECTRIC DIPOLE MOMENTS
-----------------------------------------------------------------------------
State   Energy    Wavelength  fosc         T2        TX        TY        TZ
        (cm-1)      (nm)                 (au**2)    (au)      (au)      (au)
-----------------------------------------------------------------------------
   1   36788.9    271.8   0.000331164   0.00296   0.05247  -0.00514   0.01358

Dispersion correction           -0.025917145
FINAL SINGLE POINT ENERGY      -189.297721643333

DIPOLE MOMENT
-------------
                                X             Y             Z
Electronic contribution:     -1.87374      -1.63318      -0.46765
Nuclear contribution   :      2.30805       2.46281       0.72300
                        -----------------------------------------
Total Dipole Moment    :      0.43432       0.82962       0.25536
                        -----------------------------------------
Magnitude (a.u.)       :      0.97063
Magnitude (Debye)      :      2.46713

Rotational constants in cm-1:     0.789694     0.214490     0.170672
Rotational constants in MHz : 23674.441838  6430.260483  5116.614091

                             ****ORCA TERMINATED NORMALLY****
TOTAL RUN TIME: 0 days 0 hours 0 minutes 10 seconds 918 msec
