                         Program Version 5.0.3 -  RELEASE  -
|  1> ! HF-3c
|  2> !TightSCF
|  3> %scf
|  4>  ConvForced true
|  5>  convergence tight
|  6>  MaxIter 500
|  7> end
|  8>
|  9> %tddft
| 10>  nroots 1
| 11> end
| 12>
| 13> # 	11605
| 14> * xyz 0 1
| 15> 		C   -1.238168  -0.338396   0.047005
| 16> 		O   -1.332953  -1.316274   0.643651
| 17> 		C    0.044858   0.501116   0.075336
| 18> 		C    1.222182  -0.020831  -0.158211
| 19> 		H   -1.986089  -0.001866  -0.734299
| 20> 		H   -0.054629   1.546170   0.603078
| 21> 		H    1.353592  -1.075698  -0.315752
| 22> 		H    2.016165   0.688008  -0.136547
| 23> *
| 24>
| 25>                          ****END OF INPUT****

CARTESIAN COORDINATES (ANGSTROEM)
---------------------------------
  C     -1.238168   -0.338396    0.047005
  O     -1.332953   -1.316274    0.643651
  C      0.044858    0.501116    0.075336
  C      1.222182   -0.020831   -0.158211
  H     -1.986089   -0.001866   -0.734299
  H     -0.054629    1.546170    0.603078
  H      1.353592   -1.075698   -0.315752
  H      2.016165    0.688008   -0.136547

 Total Charge           Charge          ....    0
 Multiplicity           Mult            ....    1
 Number of Electrons    NEL             ....   30
 Basis Dimension        Dim             ....   24

ORBITAL ENERGIES
----------------

  NO   OCC          E(Eh)            E(eV)
   0   2.0000     -20.395545      -554.9910
   1   2.0000     -11.313834      -307.8651
   2   2.0000     -11.179610      -304.2127
   3   2.0000     -11.175307      -304.0956
   4   2.0000      -1.456108       -39.6227
   5   2.0000      -1.074254       -29.2319
   6   2.0000      -0.874164       -23.7872
   7   2.0000      -0.749383       -20.3918
   8   2.0000      -0.696030       -18.9399
   9   2.0000      -0.631495       -17.1839
  10   2.0000      -0.613478       -16.6936
  11   2.0000      -0.560913       -15.2632
  12   2.0000      -0.525248       -14.2927
  13   2.0000      -0.410804       -11.1785
  14   2.0000      -0.392031       -10.6677
  15   0.0000       0.187183         5.0935
  16   0.0000       0.248606         6.7649
  17   0.0000       0.546822        14.8798
  18   0.0000       0.576014        15.6741
  19   0.0000       0.662645        18.0315

MULLIKEN ATOMIC CHARGES
-----------------------
   0 C :    0.191908
   1 O :   -0.357112
   2 C :   -0.148933
   3 C :   -0.262978
   4 H :    0.135290
   5 H :    0.145852
   6 H :    0.151603
   7 H :    0.144370
Sum of atomic charges:   -0.0000000

LOEWDIN ATOMIC CHARGES
----------------------
   0 C :    0.152605
   1 O :   -0.237685
   2 C :   -0.115043
   3 C :   -0.165951
   4 H :    0.072109
   5 H :    0.101287
   6 H :    0.099319
   7 H :    0.093359

  Mayer bond orders larger than 0.100000
B(  0-C ,  1-O ) :   1.9562 B(  0-C ,  2-C ) :   0.9640 B(  0-C ,  4-H ) :   0.9089
B(  2-C ,  3-C ) :   2.0011 B(  2-C ,  5-H ) :   0.9507 B(  3-C ,  6-H ) :   0.9612
B(  3-C ,  7-H ) :   0.9622

-----------------------------------------------------------------------------
         ABSORPTION SPECTRUM VIA TRANSITION ELECTRIC DIPOLE MOMENTS
-----------------------------------------------------------------------------
State   Energy    Wavelength  fosc         T2        TX        TY        TZ
        (cm-1)      (nm)                 (au**2)    (au)      (au)      (au)
-----------------------------------------------------------------------------
   1   37739.2    265.0   0.000420354   0.00367   0.06024  -0.00591  -0.00181

Dispersion correction           -0.025353396
FINAL SINGLE POINT ENERGY      -189.296856856154

DIPOLE MOMENT
-------------
                                X             Y             Z
Electronic contribution:     -2.35234      -1.51287       0.75276
Nuclear contribution   :      2.54693       2.28794      -1.16146
                        -----------------------------------------
Total Dipole Moment    :      0.19459       0.77506      -0.40870
                        -----------------------------------------
Magnitude (a.u.)       :      0.89757
Magnitude (Debye)      :      2.28143

Rotational constants in cm-1:     0.843321     0.192096     0.166047
Rotational constants in MHz : 25282.115777  5758.891246  4977.952728

                             ****ORCA TERMINATED NORMALLY****
TOTAL RUN TIME: 0 days 0 hours 0 minutes 9 seconds 877 msec
