                         Program Version 5.0.3 -  RELEASE  -
|  1> ! HF-3c
|  2> !TightSCF
|  3> %scf
|  4>  ConvForced true
|  5>  convergence tight
|  6>  MaxIter 500
|  7> end
|  8>
|  9> %tddft
| 10>  nroots 1
| 11> end
| 12>
| 13> # 	6226
| 14> * xyz 0 1
| 15> 		C   -1.179453  -0.342157   0.061831
| 16> 		O   -1.367813  -1.533746   0.388192
| 17> 		C    0.009848   0.511122   0.096010
| 18> 		C    1.243775   0.068154  -0.033374
| 19> 		H   -2.091061   0.149021  -0.464887
| 20> 		H   -0.268172   1.489646   0.114046
| 21> 		H    1.480101  -1.013578  -0.180381
| 22> 		H    2.201229   0.701845  -0.014985
| 23> *
| 24>
| 25>                          ****END OF INPUT****

CARTESIAN COORDINATES (ANGSTROEM)
---------------------------------
  C     -1.179453   -0.342157    0.061831
  O     -1.367813   -1.533746    0.388192
  C      0.009848    0.511122    0.096010
  C      1.243775    0.068154   -0.033374
  H     -2.091061    0.149021   -0.464887
  H     -0.268172    1.489646    0.114046
  H      1.480101   -1.013578   -0.180381
  H      2.201229    0.701845   -0.014985

 Total Charge           Charge          ....    0
 Multiplicity           Mult            ....    1
 Number of Electrons    NEL             ....   30
 Basis Dimension        Dim             ....   24

ORBITAL ENERGIES
----------------

  NO   OCC          E(Eh)            E(eV)
   0   2.0000     -20.350810      -553.7737
   1   2.0000     -11.282187      -307.0039
   2   2.0000     -11.202530      -304.8363
   3   2.0000     -11.199461      -304.7528
   4   2.0000      -1.366839       -37.1936
   5   2.0000      -1.090294       -29.6684
   6   2.0000      -0.894899       -24.3514
   7   2.0000      -0.746273       -20.3071
   8   2.0000      -0.691227       -18.8093
   9   2.0000      -0.626025       -17.0350
  10   2.0000      -0.587048       -15.9744
  11   2.0000      -0.529041       -14.3959
  12   2.0000      -0.511188       -13.9101
  13   2.0000      -0.410856       -11.1799
  14   2.0000      -0.395522       -10.7627
  15   0.0000       0.131797         3.5864
  16   0.0000       0.291012         7.9188
  17   0.0000       0.509530        13.8650
  18   0.0000       0.615512        16.7489
  19   0.0000       0.639989        17.4150

MULLIKEN ATOMIC CHARGES
-----------------------
   0 C :    0.163820
   1 O :   -0.347842
   2 C :   -0.203772
   3 C :   -0.194413
   4 H :    0.129463
   5 H :    0.147928
   6 H :    0.154270
   7 H :    0.150546
Sum of atomic charges:    0.0000000

LOEWDIN ATOMIC CHARGES
----------------------
   0 C :    0.148662
   1 O :   -0.265448
   2 C :   -0.150127
   3 C :   -0.101140
   4 H :    0.072636
   5 H :    0.089960
   6 H :    0.102608
   7 H :    0.102849

  Mayer bond orders larger than 0.100000
B(  0-C ,  1-O ) :   1.9074 B(  0-C ,  2-C ) :   1.0309 B(  0-C ,  4-H ) :   0.9244
B(  2-C ,  3-C ) :   1.9471 B(  2-C ,  5-H ) :   0.9552 B(  3-C ,  6-H ) :   0.9595
B(  3-C ,  7-H ) :   0.9602

-----------------------------------------------------------------------------
         ABSORPTION SPECTRUM VIA TRANSITION ELECTRIC DIPOLE MOMENTS
-----------------------------------------------------------------------------
State   Energy    Wavelength  fosc         T2        TX        TY        TZ
        (cm-1)      (nm)                 (au**2)    (au)      (au)      (au)
-----------------------------------------------------------------------------
   1   30400.8    328.9   0.000133414   0.00144   0.03491  -0.00098  -0.01499

Dispersion correction           -0.025121711
FINAL SINGLE POINT ENERGY      -189.338059317203

DIPOLE MOMENT
-------------
                                X             Y             Z
Electronic contribution:     -1.99600      -1.68026       0.64731
Nuclear contribution   :      2.54129       2.58992      -0.98752
                        -----------------------------------------
Total Dipole Moment    :      0.54528       0.90966      -0.34021
                        -----------------------------------------
Magnitude (a.u.)       :      1.11381
Magnitude (Debye)      :      2.83107

Rotational constants in cm-1:     0.844964     0.184554     0.153742
Rotational constants in MHz : 25331.394168  5532.799219  4609.055327

                             ****ORCA TERMINATED NORMALLY****
TOTAL RUN TIME: 0 days 0 hours 0 minutes 11 seconds 206 msec
