                         Program Version 5.0.3 -  RELEASE  -
|  1> ! HF-3c
|  2> !TightSCF
|  3> %scf
|  4>  ConvForced true
|  5>  convergence tight
|  6>  MaxIter 500
|  7> end
|  8>
|  9> %tddft
| 10>  nroots 1
| 11> end
| 12>
| 13> # 	11
| 14> * xyz 0 1
| 15> 		C   -1.154469  -0.394740  -0.023388
| 16> 		O   -1.529332  -1.384864  -0.699236
| 17> 		C    0.068820   0.414707  -0.158823
| 18> 		C    1.253840   0.093211   0.182557
| 19> 		H   -1.950137  -0.030636   0.823618
| 20> 		H   -0.129698   1.436542  -0.584304
| 21> 		H    1.402998  -0.926413   0.539808
| 22> 		H    2.118985   0.785894  -0.078973
| 23> *
| 24>
| 25>                          ****END OF INPUT****

CARTESIAN COORDINATES (ANGSTROEM)
---------------------------------
  C     -1.154469   -0.394740   -0.023388
  O     -1.529332   -1.384864   -0.699236
  C      0.068820    0.414707   -0.158823
  C      1.253840    0.093211    0.182557
  H     -1.950137   -0.030636    0.823618
  H     -0.129698    1.436542   -0.584304
  H      1.402998   -0.926413    0.539808
  H      2.118985    0.785894   -0.078973

 Total Charge           Charge          ....    0
 Multiplicity           Mult            ....    1
 Number of Electrons    NEL             ....   30
 Basis Dimension        Dim             ....   24

ORBITAL ENERGIES
----------------

  NO   OCC          E(Eh)            E(eV)
   0   2.0000     -20.357887      -553.9663
   1   2.0000     -11.286167      -307.1122
   2   2.0000     -11.199050      -304.7417
   3   2.0000     -11.188196      -304.4463
   4   2.0000      -1.367580       -37.2137
   5   2.0000      -1.098183       -29.8831
   6   2.0000      -0.883499       -24.0412
   7   2.0000      -0.734603       -19.9896
   8   2.0000      -0.679816       -18.4987
   9   2.0000      -0.621722       -16.9179
  10   2.0000      -0.596357       -16.2277
  11   2.0000      -0.533332       -14.5127
  12   2.0000      -0.479219       -13.0402
  13   2.0000      -0.425564       -11.5802
  14   2.0000      -0.399243       -10.8640
  15   0.0000       0.170668         4.6441
  16   0.0000       0.240043         6.5319
  17   0.0000       0.508115        13.8265
  18   0.0000       0.584807        15.9134
  19   0.0000       0.618494        16.8301

MULLIKEN ATOMIC CHARGES
-----------------------
   0 C :    0.167439
   1 O :   -0.341422
   2 C :   -0.174846
   3 C :   -0.240154
   4 H :    0.135059
   5 H :    0.152214
   6 H :    0.148556
   7 H :    0.153154
Sum of atomic charges:    0.0000000

LOEWDIN ATOMIC CHARGES
----------------------
   0 C :    0.150117
   1 O :   -0.259901
   2 C :   -0.126377
   3 C :   -0.151852
   4 H :    0.082367
   5 H :    0.102515
   6 H :    0.097436
   7 H :    0.105694

  Mayer bond orders larger than 0.100000
B(  0-C ,  1-O ) :   1.9390 B(  0-C ,  2-C ) :   1.0040 B(  0-C ,  4-H ) :   0.9121
B(  2-C ,  3-C ) :   1.9964 B(  2-C ,  5-H ) :   0.9394 B(  3-C ,  6-H ) :   0.9591
B(  3-C ,  7-H ) :   0.9565

-----------------------------------------------------------------------------
         ABSORPTION SPECTRUM VIA TRANSITION ELECTRIC DIPOLE MOMENTS
-----------------------------------------------------------------------------
State   Energy    Wavelength  fosc         T2        TX        TY        TZ
        (cm-1)      (nm)                 (au**2)    (au)      (au)      (au)
-----------------------------------------------------------------------------
   1   31889.9    313.6   0.000178090   0.00184  -0.04213  -0.00408  -0.00685

Dispersion correction           -0.024943996
FINAL SINGLE POINT ENERGY      -189.322084274177

DIPOLE MOMENT
-------------
                                X             Y             Z
Electronic contribution:     -2.28327      -1.62675      -0.85602
Nuclear contribution   :      2.74116       2.47852       1.35059
                        -----------------------------------------
Total Dipole Moment    :      0.45790       0.85177       0.49457
                        -----------------------------------------
Magnitude (a.u.)       :      1.08618
Magnitude (Debye)      :      2.76085

Rotational constants in cm-1:     0.987928     0.166536     0.152916
Rotational constants in MHz : 29617.337788  4992.612534  4584.313214

                             ****ORCA TERMINATED NORMALLY****
TOTAL RUN TIME: 0 days 0 hours 0 minutes 11 seconds 524 msec
