                         Program Version 5.0.3 -  RELEASE  -
|  1> ! B3LYP cc-pVDZ
|  2> !TightSCF
|  3> %scf
|  4>  ConvForced true
|  5>  convergence tight
|  6>  MaxIter 500
|  7> end
|  8>
|  9> %tddft
| 10>  nroots 1
| 11> end
| 12>
| 13> # 	18392
| 14> * xyz 0 1
| 15> 		C   -1.247268  -0.294456  -0.061885
| 16> 		O   -1.928356  -0.701323  -0.904638
| 17> 		C    0.000176   0.512049  -0.243368
| 18> 		C    1.154155   0.036388   0.163089
| 19> 		H   -1.350423  -0.643771   1.063876
| 20> 		H   -0.041321   1.438782  -0.815394
| 21> 		H    1.334822  -0.771253   0.716055
| 22> 		H    2.074138   0.502752   0.137758
| 23> *
| 24>
| 25>                          ****END OF INPUT****

CARTESIAN COORDINATES (ANGSTROEM)
---------------------------------
  C     -1.247268   -0.294456   -0.061885
  O     -1.928356   -0.701323   -0.904638
  C      0.000176    0.512049   -0.243368
  C      1.154155    0.036388    0.163089
  H     -1.350423   -0.643771    1.063876
  H     -0.041321    1.438782   -0.815394
  H      1.334822   -0.771253    0.716055
  H      2.074138    0.502752    0.137758

 Total Charge           Charge          ....    0
 Multiplicity           Mult            ....    1
 Number of Electrons    NEL             ....   30
 Basis Dimension        Dim             ....   76

ORBITAL ENERGIES
----------------

  NO   OCC          E(Eh)            E(eV)
   0   2.0000     -19.148622      -521.0605
   1   2.0000     -10.282703      -279.8066
   2   2.0000     -10.204809      -277.6870
   3   2.0000     -10.191098      -277.3139
   4   2.0000      -1.084396       -29.5079
   5   2.0000      -0.803784       -21.8721
   6   2.0000      -0.654092       -17.7987
   7   2.0000      -0.567050       -15.4302
   8   2.0000      -0.486739       -13.2448
   9   2.0000      -0.480524       -13.0757
  10   2.0000      -0.449799       -12.2397
  11   2.0000      -0.404617       -11.0102
  12   2.0000      -0.385696       -10.4953
  13   2.0000      -0.292199        -7.9511
  14   2.0000      -0.255867        -6.9625
  15   0.0000      -0.043961        -1.1962
  16   0.0000       0.022088         0.6010
  17   0.0000       0.086271         2.3476
  18   0.0000       0.092095         2.5060
  19   0.0000       0.116026         3.1572

MULLIKEN ATOMIC CHARGES
-----------------------
   0 C :    0.147092
   1 O :   -0.128277
   2 C :   -0.086853
   3 C :    0.108260
   4 H :   -0.028346
   5 H :    0.008826
   6 H :   -0.023845
   7 H :    0.003143
Sum of atomic charges:   -0.0000000

LOEWDIN ATOMIC CHARGES
----------------------
   0 C :   -0.062942
   1 O :    0.064100
   2 C :   -0.050324
   3 C :    0.001292
   4 H :   -0.013290
   5 H :    0.034677
   6 H :    0.004585
   7 H :    0.021902

  Mayer bond orders larger than 0.100000
B(  0-C ,  1-O ) :   2.2779 B(  0-C ,  2-C ) :   0.9826 B(  0-C ,  4-H ) :   0.8884
B(  2-C ,  3-C ) :   2.0244 B(  2-C ,  5-H ) :   0.9379 B(  3-C ,  6-H ) :   0.9523
B(  3-C ,  7-H ) :   0.9504

-----------------------------------------------------------------------------
         ABSORPTION SPECTRUM VIA TRANSITION ELECTRIC DIPOLE MOMENTS
-----------------------------------------------------------------------------
State   Energy    Wavelength  fosc         T2        TX        TY        TZ
        (cm-1)      (nm)                 (au**2)    (au)      (au)      (au)
-----------------------------------------------------------------------------
   1   33516.7    298.4   0.000349805   0.00344   0.01522  -0.02199   0.05216

FINAL SINGLE POINT ENERGY      -191.625405392329

DIPOLE MOMENT
-------------
                                X             Y             Z
Electronic contribution:     -3.16624      -0.63776      -1.55469
Nuclear contribution   :      3.87559       0.99694       2.03345
                        -----------------------------------------
Total Dipole Moment    :      0.70935       0.35918       0.47876
                        -----------------------------------------
Magnitude (a.u.)       :      0.92812
Magnitude (Debye)      :      2.35910

Rotational constants in cm-1:     1.227196     0.162115     0.155611
Rotational constants in MHz : 36790.413984  4860.086759  4665.112371

                             ****ORCA TERMINATED NORMALLY****
TOTAL RUN TIME: 0 days 0 hours 3 minutes 16 seconds 464 msec
