                         Program Version 5.0.3 -  RELEASE  -
|  1> ! HF-3c
|  2> !TightSCF
|  3> %scf
|  4>  ConvForced true
|  5>  convergence tight
|  6>  MaxIter 500
|  7> end
|  8>
|  9> %tddft
| 10>  nroots 1
| 11> end
| 12>
| 13> # 	20658
| 14> * xyz 0 1
| 15> 		C   -0.593598  -0.414737   0.060427
| 16> 		O   -0.584399  -1.675520  -0.029446
| 17> 		C    0.637991   0.406825  -0.067798
| 18> 		C    1.853539  -0.090461  -0.000329
| 19> 		H   -1.612324   0.120566   0.161182
| 20> 		H    0.484981   1.623350   0.015375
| 21> 		H    1.877710  -1.184355   0.222718
| 22> 		H    2.881215   0.458014   0.162934
| 23> *
| 24>
| 25>                          ****END OF INPUT****

CARTESIAN COORDINATES (ANGSTROEM)
---------------------------------
  C     -0.593598   -0.414737    0.060427
  O     -0.584399   -1.675520   -0.029446
  C      0.637991    0.406825   -0.067798
  C      1.853539   -0.090461   -0.000329
  H     -1.612324    0.120566    0.161182
  H      0.484981    1.623350    0.015375
  H      1.877710   -1.184355    0.222718
  H      2.881215    0.458014    0.162934

 Total Charge           Charge          ....    0
 Multiplicity           Mult            ....    1
 Number of Electrons    NEL             ....   30
 Basis Dimension        Dim             ....   24

ORBITAL ENERGIES
----------------

  NO   OCC          E(Eh)            E(eV)
   0   2.0000     -20.344260      -553.5954
   1   2.0000     -11.281236      -306.9780
   2   2.0000     -11.185157      -304.3636
   3   2.0000     -11.184012      -304.3324
   4   2.0000      -1.359178       -36.9851
   5   2.0000      -1.068458       -29.0742
   6   2.0000      -0.874153       -23.7869
   7   2.0000      -0.720076       -19.5943
   8   2.0000      -0.673941       -18.3389
   9   2.0000      -0.598649       -16.2901
  10   2.0000      -0.572063       -15.5666
  11   2.0000      -0.516711       -14.0604
  12   2.0000      -0.487550       -13.2669
  13   2.0000      -0.410675       -11.1750
  14   2.0000      -0.386126       -10.5070
  15   0.0000       0.128703         3.5022
  16   0.0000       0.306729         8.3465
  17   0.0000       0.462699        12.5907
  18   0.0000       0.548439        14.9238
  19   0.0000       0.614267        16.7151

MULLIKEN ATOMIC CHARGES
-----------------------
   0 C :    0.150053
   1 O :   -0.350729
   2 C :   -0.169450
   3 C :   -0.215329
   4 H :    0.141371
   5 H :    0.138406
   6 H :    0.153251
   7 H :    0.152426
Sum of atomic charges:    0.0000000

LOEWDIN ATOMIC CHARGES
----------------------
   0 C :    0.141045
   1 O :   -0.272297
   2 C :   -0.135652
   3 C :   -0.124448
   4 H :    0.083622
   5 H :    0.097700
   6 H :    0.102257
   7 H :    0.107773

  Mayer bond orders larger than 0.100000
B(  0-C ,  1-O ) :   1.8957 B(  0-C ,  2-C ) :   1.0341 B(  0-C ,  4-H ) :   0.9271
B(  2-C ,  3-C ) :   1.9470 B(  2-C ,  5-H ) :   0.9502 B(  3-C ,  6-H ) :   0.9538
B(  3-C ,  7-H ) :   0.9586

-----------------------------------------------------------------------------
         ABSORPTION SPECTRUM VIA TRANSITION ELECTRIC DIPOLE MOMENTS
-----------------------------------------------------------------------------
State   Energy    Wavelength  fosc         T2        TX        TY        TZ
        (cm-1)      (nm)                 (au**2)    (au)      (au)      (au)
-----------------------------------------------------------------------------
   1   30127.3    331.9   0.000094751   0.00104   0.03010   0.00456   0.01041

Dispersion correction           -0.025165540
FINAL SINGLE POINT ENERGY      -189.325830405935

DIPOLE MOMENT
-------------
                                X             Y             Z
Electronic contribution:     -1.92399      -1.72012      -0.33746
Nuclear contribution   :      2.24884       2.74176       0.52681
                        -----------------------------------------
Total Dipole Moment    :      0.32485       1.02164       0.18935
                        -----------------------------------------
Magnitude (a.u.)       :      1.08863
Magnitude (Debye)      :      2.76709

Rotational constants in cm-1:     0.739958     0.201993     0.159325
Rotational constants in MHz : 22183.383055  6055.598206  4776.457359

                             ****ORCA TERMINATED NORMALLY****
TOTAL RUN TIME: 0 days 0 hours 0 minutes 11 seconds 681 msec
