                         Program Version 5.0.3 -  RELEASE  -
|  1> ! B3LYP cc-pVDZ
|  2> !TightSCF
|  3> %scf
|  4>  ConvForced true
|  5>  convergence tight
|  6>  MaxIter 500
|  7> end
|  8>
|  9> %tddft
| 10>  nroots 1
| 11> end
| 12>
| 13> # 	18153
| 14> * xyz 0 1
| 15> 		C   -1.189010  -0.271344   0.057746
| 16> 		O   -1.897471  -0.805546   0.908397
| 17> 		C    0.001859   0.415916   0.249404
| 18> 		C    1.228024   0.046001  -0.156916
| 19> 		H   -1.276949  -0.564014  -1.041525
| 20> 		H   -0.087152   1.274228   0.917224
| 21> 		H    1.209035  -0.856190  -0.760773
| 22> 		H    2.052039   0.764290  -0.170650
| 23> *
| 24>
| 25>                          ****END OF INPUT****

CARTESIAN COORDINATES (ANGSTROEM)
---------------------------------
  C     -1.189010   -0.271344    0.057746
  O     -1.897471   -0.805546    0.908397
  C      0.001859    0.415916    0.249404
  C      1.228024    0.046001   -0.156916
  H     -1.276949   -0.564014   -1.041525
  H     -0.087152    1.274228    0.917224
  H      1.209035   -0.856190   -0.760773
  H      2.052039    0.764290   -0.170650

 Total Charge           Charge          ....    0
 Multiplicity           Mult            ....    1
 Number of Electrons    NEL             ....   30
 Basis Dimension        Dim             ....   76

ORBITAL ENERGIES
----------------

  NO   OCC          E(Eh)            E(eV)
   0   2.0000     -19.146664      -521.0072
   1   2.0000     -10.278319      -279.6873
   2   2.0000     -10.214962      -277.9632
   3   2.0000     -10.205171      -277.6968
   4   2.0000      -1.042422       -28.3657
   5   2.0000      -0.814216       -22.1559
   6   2.0000      -0.668776       -18.1983
   7   2.0000      -0.563467       -15.3327
   8   2.0000      -0.484251       -13.1771
   9   2.0000      -0.469233       -12.7685
  10   2.0000      -0.438800       -11.9404
  11   2.0000      -0.400524       -10.8988
  12   2.0000      -0.369046       -10.0422
  13   2.0000      -0.287786        -7.8311
  14   2.0000      -0.258681        -7.0391
  15   0.0000      -0.071851        -1.9552
  16   0.0000       0.015027         0.4089
  17   0.0000       0.080935         2.2024
  18   0.0000       0.083425         2.2701
  19   0.0000       0.119841         3.2610

MULLIKEN ATOMIC CHARGES
-----------------------
   0 C :    0.156663
   1 O :   -0.192628
   2 C :   -0.069241
   3 C :    0.046789
   4 H :   -0.019043
   5 H :    0.014824
   6 H :    0.018143
   7 H :    0.044493
Sum of atomic charges:   -0.0000000

LOEWDIN ATOMIC CHARGES
----------------------
   0 C :   -0.038761
   1 O :   -0.001194
   2 C :   -0.058866
   3 C :   -0.006095
   4 H :   -0.001353
   5 H :    0.039381
   6 H :    0.027338
   7 H :    0.039549

  Mayer bond orders larger than 0.100000
B(  0-C ,  1-O ) :   2.1867 B(  0-C ,  2-C ) :   1.0693 B(  0-C ,  4-H ) :   0.9055
B(  2-C ,  3-C ) :   1.9958 B(  2-C ,  5-H ) :   0.9269 B(  3-C ,  6-H ) :   0.9389
B(  3-C ,  7-H ) :   0.9375

-----------------------------------------------------------------------------
         ABSORPTION SPECTRUM VIA TRANSITION ELECTRIC DIPOLE MOMENTS
-----------------------------------------------------------------------------
State   Energy    Wavelength  fosc         T2        TX        TY        TZ
        (cm-1)      (nm)                 (au**2)    (au)      (au)      (au)
-----------------------------------------------------------------------------
   1   27860.6    358.9   0.000552167   0.00652  -0.03684   0.02609   0.06698

FINAL SINGLE POINT ENERGY      -191.654893305797

DIPOLE MOMENT
-------------
                                X             Y             Z
Electronic contribution:     -2.85742      -0.72982       1.44567
Nuclear contribution   :      3.63018       1.23854      -2.00341
                        -----------------------------------------
Total Dipole Moment    :      0.77276       0.50872      -0.55775
                        -----------------------------------------
Magnitude (a.u.)       :      1.08029
Magnitude (Debye)      :      2.74589

Rotational constants in cm-1:     1.284719     0.159640     0.155156
Rotational constants in MHz : 38514.917507  4785.889851  4651.460089

                             ****ORCA TERMINATED NORMALLY****
TOTAL RUN TIME: 0 days 0 hours 3 minutes 25 seconds 459 msec
