                         Program Version 5.0.3 -  RELEASE  -
|  1> ! B3LYP cc-pVDZ
|  2> !TightSCF
|  3> %scf
|  4>  ConvForced true
|  5>  convergence tight
|  6>  MaxIter 500
|  7> end
|  8>
|  9> %tddft
| 10>  nroots 1
| 11> end
| 12>
| 13> # 	17167
| 14> * xyz 0 1
| 15> 		C   -1.159506  -0.349334   0.015651
| 16> 		O   -1.475562  -1.320552  -0.634226
| 17> 		C   -0.005066   0.533301  -0.143518
| 18> 		C    1.262409  -0.019546   0.103334
| 19> 		H   -1.917132  -0.037623   0.791734
| 20> 		H   -0.166205   1.562574  -0.505548
| 21> 		H    1.363616  -0.980419   0.416498
| 22> 		H    2.077335   0.585703  -0.042573
| 23> *
| 24>
| 25>                          ****END OF INPUT****

CARTESIAN COORDINATES (ANGSTROEM)
---------------------------------
  C     -1.159506   -0.349334    0.015651
  O     -1.475562   -1.320552   -0.634226
  C     -0.005066    0.533301   -0.143518
  C      1.262409   -0.019546    0.103334
  H     -1.917132   -0.037623    0.791734
  H     -0.166205    1.562574   -0.505548
  H      1.363616   -0.980419    0.416498
  H      2.077335    0.585703   -0.042573

 Total Charge           Charge          ....    0
 Multiplicity           Mult            ....    1
 Number of Electrons    NEL             ....   30
 Basis Dimension        Dim             ....   76

ORBITAL ENERGIES
----------------

  NO   OCC          E(Eh)            E(eV)
   0   2.0000     -19.140675      -520.8443
   1   2.0000     -10.277191      -279.6566
   2   2.0000     -10.217376      -278.0289
   3   2.0000     -10.206003      -277.7194
   4   2.0000      -1.047733       -28.5103
   5   2.0000      -0.792181       -21.5563
   6   2.0000      -0.662809       -18.0359
   7   2.0000      -0.553351       -15.0575
   8   2.0000      -0.505301       -13.7499
   9   2.0000      -0.445278       -12.1166
  10   2.0000      -0.444845       -12.1049
  11   2.0000      -0.411002       -11.1839
  12   2.0000      -0.374918       -10.2020
  13   2.0000      -0.279098        -7.5946
  14   2.0000      -0.251801        -6.8519
  15   0.0000      -0.048587        -1.3221
  16   0.0000      -0.007201        -0.1960
  17   0.0000       0.081774         2.2252
  18   0.0000       0.102620         2.7924
  19   0.0000       0.106657         2.9023

MULLIKEN ATOMIC CHARGES
-----------------------
   0 C :    0.168743
   1 O :   -0.183047
   2 C :   -0.121603
   3 C :    0.111720
   4 H :   -0.020376
   5 H :    0.028645
   6 H :    0.004776
   7 H :    0.011142
Sum of atomic charges:   -0.0000000

LOEWDIN ATOMIC CHARGES
----------------------
   0 C :   -0.036308
   1 O :    0.003385
   2 C :   -0.047993
   3 C :    0.024377
   4 H :   -0.008292
   5 H :    0.040887
   6 H :    0.010112
   7 H :    0.013832

  Mayer bond orders larger than 0.100000
B(  0-C ,  1-O ) :   2.2249 B(  0-C ,  2-C ) :   1.0079 B(  0-C ,  4-H ) :   0.9119
B(  2-C ,  3-C ) :   1.9963 B(  2-C ,  5-H ) :   0.9410 B(  3-C ,  6-H ) :   0.9536
B(  3-C ,  7-H ) :   0.9547

-----------------------------------------------------------------------------
         ABSORPTION SPECTRUM VIA TRANSITION ELECTRIC DIPOLE MOMENTS
-----------------------------------------------------------------------------
State   Energy    Wavelength  fosc         T2        TX        TY        TZ
        (cm-1)      (nm)                 (au**2)    (au)      (au)      (au)
-----------------------------------------------------------------------------
   1   31200.7    320.5   0.000868261   0.00916   0.09394  -0.00963  -0.01559

FINAL SINGLE POINT ENERGY      -191.642778614398

DIPOLE MOMENT
-------------
                                X             Y             Z
Electronic contribution:     -2.14813      -1.48381      -0.88799
Nuclear contribution   :      2.66735       2.25133       1.26688
                        -----------------------------------------
Total Dipole Moment    :      0.51922       0.76751       0.37889
                        -----------------------------------------
Magnitude (a.u.)       :      1.00111
Magnitude (Debye)      :      2.54463

Rotational constants in cm-1:     0.845468     0.181791     0.159685
Rotational constants in MHz : 25346.489853  5449.969671  4787.234099

                             ****ORCA TERMINATED NORMALLY****
TOTAL RUN TIME: 0 days 0 hours 3 minutes 22 seconds 949 msec
