                         Program Version 5.0.3 -  RELEASE  -
|  1> ! B3LYP cc-pVDZ
|  2> !TightSCF
|  3> %scf
|  4>  ConvForced true
|  5>  convergence tight
|  6>  MaxIter 500
|  7> end
|  8>
|  9> %tddft
| 10>  nroots 1
| 11> end
| 12>
| 13> # 	5988
| 14> * xyz 0 1
| 15> 		C   -1.171188  -0.379065  -0.033668
| 16> 		O   -1.504364  -1.320290   0.685797
| 17> 		C   -0.012500   0.469511   0.217681
| 18> 		C    1.212884   0.023640  -0.147096
| 19> 		H   -1.780284  -0.064652  -0.839983
| 20> 		H   -0.093852   1.582734   0.713753
| 21> 		H    1.304105  -0.980621  -0.586405
| 22> 		H    2.112442   0.639070   0.021666
| 23> *
| 24>
| 25>                          ****END OF INPUT****

CARTESIAN COORDINATES (ANGSTROEM)
---------------------------------
  C     -1.171188   -0.379065   -0.033668
  O     -1.504364   -1.320290    0.685797
  C     -0.012500    0.469511    0.217681
  C      1.212884    0.023640   -0.147096
  H     -1.780284   -0.064652   -0.839983
  H     -0.093852    1.582734    0.713753
  H      1.304105   -0.980621   -0.586405
  H      2.112442    0.639070    0.021666

 Total Charge           Charge          ....    0
 Multiplicity           Mult            ....    1
 Number of Electrons    NEL             ....   30
 Basis Dimension        Dim             ....   76

ORBITAL ENERGIES
----------------

  NO   OCC          E(Eh)            E(eV)
   0   2.0000     -19.144652      -520.9525
   1   2.0000     -10.278285      -279.6863
   2   2.0000     -10.216988      -278.0184
   3   2.0000     -10.208988      -277.8007
   4   2.0000      -1.040360       -28.3096
   5   2.0000      -0.793709       -21.5979
   6   2.0000      -0.657181       -17.8828
   7   2.0000      -0.550789       -14.9877
   8   2.0000      -0.497156       -13.5283
   9   2.0000      -0.449538       -12.2326
  10   2.0000      -0.438507       -11.9324
  11   2.0000      -0.387410       -10.5420
  12   2.0000      -0.365836        -9.9549
  13   2.0000      -0.283931        -7.7261
  14   2.0000      -0.257678        -7.0118
  15   0.0000      -0.045128        -1.2280
  16   0.0000      -0.011465        -0.3120
  17   0.0000       0.068277         1.8579
  18   0.0000       0.091610         2.4928
  19   0.0000       0.105691         2.8760

MULLIKEN ATOMIC CHARGES
-----------------------
   0 C :    0.214039
   1 O :   -0.199236
   2 C :   -0.141990
   3 C :    0.022588
   4 H :   -0.011683
   5 H :    0.052273
   6 H :    0.029665
   7 H :    0.034343
Sum of atomic charges:   -0.0000000

LOEWDIN ATOMIC CHARGES
----------------------
   0 C :   -0.010807
   1 O :   -0.006104
   2 C :   -0.070322
   3 C :   -0.028388
   4 H :   -0.008353
   5 H :    0.061934
   6 H :    0.029713
   7 H :    0.032328

  Mayer bond orders larger than 0.100000
B(  0-C ,  1-O ) :   2.2071 B(  0-C ,  2-C ) :   0.9982 B(  0-C ,  4-H ) :   0.9259
B(  2-C ,  3-C ) :   2.0240 B(  2-C ,  5-H ) :   0.9212 B(  3-C ,  6-H ) :   0.9459
B(  3-C ,  7-H ) :   0.9464

-----------------------------------------------------------------------------
         ABSORPTION SPECTRUM VIA TRANSITION ELECTRIC DIPOLE MOMENTS
-----------------------------------------------------------------------------
State   Energy    Wavelength  fosc         T2        TX        TY        TZ
        (cm-1)      (nm)                 (au**2)    (au)      (au)      (au)
-----------------------------------------------------------------------------
   1   31323.5    319.2   0.000153568   0.00161   0.02423   0.02519   0.01981

FINAL SINGLE POINT ENERGY      -191.642776561138

DIPOLE MOMENT
-------------
                                X             Y             Z
Electronic contribution:     -2.48310      -1.56901       0.88627
Nuclear contribution   :      2.91415       2.33197      -1.35842
                        -----------------------------------------
Total Dipole Moment    :      0.43105       0.76296      -0.47215
                        -----------------------------------------
Magnitude (a.u.)       :      0.99541
Magnitude (Debye)      :      2.53013

Rotational constants in cm-1:     0.881270     0.177911     0.162131
Rotational constants in MHz : 26419.798312  5333.639899  4860.556867

                             ****ORCA TERMINATED NORMALLY****
TOTAL RUN TIME: 0 days 0 hours 3 minutes 13 seconds 940 msec
