                         Program Version 5.0.3 -  RELEASE  -
|  1> ! B3LYP cc-pVDZ
|  2> !TightSCF
|  3> %scf
|  4>  ConvForced true
|  5>  convergence tight
|  6>  MaxIter 500
|  7> end
|  8>
|  9> %tddft
| 10>  nroots 1
| 11> end
| 12>
| 13> # 	28891
| 14> * xyz 0 1
| 15> 		C   -0.541738  -0.455242   0.009566
| 16> 		O   -0.646126  -1.719123  -0.009348
| 17> 		C    0.659933   0.449612  -0.033279
| 18> 		C    1.837008  -0.060555   0.032562
| 19> 		H   -1.466912   0.301484   0.092708
| 20> 		H    0.518187   1.622102   0.080395
| 21> 		H    2.135887  -1.055407   0.035082
| 22> 		H    2.782530   0.488287  -0.173204
| 23> *
| 24>
| 25>                          ****END OF INPUT****

CARTESIAN COORDINATES (ANGSTROEM)
---------------------------------
  C     -0.541738   -0.455242    0.009566
  O     -0.646126   -1.719123   -0.009348
  C      0.659933    0.449612   -0.033279
  C      1.837008   -0.060555    0.032562
  H     -1.466912    0.301484    0.092708
  H      0.518187    1.622102    0.080395
  H      2.135887   -1.055407    0.035082
  H      2.782530    0.488287   -0.173204

 Total Charge           Charge          ....    0
 Multiplicity           Mult            ....    1
 Number of Electrons    NEL             ....   30
 Basis Dimension        Dim             ....   76

ORBITAL ENERGIES
----------------

  NO   OCC          E(Eh)            E(eV)
   0   2.0000     -19.149854      -521.0940
   1   2.0000     -10.291989      -280.0593
   2   2.0000     -10.217716      -278.0382
   3   2.0000     -10.209210      -277.8067
   4   2.0000      -1.018904       -27.7258
   5   2.0000      -0.809787       -22.0354
   6   2.0000      -0.660237       -17.9660
   7   2.0000      -0.550168       -14.9708
   8   2.0000      -0.493130       -13.4187
   9   2.0000      -0.451776       -12.2935
  10   2.0000      -0.412054       -11.2126
  11   2.0000      -0.388658       -10.5759
  12   2.0000      -0.370702       -10.0873
  13   2.0000      -0.299812        -8.1583
  14   2.0000      -0.257747        -7.0137
  15   0.0000      -0.077281        -2.1029
  16   0.0000       0.042784         1.1642
  17   0.0000       0.056841         1.5467
  18   0.0000       0.087703         2.3865
  19   0.0000       0.108615         2.9556

MULLIKEN ATOMIC CHARGES
-----------------------
   0 C :    0.184769
   1 O :   -0.221949
   2 C :   -0.148341
   3 C :    0.111713
   4 H :   -0.006836
   5 H :    0.035901
   6 H :    0.016888
   7 H :    0.027855
Sum of atomic charges:    0.0000000

LOEWDIN ATOMIC CHARGES
----------------------
   0 C :    0.002614
   1 O :   -0.050886
   2 C :   -0.097425
   3 C :    0.028935
   4 H :   -0.001574
   5 H :    0.056466
   6 H :    0.022722
   7 H :    0.039148

  Mayer bond orders larger than 0.100000
B(  0-C ,  1-O ) :   2.1498 B(  0-C ,  2-C ) :   1.0391 B(  0-C ,  4-H ) :   0.8956
B(  2-C ,  3-C ) :   1.9677 B(  2-C ,  5-H ) :   0.9293 B(  3-C ,  6-H ) :   0.9483
B(  3-C ,  7-H ) :   0.9438

-----------------------------------------------------------------------------
         ABSORPTION SPECTRUM VIA TRANSITION ELECTRIC DIPOLE MOMENTS
-----------------------------------------------------------------------------
State   Energy    Wavelength  fosc         T2        TX        TY        TZ
        (cm-1)      (nm)                 (au**2)    (au)      (au)      (au)
-----------------------------------------------------------------------------
   1   26596.3    376.0   0.000272732   0.00338  -0.03893  -0.01563  -0.04020

FINAL SINGLE POINT ENERGY      -191.656452486481

DIPOLE MOMENT
-------------
                                X             Y             Z
Electronic contribution:     -1.94877      -2.11157      -0.02008
Nuclear contribution   :      2.56237       3.05700       0.03322
                        -----------------------------------------
Total Dipole Moment    :      0.61360       0.94543       0.01314
                        -----------------------------------------
Magnitude (a.u.)       :      1.12717
Magnitude (Debye)      :      2.86503

Rotational constants in cm-1:     0.768686     0.193324     0.154687
Rotational constants in MHz : 23044.639484  5795.701847  4637.393557

                             ****ORCA TERMINATED NORMALLY****
TOTAL RUN TIME: 0 days 0 hours 3 minutes 23 seconds 376 msec
