                         Program Version 5.0.3 -  RELEASE  -
|  1> ! HF-3c
|  2> !TightSCF
|  3> %scf
|  4>  ConvForced true
|  5>  convergence tight
|  6>  MaxIter 500
|  7> end
|  8>
|  9> %tddft
| 10>  nroots 1
| 11> end
| 12>
| 13> # 	8608
| 14> * xyz 0 1
| 15> 		C   -1.225339  -0.364811  -0.033324
| 16> 		O   -1.426634  -1.380719   0.616880
| 17> 		C   -0.038600   0.480231   0.199036
| 18> 		C    1.167306   0.074596  -0.118789
| 19> 		H   -1.876449  -0.016717  -0.746589
| 20> 		H   -0.159698   1.545109   0.422382
| 21> 		H    1.357176  -0.939034  -0.309314
| 22> 		H    2.146453   0.609674  -0.099791
| 23> *
| 24>
| 25>                          ****END OF INPUT****

CARTESIAN COORDINATES (ANGSTROEM)
---------------------------------
  C     -1.225339   -0.364811   -0.033324
  O     -1.426634   -1.380719    0.616880
  C     -0.038600    0.480231    0.199036
  C      1.167306    0.074596   -0.118789
  H     -1.876449   -0.016717   -0.746589
  H     -0.159698    1.545109    0.422382
  H      1.357176   -0.939034   -0.309314
  H      2.146453    0.609674   -0.099791

 Total Charge           Charge          ....    0
 Multiplicity           Mult            ....    1
 Number of Electrons    NEL             ....   30
 Basis Dimension        Dim             ....   24

ORBITAL ENERGIES
----------------

  NO   OCC          E(Eh)            E(eV)
   0   2.0000     -20.378403      -554.5245
   1   2.0000     -11.305500      -307.6383
   2   2.0000     -11.193474      -304.5899
   3   2.0000     -11.183377      -304.3152
   4   2.0000      -1.402607       -38.1669
   5   2.0000      -1.087305       -29.5871
   6   2.0000      -0.902513       -24.5586
   7   2.0000      -0.775372       -21.0990
   8   2.0000      -0.703735       -19.1496
   9   2.0000      -0.632059       -17.1992
  10   2.0000      -0.612605       -16.6698
  11   2.0000      -0.537597       -14.6288
  12   2.0000      -0.507499       -13.8097
  13   2.0000      -0.425523       -11.5791
  14   2.0000      -0.406110       -11.0508
  15   0.0000       0.161536         4.3956
  16   0.0000       0.241397         6.5688
  17   0.0000       0.553262        15.0550
  18   0.0000       0.633450        17.2371
  19   0.0000       0.710631        19.3373

MULLIKEN ATOMIC CHARGES
-----------------------
   0 C :    0.154137
   1 O :   -0.330208
   2 C :   -0.170046
   3 C :   -0.234889
   4 H :    0.145781
   5 H :    0.150660
   6 H :    0.138437
   7 H :    0.146128
Sum of atomic charges:   -0.0000000

LOEWDIN ATOMIC CHARGES
----------------------
   0 C :    0.148269
   1 O :   -0.239650
   2 C :   -0.123862
   3 C :   -0.140424
   4 H :    0.074738
   5 H :    0.098858
   6 H :    0.084941
   7 H :    0.097130

  Mayer bond orders larger than 0.100000
B(  0-C ,  1-O ) :   1.9369 B(  0-C ,  2-C ) :   1.0031 B(  0-C ,  4-H ) :   0.9285
B(  2-C ,  3-C ) :   1.9859 B(  2-C ,  5-H ) :   0.9486 B(  3-C ,  6-H ) :   0.9653
B(  3-C ,  7-H ) :   0.9627

-----------------------------------------------------------------------------
         ABSORPTION SPECTRUM VIA TRANSITION ELECTRIC DIPOLE MOMENTS
-----------------------------------------------------------------------------
State   Energy    Wavelength  fosc         T2        TX        TY        TZ
        (cm-1)      (nm)                 (au**2)    (au)      (au)      (au)
-----------------------------------------------------------------------------
   1   33142.6    301.7   0.000022646   0.00022   0.00200  -0.01112  -0.00987

Dispersion correction           -0.025519936
FINAL SINGLE POINT ENERGY      -189.325755332088

DIPOLE MOMENT
-------------
                                X             Y             Z
Electronic contribution:     -2.50675      -1.55726       0.81210
Nuclear contribution   :      2.86807       2.35435      -1.33028
                        -----------------------------------------
Total Dipole Moment    :      0.36132       0.79709      -0.51818
                        -----------------------------------------
Magnitude (a.u.)       :      1.01706
Magnitude (Debye)      :      2.58516

Rotational constants in cm-1:     0.887598     0.185695     0.163701
Rotational constants in MHz : 26609.530408  5566.984607  4907.638606

                             ****ORCA TERMINATED NORMALLY****
TOTAL RUN TIME: 0 days 0 hours 0 minutes 10 seconds 978 msec
