                         Program Version 5.0.3 -  RELEASE  -
|  1> ! B3LYP cc-pVDZ
|  2> !TightSCF
|  3> %scf
|  4>  ConvForced true
|  5>  convergence tight
|  6>  MaxIter 500
|  7> end
|  8>
|  9> %tddft
| 10>  nroots 1
| 11> end
| 12>
| 13> # 	29719
| 14> * xyz 0 1
| 15> 		C   -0.594399  -0.449596  -0.079506
| 16> 		O   -0.639624  -1.693500   0.034750
| 17> 		C    0.669794   0.399476   0.022441
| 18> 		C    1.901269  -0.033702   0.026420
| 19> 		H   -1.564217   0.186310   0.098228
| 20> 		H    0.592090   1.404680   0.108366
| 21> 		H    1.903349  -1.202268  -0.277899
| 22> 		H    2.662138   0.714613  -0.113095
| 23> *
| 24>
| 25>                          ****END OF INPUT****

CARTESIAN COORDINATES (ANGSTROEM)
---------------------------------
  C     -0.594399   -0.449596   -0.079506
  O     -0.639624   -1.693500    0.034750
  C      0.669794    0.399476    0.022441
  C      1.901269   -0.033702    0.026420
  H     -1.564217    0.186310    0.098228
  H      0.592090    1.404680    0.108366
  H      1.903349   -1.202268   -0.277899
  H      2.662138    0.714613   -0.113095

 Total Charge           Charge          ....    0
 Multiplicity           Mult            ....    1
 Number of Electrons    NEL             ....   30
 Basis Dimension        Dim             ....   76

ORBITAL ENERGIES
----------------

  NO   OCC          E(Eh)            E(eV)
   0   2.0000     -19.150024      -521.0987
   1   2.0000     -10.291207      -280.0380
   2   2.0000     -10.213537      -277.9245
   3   2.0000     -10.198050      -277.5031
   4   2.0000      -1.031300       -28.0631
   5   2.0000      -0.804670       -21.8962
   6   2.0000      -0.650438       -17.6993
   7   2.0000      -0.537912       -14.6373
   8   2.0000      -0.510815       -13.9000
   9   2.0000      -0.437710       -11.9107
  10   2.0000      -0.426106       -11.5949
  11   2.0000      -0.391113       -10.6427
  12   2.0000      -0.367955       -10.0126
  13   2.0000      -0.295781        -8.0486
  14   2.0000      -0.260962        -7.1011
  15   0.0000      -0.077795        -2.1169
  16   0.0000       0.041421         1.1271
  17   0.0000       0.064968         1.7679
  18   0.0000       0.084091         2.2882
  19   0.0000       0.115886         3.1534

MULLIKEN ATOMIC CHARGES
-----------------------
   0 C :    0.161828
   1 O :   -0.209006
   2 C :   -0.051533
   3 C :    0.035556
   4 H :    0.009309
   5 H :   -0.042353
   6 H :    0.061246
   7 H :    0.034955
Sum of atomic charges:    0.0000000

LOEWDIN ATOMIC CHARGES
----------------------
   0 C :   -0.005275
   1 O :   -0.031100
   2 C :   -0.075819
   3 C :    0.001668
   4 H :    0.007470
   5 H :    0.007630
   6 H :    0.060418
   7 H :    0.035007

  Mayer bond orders larger than 0.100000
B(  0-C ,  1-O ) :   2.1434 B(  0-C ,  2-C ) :   1.0278 B(  0-C ,  4-H ) :   0.9065
B(  2-C ,  3-C ) :   1.9837 B(  2-C ,  5-H ) :   0.9468 B(  3-C ,  6-H ) :   0.9211
B(  3-C ,  7-H ) :   0.9288

-----------------------------------------------------------------------------
         ABSORPTION SPECTRUM VIA TRANSITION ELECTRIC DIPOLE MOMENTS
-----------------------------------------------------------------------------
State   Energy    Wavelength  fosc         T2        TX        TY        TZ
        (cm-1)      (nm)                 (au**2)    (au)      (au)      (au)
-----------------------------------------------------------------------------
   1   26913.6    371.6   0.000205331   0.00251  -0.01476   0.01232   0.04628

FINAL SINGLE POINT ENERGY      -191.652203311762

DIPOLE MOMENT
-------------
                                X             Y             Z
Electronic contribution:     -1.85285      -1.83813       0.05591
Nuclear contribution   :      2.21058       2.82373      -0.17262
                        -----------------------------------------
Total Dipole Moment    :      0.35773       0.98560      -0.11671
                        -----------------------------------------
Magnitude (a.u.)       :      1.05499
Magnitude (Debye)      :      2.68156

Rotational constants in cm-1:     0.813613     0.189526     0.154343
Rotational constants in MHz : 24391.489669  5681.856776  4627.089526

                             ****ORCA TERMINATED NORMALLY****
TOTAL RUN TIME: 0 days 0 hours 3 minutes 23 seconds 235 msec
