                         Program Version 5.0.3 -  RELEASE  -
|  1> ! HF-3c
|  2> !TightSCF
|  3> %scf
|  4>  ConvForced true
|  5>  convergence tight
|  6>  MaxIter 500
|  7> end
|  8>
|  9> %tddft
| 10>  nroots 1
| 11> end
| 12>
| 13> # 	15860
| 14> * xyz 0 1
| 15> 		C   -1.258644  -0.359224   0.066884
| 16> 		O   -1.228912  -1.513379   0.026983
| 17> 		C   -0.046255   0.485400   0.028927
| 18> 		C    1.238090  -0.049486   0.082731
| 19> 		H   -2.302586   0.201819  -0.068545
| 20> 		H   -0.023305   1.597190   0.016605
| 21> 		H    1.612838  -1.049894  -0.078959
| 22> 		H    1.929960   0.681117  -0.078510
| 23> *
| 24>
| 25>                          ****END OF INPUT****

CARTESIAN COORDINATES (ANGSTROEM)
---------------------------------
  C     -1.258644   -0.359224    0.066884
  O     -1.228912   -1.513379    0.026983
  C     -0.046255    0.485400    0.028927
  C      1.238090   -0.049486    0.082731
  H     -2.302586    0.201819   -0.068545
  H     -0.023305    1.597190    0.016605
  H      1.612838   -1.049894   -0.078959
  H      1.929960    0.681117   -0.078510

 Total Charge           Charge          ....    0
 Multiplicity           Mult            ....    1
 Number of Electrons    NEL             ....   30
 Basis Dimension        Dim             ....   24

ORBITAL ENERGIES
----------------

  NO   OCC          E(Eh)            E(eV)
   0   2.0000     -20.380131      -554.5716
   1   2.0000     -11.309573      -307.7491
   2   2.0000     -11.186235      -304.3929
   3   2.0000     -11.183911      -304.3297
   4   2.0000      -1.444205       -39.2988
   5   2.0000      -1.063180       -28.9306
   6   2.0000      -0.886741       -24.1295
   7   2.0000      -0.743637       -20.2354
   8   2.0000      -0.707261       -19.2456
   9   2.0000      -0.619165       -16.8483
  10   2.0000      -0.585744       -15.9389
  11   2.0000      -0.564533       -15.3617
  12   2.0000      -0.541119       -14.7246
  13   2.0000      -0.402406       -10.9500
  14   2.0000      -0.383119       -10.4252
  15   0.0000       0.126785         3.4500
  16   0.0000       0.310241         8.4421
  17   0.0000       0.537576        14.6282
  18   0.0000       0.586794        15.9675
  19   0.0000       0.635339        17.2884

MULLIKEN ATOMIC CHARGES
-----------------------
   0 C :    0.187267
   1 O :   -0.363838
   2 C :   -0.162366
   3 C :   -0.225929
   4 H :    0.127811
   5 H :    0.144208
   6 H :    0.157717
   7 H :    0.135129
Sum of atomic charges:    0.0000000

LOEWDIN ATOMIC CHARGES
----------------------
   0 C :    0.146320
   1 O :   -0.249163
   2 C :   -0.125936
   3 C :   -0.121040
   4 H :    0.070114
   5 H :    0.094474
   6 H :    0.103413
   7 H :    0.081818

  Mayer bond orders larger than 0.100000
B(  0-C ,  1-O ) :   1.9139 B(  0-C ,  2-C ) :   1.0190 B(  0-C ,  4-H ) :   0.9073
B(  2-C ,  3-C ) :   1.9337 B(  2-C ,  5-H ) :   0.9614 B(  3-C ,  6-H ) :   0.9639
B(  3-C ,  7-H ) :   0.9707

-----------------------------------------------------------------------------
         ABSORPTION SPECTRUM VIA TRANSITION ELECTRIC DIPOLE MOMENTS
-----------------------------------------------------------------------------
State   Energy    Wavelength  fosc         T2        TX        TY        TZ
        (cm-1)      (nm)                 (au**2)    (au)      (au)      (au)
-----------------------------------------------------------------------------
   1   34532.6    289.6   0.000221188   0.00211   0.04524  -0.00073   0.00784

Dispersion correction           -0.025214402
FINAL SINGLE POINT ENERGY      -189.304033049062

DIPOLE MOMENT
-------------
                                X             Y             Z
Electronic contribution:     -2.12256      -1.85979       0.29069
Nuclear contribution   :      2.41623       2.78773      -0.35500
                        -----------------------------------------
Total Dipole Moment    :      0.29367       0.92794      -0.06431
                        -----------------------------------------
Magnitude (a.u.)       :      0.97542
Magnitude (Debye)      :      2.47933

Rotational constants in cm-1:     0.767413     0.206444     0.162912
Rotational constants in MHz : 23006.453943  6189.048940  4883.975257

                             ****ORCA TERMINATED NORMALLY****
TOTAL RUN TIME: 0 days 0 hours 0 minutes 11 seconds 460 msec
