                         Program Version 5.0.3 -  RELEASE  -
|  1> ! HF-3c
|  2> !TightSCF
|  3> %scf
|  4>  ConvForced true
|  5>  convergence tight
|  6>  MaxIter 500
|  7> end
|  8>
|  9> %tddft
| 10>  nroots 1
| 11> end
| 12>
| 13> # 	30875
| 14> * xyz 0 1
| 15> 		C   -0.539584  -0.452274   0.038699
| 16> 		O   -0.634297  -1.635868  -0.027364
| 17> 		C    0.645359   0.393376  -0.000724
| 18> 		C    1.847627  -0.087895  -0.018593
| 19> 		H   -1.474845   0.187408   0.046333
| 20> 		H    0.258584   1.436231  -0.137034
| 21> 		H    2.210079  -1.099354   0.299738
| 22> 		H    2.740077   0.476147  -0.018066
| 23> *
| 24>
| 25>                          ****END OF INPUT****

CARTESIAN COORDINATES (ANGSTROEM)
---------------------------------
  C     -0.539584   -0.452274    0.038699
  O     -0.634297   -1.635868   -0.027364
  C      0.645359    0.393376   -0.000724
  C      1.847627   -0.087895   -0.018593
  H     -1.474845    0.187408    0.046333
  H      0.258584    1.436231   -0.137034
  H      2.210079   -1.099354    0.299738
  H      2.740077    0.476147   -0.018066

 Total Charge           Charge          ....    0
 Multiplicity           Mult            ....    1
 Number of Electrons    NEL             ....   30
 Basis Dimension        Dim             ....   24

ORBITAL ENERGIES
----------------

  NO   OCC          E(Eh)            E(eV)
   0   2.0000     -20.369767      -554.2895
   1   2.0000     -11.294807      -307.3473
   2   2.0000     -11.198862      -304.7365
   3   2.0000     -11.197206      -304.6915
   4   2.0000      -1.413661       -38.4677
   5   2.0000      -1.092630       -29.7320
   6   2.0000      -0.907217       -24.6866
   7   2.0000      -0.747286       -20.3347
   8   2.0000      -0.695475       -18.9248
   9   2.0000      -0.640238       -17.4218
  10   2.0000      -0.593706       -16.1556
  11   2.0000      -0.551576       -15.0092
  12   2.0000      -0.519832       -14.1454
  13   2.0000      -0.408273       -11.1097
  14   2.0000      -0.403954       -10.9921
  15   0.0000       0.134334         3.6554
  16   0.0000       0.322230         8.7683
  17   0.0000       0.487932        13.2773
  18   0.0000       0.640458        17.4277
  19   0.0000       0.658842        17.9280

MULLIKEN ATOMIC CHARGES
-----------------------
   0 C :    0.179403
   1 O :   -0.356357
   2 C :   -0.178795
   3 C :   -0.219630
   4 H :    0.120658
   5 H :    0.150083
   6 H :    0.161853
   7 H :    0.142785
Sum of atomic charges:    0.0000000

LOEWDIN ATOMIC CHARGES
----------------------
   0 C :    0.149682
   1 O :   -0.254026
   2 C :   -0.135101
   3 C :   -0.119515
   4 H :    0.060243
   5 H :    0.099714
   6 H :    0.109745
   7 H :    0.089258

  Mayer bond orders larger than 0.100000
B(  0-C ,  1-O ) :   1.9096 B(  0-C ,  2-C ) :   1.0214 B(  0-C ,  4-H ) :   0.9203
B(  2-C ,  3-C ) :   1.9548 B(  2-C ,  5-H ) :   0.9519 B(  3-C ,  6-H ) :   0.9557
B(  3-C ,  7-H ) :   0.9629

-----------------------------------------------------------------------------
         ABSORPTION SPECTRUM VIA TRANSITION ELECTRIC DIPOLE MOMENTS
-----------------------------------------------------------------------------
State   Energy    Wavelength  fosc         T2        TX        TY        TZ
        (cm-1)      (nm)                 (au**2)    (au)      (au)      (au)
-----------------------------------------------------------------------------
   1   32944.4    303.5   0.000000289   0.00000  -0.00042   0.00145   0.00078

Dispersion correction           -0.025594161
FINAL SINGLE POINT ENERGY      -189.323528109515

DIPOLE MOMENT
-------------
                                X             Y             Z
Electronic contribution:     -1.93231      -1.79541      -0.10231
Nuclear contribution   :      2.34603       2.72388       0.17960
                        -----------------------------------------
Total Dipole Moment    :      0.41372       0.92846       0.07729
                        -----------------------------------------
Magnitude (a.u.)       :      1.01940
Magnitude (Debye)      :      2.59112

Rotational constants in cm-1:     0.811427     0.203457     0.163128
Rotational constants in MHz : 24325.979697  6099.501842  4890.463803

                             ****ORCA TERMINATED NORMALLY****
TOTAL RUN TIME: 0 days 0 hours 0 minutes 16 seconds 60 msec
