                         Program Version 5.0.3 -  RELEASE  -
|  1> ! B3LYP cc-pVDZ
|  2> !TightSCF
|  3> %scf
|  4>  ConvForced true
|  5>  convergence tight
|  6>  MaxIter 500
|  7> end
|  8>
|  9> %tddft
| 10>  nroots 1
| 11> end
| 12>
| 13> # 	11974
| 14> * xyz 0 1
| 15> 		C   -1.176957  -0.286761   0.006339
| 16> 		O   -1.868016  -0.810434  -0.821024
| 17> 		C    0.001243   0.455603  -0.307476
| 18> 		C    1.247396  -0.003388   0.175931
| 19> 		H   -1.392972  -0.395871   0.924593
| 20> 		H   -0.044220   1.286884  -0.865753
| 21> 		H    1.229996  -0.868221   0.740027
| 22> 		H    2.061126   0.616163   0.131415
| 23> *
| 24>
| 25>                          ****END OF INPUT****

CARTESIAN COORDINATES (ANGSTROEM)
---------------------------------
  C     -1.176957   -0.286761    0.006339
  O     -1.868016   -0.810434   -0.821024
  C      0.001243    0.455603   -0.307476
  C      1.247396   -0.003388    0.175931
  H     -1.392972   -0.395871    0.924593
  H     -0.044220    1.286884   -0.865753
  H      1.229996   -0.868221    0.740027
  H      2.061126    0.616163    0.131415

 Total Charge           Charge          ....    0
 Multiplicity           Mult            ....    1
 Number of Electrons    NEL             ....   30
 Basis Dimension        Dim             ....   76

ORBITAL ENERGIES
----------------

  NO   OCC          E(Eh)            E(eV)
   0   2.0000     -19.134799      -520.6843
   1   2.0000     -10.257548      -279.1221
   2   2.0000     -10.204537      -277.6796
   3   2.0000     -10.200571      -277.5716
   4   2.0000      -1.053609       -28.6702
   5   2.0000      -0.797383       -21.6979
   6   2.0000      -0.666674       -18.1411
   7   2.0000      -0.598059       -16.2740
   8   2.0000      -0.507889       -13.8204
   9   2.0000      -0.463413       -12.6101
  10   2.0000      -0.432928       -11.7806
  11   2.0000      -0.416620       -11.3368
  12   2.0000      -0.375205       -10.2099
  13   2.0000      -0.276485        -7.5235
  14   2.0000      -0.252932        -6.8826
  15   0.0000      -0.058030        -1.5791
  16   0.0000       0.007676         0.2089
  17   0.0000       0.091909         2.5010
  18   0.0000       0.105347         2.8667
  19   0.0000       0.130261         3.5446

MULLIKEN ATOMIC CHARGES
-----------------------
   0 C :    0.261476
   1 O :   -0.190140
   2 C :   -0.068224
   3 C :    0.073471
   4 H :   -0.066574
   5 H :   -0.023631
   6 H :    0.000060
   7 H :    0.013562
Sum of atomic charges:    0.0000000

LOEWDIN ATOMIC CHARGES
----------------------
   0 C :   -0.025731
   1 O :    0.023950
   2 C :   -0.011096
   3 C :    0.014069
   4 H :   -0.033957
   5 H :    0.009160
   6 H :    0.010998
   7 H :    0.012608

  Mayer bond orders larger than 0.100000
B(  0-C ,  1-O ) :   2.2184 B(  0-C ,  2-C ) :   1.0392 B(  0-C ,  4-H ) :   0.9429
B(  2-C ,  3-C ) :   1.9956 B(  2-C ,  5-H ) :   0.9538 B(  3-C ,  6-H ) :   0.9534
B(  3-C ,  7-H ) :   0.9529

-----------------------------------------------------------------------------
         ABSORPTION SPECTRUM VIA TRANSITION ELECTRIC DIPOLE MOMENTS
-----------------------------------------------------------------------------
State   Energy    Wavelength  fosc         T2        TX        TY        TZ
        (cm-1)      (nm)                 (au**2)    (au)      (au)      (au)
-----------------------------------------------------------------------------
   1   29804.9    335.5   0.001627170   0.01797   0.12540   0.00961   0.04643

FINAL SINGLE POINT ENERGY      -191.617842371816

DIPOLE MOMENT
-------------
                                X             Y             Z
Electronic contribution:     -2.87015      -0.79570      -1.17398
Nuclear contribution   :      3.53661       1.28196       1.78138
                        -----------------------------------------
Total Dipole Moment    :      0.66646       0.48626       0.60739
                        -----------------------------------------
Magnitude (a.u.)       :      1.02448
Magnitude (Debye)      :      2.60401

Rotational constants in cm-1:     1.213451     0.163539     0.157654
Rotational constants in MHz : 36378.356626  4902.767642  4726.348073

                             ****ORCA TERMINATED NORMALLY****
TOTAL RUN TIME: 0 days 0 hours 3 minutes 13 seconds 767 msec
