                         Program Version 5.0.3 -  RELEASE  -
|  1> ! B3LYP cc-pVDZ
|  2> !TightSCF
|  3> %scf
|  4>  ConvForced true
|  5>  convergence tight
|  6>  MaxIter 500
|  7> end
|  8>
|  9> %tddft
| 10>  nroots 1
| 11> end
| 12>
| 13> # 	17075
| 14> * xyz 0 1
| 15> 		C   -1.219530  -0.320468   0.010001
| 16> 		O   -2.023596  -0.669530   0.922976
| 17> 		C   -0.026325   0.446195   0.327957
| 18> 		C    1.143533   0.077743  -0.241200
| 19> 		H   -1.248198  -0.675556  -1.117642
| 20> 		H   -0.023152   1.041461   1.271148
| 21> 		H    1.241752  -0.462524  -1.152803
| 22> 		H    2.180295   0.556453   0.007802
| 23> *
| 24>
| 25>                          ****END OF INPUT****

CARTESIAN COORDINATES (ANGSTROEM)
---------------------------------
  C     -1.219530   -0.320468    0.010001
  O     -2.023596   -0.669530    0.922976
  C     -0.026325    0.446195    0.327957
  C      1.143533    0.077743   -0.241200
  H     -1.248198   -0.675556   -1.117642
  H     -0.023152    1.041461    1.271148
  H      1.241752   -0.462524   -1.152803
  H      2.180295    0.556453    0.007802

 Total Charge           Charge          ....    0
 Multiplicity           Mult            ....    1
 Number of Electrons    NEL             ....   30
 Basis Dimension        Dim             ....   76

ORBITAL ENERGIES
----------------

  NO   OCC          E(Eh)            E(eV)
   0   2.0000     -19.143274      -520.9150
   1   2.0000     -10.287898      -279.9479
   2   2.0000     -10.226333      -278.2727
   3   2.0000     -10.216638      -278.0089
   4   2.0000      -1.020012       -27.7559
   5   2.0000      -0.804326       -21.8868
   6   2.0000      -0.649566       -17.6756
   7   2.0000      -0.567369       -15.4389
   8   2.0000      -0.473761       -12.8917
   9   2.0000      -0.462551       -12.5867
  10   2.0000      -0.420919       -11.4538
  11   2.0000      -0.384602       -10.4655
  12   2.0000      -0.375775       -10.2254
  13   2.0000      -0.291327        -7.9274
  14   2.0000      -0.258781        -7.0418
  15   0.0000      -0.071481        -1.9451
  16   0.0000       0.020606         0.5607
  17   0.0000       0.066792         1.8175
  18   0.0000       0.072036         1.9602
  19   0.0000       0.112852         3.0709

MULLIKEN ATOMIC CHARGES
-----------------------
   0 C :    0.161950
   1 O :   -0.230400
   2 C :   -0.037021
   3 C :   -0.006408
   4 H :    0.004461
   5 H :    0.025899
   6 H :    0.027050
   7 H :    0.054468
Sum of atomic charges:   -0.0000000

LOEWDIN ATOMIC CHARGES
----------------------
   0 C :   -0.008842
   1 O :   -0.048384
   2 C :   -0.060330
   3 C :   -0.001489
   4 H :    0.008061
   5 H :    0.043032
   6 H :    0.019982
   7 H :    0.047969

  Mayer bond orders larger than 0.100000
B(  0-C ,  1-O ) :   2.1004 B(  0-C ,  2-C ) :   1.0806 B(  0-C ,  4-H ) :   0.9020
B(  2-C ,  3-C ) :   1.9114 B(  2-C ,  5-H ) :   0.9376 B(  3-C ,  6-H ) :   0.9520
B(  3-C ,  7-H ) :   0.9505

-----------------------------------------------------------------------------
         ABSORPTION SPECTRUM VIA TRANSITION ELECTRIC DIPOLE MOMENTS
-----------------------------------------------------------------------------
State   Energy    Wavelength  fosc         T2        TX        TY        TZ
        (cm-1)      (nm)                 (au**2)    (au)      (au)      (au)
-----------------------------------------------------------------------------
   1   28166.9    355.0   0.001130655   0.01321  -0.11233  -0.00782   0.02314

FINAL SINGLE POINT ENERGY      -191.663663890705

DIPOLE MOMENT
-------------
                                X             Y             Z
Electronic contribution:     -3.13381      -0.58843       1.29862
Nuclear contribution   :      4.10034       0.94596      -1.91980
                        -----------------------------------------
Total Dipole Moment    :      0.96653       0.35753      -0.62119
                        -----------------------------------------
Magnitude (a.u.)       :      1.20328
Magnitude (Debye)      :      3.05850

Rotational constants in cm-1:     1.250561     0.158193     0.147621
Rotational constants in MHz : 37490.880327  4742.497892  4425.567993

                             ****ORCA TERMINATED NORMALLY****
TOTAL RUN TIME: 0 days 0 hours 3 minutes 22 seconds 38 msec
