                         Program Version 5.0.3 -  RELEASE  -
|  1> ! B3LYP cc-pVDZ
|  2> !TightSCF
|  3> %scf
|  4>  ConvForced true
|  5>  convergence tight
|  6>  MaxIter 500
|  7> end
|  8>
|  9> %tddft
| 10>  nroots 1
| 11> end
| 12>
| 13> # 	12740
| 14> * xyz 0 1
| 15> 		C   -1.149438  -0.335568  -0.005550
| 16> 		O   -1.211079  -1.529842   0.024703
| 17> 		C   -0.014371   0.506570   0.005833
| 18> 		C    1.194889  -0.078025  -0.010636
| 19> 		H   -2.112466   0.127683  -0.197269
| 20> 		H   -0.032743   1.690277   0.303610
| 21> 		H    1.280512  -1.043108   0.013194
| 22> 		H    2.060830   0.622649  -0.158041
| 23> *
| 24>
| 25>                          ****END OF INPUT****

CARTESIAN COORDINATES (ANGSTROEM)
---------------------------------
  C     -1.149438   -0.335568   -0.005550
  O     -1.211079   -1.529842    0.024703
  C     -0.014371    0.506570    0.005833
  C      1.194889   -0.078025   -0.010636
  H     -2.112466    0.127683   -0.197269
  H     -0.032743    1.690277    0.303610
  H      1.280512   -1.043108    0.013194
  H      2.060830    0.622649   -0.158041

 Total Charge           Charge          ....    0
 Multiplicity           Mult            ....    1
 Number of Electrons    NEL             ....   30
 Basis Dimension        Dim             ....   76

ORBITAL ENERGIES
----------------

  NO   OCC          E(Eh)            E(eV)
   0   2.0000     -19.130915      -520.5787
   1   2.0000     -10.262817      -279.2655
   2   2.0000     -10.212499      -277.8962
   3   2.0000     -10.209853      -277.8242
   4   2.0000      -1.051430       -28.6109
   5   2.0000      -0.806750       -21.9528
   6   2.0000      -0.665920       -18.1206
   7   2.0000      -0.543702       -14.7949
   8   2.0000      -0.518119       -14.0987
   9   2.0000      -0.448254       -12.1976
  10   2.0000      -0.415716       -11.3122
  11   2.0000      -0.408471       -11.1151
  12   2.0000      -0.381934       -10.3930
  13   2.0000      -0.287669        -7.8279
  14   2.0000      -0.249548        -6.7905
  15   0.0000      -0.073578        -2.0022
  16   0.0000       0.038635         1.0513
  17   0.0000       0.075600         2.0572
  18   0.0000       0.103470         2.8156
  19   0.0000       0.121185         3.2976

MULLIKEN ATOMIC CHARGES
-----------------------
   0 C :    0.209699
   1 O :   -0.188805
   2 C :   -0.192186
   3 C :    0.159512
   4 H :   -0.042773
   5 H :    0.037231
   6 H :   -0.020559
   7 H :    0.037881
Sum of atomic charges:    0.0000000

LOEWDIN ATOMIC CHARGES
----------------------
   0 C :   -0.064135
   1 O :    0.004226
   2 C :   -0.089265
   3 C :    0.068625
   4 H :   -0.012285
   5 H :    0.057703
   6 H :   -0.009508
   7 H :    0.044639

  Mayer bond orders larger than 0.100000
B(  0-C ,  1-O ) :   2.1948 B(  0-C ,  2-C ) :   1.0750 B(  0-C ,  4-H ) :   0.9305
B(  2-C ,  3-C ) :   1.9393 B(  2-C ,  5-H ) :   0.9344 B(  3-C ,  6-H ) :   0.9402
B(  3-C ,  7-H ) :   0.9441

-----------------------------------------------------------------------------
         ABSORPTION SPECTRUM VIA TRANSITION ELECTRIC DIPOLE MOMENTS
-----------------------------------------------------------------------------
State   Energy    Wavelength  fosc         T2        TX        TY        TZ
        (cm-1)      (nm)                 (au**2)    (au)      (au)      (au)
-----------------------------------------------------------------------------
   1   26187.9    381.9   0.000133414   0.00168  -0.00914  -0.01182  -0.03813

FINAL SINGLE POINT ENERGY      -191.653077128033

DIPOLE MOMENT
-------------
                                X             Y             Z
Electronic contribution:     -1.76969      -1.88114       0.06728
Nuclear contribution   :      2.30023       2.76355      -0.05135
                        -----------------------------------------
Total Dipole Moment    :      0.53054       0.88241       0.01592
                        -----------------------------------------
Magnitude (a.u.)       :      1.02974
Magnitude (Debye)      :      2.61740

Rotational constants in cm-1:     0.788086     0.216248     0.170254
Rotational constants in MHz : 23626.211179  6482.947856  5104.099505

                             ****ORCA TERMINATED NORMALLY****
TOTAL RUN TIME: 0 days 0 hours 3 minutes 21 seconds 757 msec
