                         Program Version 5.0.3 -  RELEASE  -
|  1> ! B3LYP cc-pVDZ
|  2> !TightSCF
|  3> %scf
|  4>  ConvForced true
|  5>  convergence tight
|  6>  MaxIter 500
|  7> end
|  8>
|  9> %tddft
| 10>  nroots 1
| 11> end
| 12>
| 13> # 	21774
| 14> * xyz 0 1
| 15> 		C   -0.565033  -0.435887  -0.040449
| 16> 		O   -0.620917  -1.646523   0.023225
| 17> 		C    0.642432   0.390379  -0.003073
| 18> 		C    1.867839  -0.102750   0.020298
| 19> 		H   -1.521940   0.031195   0.014475
| 20> 		H    0.547926   1.583967   0.152035
| 21> 		H    2.074486  -1.173272  -0.208418
| 22> 		H    2.586756   0.709260  -0.042456
| 23> *
| 24>
| 25>                          ****END OF INPUT****

CARTESIAN COORDINATES (ANGSTROEM)
---------------------------------
  C     -0.565033   -0.435887   -0.040449
  O     -0.620917   -1.646523    0.023225
  C      0.642432    0.390379   -0.003073
  C      1.867839   -0.102750    0.020298
  H     -1.521940    0.031195    0.014475
  H      0.547926    1.583967    0.152035
  H      2.074486   -1.173272   -0.208418
  H      2.586756    0.709260   -0.042456

 Total Charge           Charge          ....    0
 Multiplicity           Mult            ....    1
 Number of Electrons    NEL             ....   30
 Basis Dimension        Dim             ....   76

ORBITAL ENERGIES
----------------

  NO   OCC          E(Eh)            E(eV)
   0   2.0000     -19.135044      -520.6910
   1   2.0000     -10.268326      -279.4154
   2   2.0000     -10.213546      -277.9247
   3   2.0000     -10.212599      -277.8990
   4   2.0000      -1.043442       -28.3935
   5   2.0000      -0.800516       -21.7832
   6   2.0000      -0.659189       -17.9374
   7   2.0000      -0.536672       -14.6036
   8   2.0000      -0.511644       -13.9226
   9   2.0000      -0.442572       -12.0430
  10   2.0000      -0.419690       -11.4203
  11   2.0000      -0.398075       -10.8322
  12   2.0000      -0.375695       -10.2232
  13   2.0000      -0.293094        -7.9755
  14   2.0000      -0.252471        -6.8701
  15   0.0000      -0.071344        -1.9414
  16   0.0000       0.048151         1.3102
  17   0.0000       0.064474         1.7544
  18   0.0000       0.092460         2.5160
  19   0.0000       0.120227         3.2715

MULLIKEN ATOMIC CHARGES
-----------------------
   0 C :    0.212653
   1 O :   -0.197223
   2 C :   -0.173441
   3 C :    0.087575
   4 H :   -0.034002
   5 H :    0.023477
   6 H :    0.047838
   7 H :    0.033122
Sum of atomic charges:    0.0000000

LOEWDIN ATOMIC CHARGES
----------------------
   0 C :   -0.036991
   1 O :   -0.007455
   2 C :   -0.091627
   3 C :    0.017153
   4 H :   -0.010608
   5 H :    0.049016
   6 H :    0.042393
   7 H :    0.038119

  Mayer bond orders larger than 0.100000
B(  0-C ,  1-O ) :   2.1898 B(  0-C ,  2-C ) :   1.0517 B(  0-C ,  4-H ) :   0.9342
B(  2-C ,  3-C ) :   1.9638 B(  2-C ,  5-H ) :   0.9313 B(  3-C ,  6-H ) :   0.9374
B(  3-C ,  7-H ) :   0.9292

-----------------------------------------------------------------------------
         ABSORPTION SPECTRUM VIA TRANSITION ELECTRIC DIPOLE MOMENTS
-----------------------------------------------------------------------------
State   Energy    Wavelength  fosc         T2        TX        TY        TZ
        (cm-1)      (nm)                 (au**2)    (au)      (au)      (au)
-----------------------------------------------------------------------------
   1   26791.9    373.2   0.000212651   0.00261   0.03323  -0.00071   0.03884

FINAL SINGLE POINT ENERGY      -191.668718471635

DIPOLE MOMENT
-------------
                                X             Y             Z
Electronic contribution:     -1.86949      -1.96623       0.01528
Nuclear contribution   :      2.29782       2.86755      -0.07932
                        -----------------------------------------
Total Dipole Moment    :      0.42833       0.90132      -0.06403
                        -----------------------------------------
Magnitude (a.u.)       :      0.99997
Magnitude (Debye)      :      2.54172

Rotational constants in cm-1:     0.805261     0.201451     0.161455
Rotational constants in MHz : 24141.109094  6039.353378  4840.307891

                             ****ORCA TERMINATED NORMALLY****
TOTAL RUN TIME: 0 days 0 hours 3 minutes 19 seconds 927 msec
