                         Program Version 5.0.3 -  RELEASE  -
|  1> ! B3LYP cc-pVDZ
|  2> !TightSCF
|  3> %scf
|  4>  ConvForced true
|  5>  convergence tight
|  6>  MaxIter 500
|  7> end
|  8>
|  9> %tddft
| 10>  nroots 1
| 11> end
| 12>
| 13> # 	26569
| 14> * xyz 0 1
| 15> 		C   -0.527721  -0.460400  -0.009777
| 16> 		O   -0.573933  -1.623199   0.017160
| 17> 		C    0.600195   0.464176  -0.023587
| 18> 		C    1.818480  -0.181291   0.014838
| 19> 		H   -1.605197   0.188619  -0.035783
| 20> 		H    0.571021   1.664719   0.128568
| 21> 		H    1.980278  -1.202398  -0.259516
| 22> 		H    2.634397   0.499196   0.132256
| 23> *
| 24>
| 25>                          ****END OF INPUT****

CARTESIAN COORDINATES (ANGSTROEM)
---------------------------------
  C     -0.527721   -0.460400   -0.009777
  O     -0.573933   -1.623199    0.017160
  C      0.600195    0.464176   -0.023587
  C      1.818480   -0.181291    0.014838
  H     -1.605197    0.188619   -0.035783
  H      0.571021    1.664719    0.128568
  H      1.980278   -1.202398   -0.259516
  H      2.634397    0.499196    0.132256

 Total Charge           Charge          ....    0
 Multiplicity           Mult            ....    1
 Number of Electrons    NEL             ....   30
 Basis Dimension        Dim             ....   76

ORBITAL ENERGIES
----------------

  NO   OCC          E(Eh)            E(eV)
   0   2.0000     -19.143948      -520.9333
   1   2.0000     -10.281142      -279.7641
   2   2.0000     -10.221508      -278.1414
   3   2.0000     -10.218721      -278.0655
   4   2.0000      -1.076555       -29.2945
   5   2.0000      -0.796531       -21.6747
   6   2.0000      -0.651481       -17.7277
   7   2.0000      -0.528530       -14.3820
   8   2.0000      -0.503782       -13.7086
   9   2.0000      -0.456232       -12.4147
  10   2.0000      -0.417024       -11.3478
  11   2.0000      -0.404054       -10.9949
  12   2.0000      -0.397916       -10.8278
  13   2.0000      -0.288663        -7.8549
  14   2.0000      -0.250093        -6.8054
  15   0.0000      -0.073010        -1.9867
  16   0.0000       0.047172         1.2836
  17   0.0000       0.064183         1.7465
  18   0.0000       0.088157         2.3989
  19   0.0000       0.107621         2.9285

MULLIKEN ATOMIC CHARGES
-----------------------
   0 C :    0.157445
   1 O :   -0.140928
   2 C :   -0.175397
   3 C :    0.101589
   4 H :   -0.057238
   5 H :    0.049072
   6 H :    0.043438
   7 H :    0.022019
Sum of atomic charges:   -0.0000000

LOEWDIN ATOMIC CHARGES
----------------------
   0 C :   -0.082443
   1 O :    0.043759
   2 C :   -0.092970
   3 C :    0.048742
   4 H :   -0.031389
   5 H :    0.059627
   6 H :    0.029533
   7 H :    0.025142

  Mayer bond orders larger than 0.100000
B(  0-C ,  1-O ) :   2.2509 B(  0-C ,  2-C ) :   1.0357 B(  0-C ,  4-H ) :   0.8821
B(  2-C ,  3-C ) :   1.9209 B(  2-C ,  5-H ) :   0.9401 B(  3-C ,  6-H ) :   0.9490
B(  3-C ,  7-H ) :   0.9452

-----------------------------------------------------------------------------
         ABSORPTION SPECTRUM VIA TRANSITION ELECTRIC DIPOLE MOMENTS
-----------------------------------------------------------------------------
State   Energy    Wavelength  fosc         T2        TX        TY        TZ
        (cm-1)      (nm)                 (au**2)    (au)      (au)      (au)
-----------------------------------------------------------------------------
   1   27181.8    367.9   0.000409672   0.00496  -0.05331   0.00509  -0.04576

FINAL SINGLE POINT ENERGY      -191.653980507519

DIPOLE MOMENT
-------------
                                X             Y             Z
Electronic contribution:     -1.53660      -2.08876       0.01928
Nuclear contribution   :      2.19891       2.86555      -0.03325
                        -----------------------------------------
Total Dipole Moment    :      0.66231       0.77679      -0.01397
                        -----------------------------------------
Magnitude (a.u.)       :      1.02091
Magnitude (Debye)      :      2.59493

Rotational constants in cm-1:     0.730946     0.216839     0.167624
Rotational constants in MHz : 21913.213642  6500.675189  5025.242349

                             ****ORCA TERMINATED NORMALLY****
TOTAL RUN TIME: 0 days 0 hours 3 minutes 20 seconds 870 msec
