                         Program Version 5.0.3 -  RELEASE  -
|  1> ! B3LYP cc-pVDZ
|  2> !TightSCF
|  3> %scf
|  4>  ConvForced true
|  5>  convergence tight
|  6>  MaxIter 500
|  7> end
|  8>
|  9> %tddft
| 10>  nroots 1
| 11> end
| 12>
| 13> # 	5854
| 14> * xyz 0 1
| 15> 		C   -1.204566  -0.365885  -0.013490
| 16> 		O   -1.822414  -0.947842   0.840296
| 17> 		C   -0.024065   0.400991   0.330340
| 18> 		C    1.127296   0.060207  -0.148893
| 19> 		H   -1.457457  -0.482619  -1.012939
| 20> 		H   -0.067304   1.284750   1.051893
| 21> 		H    1.309833  -0.665535  -0.989776
| 22> 		H    2.175156   0.682143  -0.006736
| 23> *
| 24>
| 25>                          ****END OF INPUT****

CARTESIAN COORDINATES (ANGSTROEM)
---------------------------------
  C     -1.204566   -0.365885   -0.013490
  O     -1.822414   -0.947842    0.840296
  C     -0.024065    0.400991    0.330340
  C      1.127296    0.060207   -0.148893
  H     -1.457457   -0.482619   -1.012939
  H     -0.067304    1.284750    1.051893
  H      1.309833   -0.665535   -0.989776
  H      2.175156    0.682143   -0.006736

 Total Charge           Charge          ....    0
 Multiplicity           Mult            ....    1
 Number of Electrons    NEL             ....   30
 Basis Dimension        Dim             ....   76

ORBITAL ENERGIES
----------------

  NO   OCC          E(Eh)            E(eV)
   0   2.0000     -19.139923      -520.8238
   1   2.0000     -10.272006      -279.5155
   2   2.0000     -10.215209      -277.9700
   3   2.0000     -10.204698      -277.6839
   4   2.0000      -1.054473       -28.6937
   5   2.0000      -0.806627       -21.9494
   6   2.0000      -0.645167       -17.5559
   7   2.0000      -0.570429       -15.5222
   8   2.0000      -0.492571       -13.4035
   9   2.0000      -0.464612       -12.6427
  10   2.0000      -0.438942       -11.9442
  11   2.0000      -0.381564       -10.3829
  12   2.0000      -0.362185        -9.8555
  13   2.0000      -0.294988        -8.0270
  14   2.0000      -0.256347        -6.9756
  15   0.0000      -0.049128        -1.3369
  16   0.0000       0.016262         0.4425
  17   0.0000       0.069856         1.9009
  18   0.0000       0.081081         2.2063
  19   0.0000       0.115461         3.1419

MULLIKEN ATOMIC CHARGES
-----------------------
   0 C :    0.211784
   1 O :   -0.185630
   2 C :   -0.053940
   3 C :   -0.051074
   4 H :   -0.029348
   5 H :    0.032652
   6 H :    0.028143
   7 H :    0.047413
Sum of atomic charges:    0.0000000

LOEWDIN ATOMIC CHARGES
----------------------
   0 C :   -0.021230
   1 O :    0.017339
   2 C :   -0.070404
   3 C :   -0.044502
   4 H :   -0.013032
   5 H :    0.053052
   6 H :    0.029801
   7 H :    0.048976

  Mayer bond orders larger than 0.100000
B(  0-C ,  1-O ) :   2.2074 B(  0-C ,  2-C ) :   1.0142 B(  0-C ,  4-H ) :   0.9369
B(  2-C ,  3-C ) :   2.0038 B(  2-C ,  5-H ) :   0.9304 B(  3-C ,  6-H ) :   0.9485
B(  3-C ,  7-H ) :   0.9390

-----------------------------------------------------------------------------
         ABSORPTION SPECTRUM VIA TRANSITION ELECTRIC DIPOLE MOMENTS
-----------------------------------------------------------------------------
State   Energy    Wavelength  fosc         T2        TX        TY        TZ
        (cm-1)      (nm)                 (au**2)    (au)      (au)      (au)
-----------------------------------------------------------------------------
   1   31362.4    318.9   0.000547069   0.00574  -0.07227  -0.00429   0.02238

FINAL SINGLE POINT ENERGY      -191.635194507263

DIPOLE MOMENT
-------------
                                X             Y             Z
Electronic contribution:     -3.12767      -1.11944       1.24816
Nuclear contribution   :      3.72043       1.64077      -1.86006
                        -----------------------------------------
Total Dipole Moment    :      0.59276       0.52132      -0.61190
                        -----------------------------------------
Magnitude (a.u.)       :      0.99878
Magnitude (Debye)      :      2.53869

Rotational constants in cm-1:     1.164949     0.167070     0.161047
Rotational constants in MHz : 34924.298474  5008.626479  4828.057608

                             ****ORCA TERMINATED NORMALLY****
TOTAL RUN TIME: 0 days 0 hours 3 minutes 21 seconds 747 msec
