                         Program Version 5.0.3 -  RELEASE  -
|  1> ! HF-3c
|  2> !TightSCF
|  3> %scf
|  4>  ConvForced true
|  5>  convergence tight
|  6>  MaxIter 500
|  7> end
|  8>
|  9> %tddft
| 10>  nroots 1
| 11> end
| 12>
| 13> # 	24574
| 14> * xyz 0 1
| 15> 		C   -0.528812  -0.440076   0.015088
| 16> 		O   -0.632417  -1.702789  -0.015626
| 17> 		C    0.664127   0.407631   0.000342
| 18> 		C    1.852043  -0.056378   0.016834
| 19> 		H   -1.564983   0.438659   0.065860
| 20> 		H    0.409142   1.454158  -0.135500
| 21> 		H    1.737021  -1.227343   0.042028
| 22> 		H    2.759389   0.673349  -0.123114
| 23> *
| 24>
| 25>                          ****END OF INPUT****

CARTESIAN COORDINATES (ANGSTROEM)
---------------------------------
  C     -0.528812   -0.440076    0.015088
  O     -0.632417   -1.702789   -0.015626
  C      0.664127    0.407631    0.000342
  C      1.852043   -0.056378    0.016834
  H     -1.564983    0.438659    0.065860
  H      0.409142    1.454158   -0.135500
  H      1.737021   -1.227343    0.042028
  H      2.759389    0.673349   -0.123114

 Total Charge           Charge          ....    0
 Multiplicity           Mult            ....    1
 Number of Electrons    NEL             ....   30
 Basis Dimension        Dim             ....   24

ORBITAL ENERGIES
----------------

  NO   OCC          E(Eh)            E(eV)
   0   2.0000     -20.343314      -553.5697
   1   2.0000     -11.275346      -306.8178
   2   2.0000     -11.192397      -304.5606
   3   2.0000     -11.183515      -304.3189
   4   2.0000      -1.352874       -36.8136
   5   2.0000      -1.099429       -29.9170
   6   2.0000      -0.875321       -23.8187
   7   2.0000      -0.714477       -19.4419
   8   2.0000      -0.666446       -18.1349
   9   2.0000      -0.592117       -16.1123
  10   2.0000      -0.565898       -15.3989
  11   2.0000      -0.520765       -14.1707
  12   2.0000      -0.503414       -13.6986
  13   2.0000      -0.402078       -10.9411
  14   2.0000      -0.387218       -10.5367
  15   0.0000       0.132270         3.5993
  16   0.0000       0.326281         8.8785
  17   0.0000       0.408198        11.1076
  18   0.0000       0.492334        13.3971
  19   0.0000       0.578616        15.7450

MULLIKEN ATOMIC CHARGES
-----------------------
   0 C :    0.187413
   1 O :   -0.366521
   2 C :   -0.203309
   3 C :   -0.210568
   4 H :    0.117015
   5 H :    0.135323
   6 H :    0.178134
   7 H :    0.162512
Sum of atomic charges:    0.0000000

LOEWDIN ATOMIC CHARGES
----------------------
   0 C :    0.160213
   1 O :   -0.287372
   2 C :   -0.157869
   3 C :   -0.120243
   4 H :    0.076062
   5 H :    0.083701
   6 H :    0.129223
   7 H :    0.116285

  Mayer bond orders larger than 0.100000
B(  0-C ,  1-O ) :   1.9014 B(  0-C ,  2-C ) :   1.0314 B(  0-C ,  4-H ) :   0.8992
B(  2-C ,  3-C ) :   1.9433 B(  2-C ,  5-H ) :   0.9550 B(  3-C ,  6-H ) :   0.9411
B(  3-C ,  7-H ) :   0.9537

-----------------------------------------------------------------------------
         ABSORPTION SPECTRUM VIA TRANSITION ELECTRIC DIPOLE MOMENTS
-----------------------------------------------------------------------------
State   Energy    Wavelength  fosc         T2        TX        TY        TZ
        (cm-1)      (nm)                 (au**2)    (au)      (au)      (au)
-----------------------------------------------------------------------------
   1   30898.6    323.6   0.000068245   0.00073   0.00141   0.00006   0.02693

Dispersion correction           -0.026150205
FINAL SINGLE POINT ENERGY      -189.284778108826

DIPOLE MOMENT
-------------
                                X             Y             Z
Electronic contribution:     -1.52918      -1.99238       0.10930
Nuclear contribution   :      1.97427       3.04259      -0.14067
                        -----------------------------------------
Total Dipole Moment    :      0.44508       1.05021      -0.03137
                        -----------------------------------------
Magnitude (a.u.)       :      1.14107
Magnitude (Debye)      :      2.90036

Rotational constants in cm-1:     0.788267     0.197907     0.158339
Rotational constants in MHz : 23631.638314  5933.098196  4746.886075

                             ****ORCA TERMINATED NORMALLY****
TOTAL RUN TIME: 0 days 0 hours 0 minutes 10 seconds 549 msec
