                         Program Version 5.0.3 -  RELEASE  -
|  1> ! HF-3c
|  2> !TightSCF
|  3> %scf
|  4>  ConvForced true
|  5>  convergence tight
|  6>  MaxIter 500
|  7> end
|  8>
|  9> %tddft
| 10>  nroots 1
| 11> end
| 12>
| 13> # 	4743
| 14> * xyz 0 1
| 15> 		C   -1.234929  -0.349088   0.005320
| 16> 		O   -1.300607  -1.434449  -0.435595
| 17> 		C    0.014835   0.493035  -0.086089
| 18> 		C    1.273481   0.032365   0.105135
| 19> 		H   -2.121492   0.159721   0.516964
| 20> 		H   -0.140655   1.595421  -0.440986
| 21> 		H    1.248791  -1.062442   0.312112
| 22> 		H    2.283719   0.554784  -0.043094
| 23> *
| 24>
| 25>                          ****END OF INPUT****

CARTESIAN COORDINATES (ANGSTROEM)
---------------------------------
  C     -1.234929   -0.349088    0.005320
  O     -1.300607   -1.434449   -0.435595
  C      0.014835    0.493035   -0.086089
  C      1.273481    0.032365    0.105135
  H     -2.121492    0.159721    0.516964
  H     -0.140655    1.595421   -0.440986
  H      1.248791   -1.062442    0.312112
  H      2.283719    0.554784   -0.043094

 Total Charge           Charge          ....    0
 Multiplicity           Mult            ....    1
 Number of Electrons    NEL             ....   30
 Basis Dimension        Dim             ....   24

ORBITAL ENERGIES
----------------

  NO   OCC          E(Eh)            E(eV)
   0   2.0000     -20.384364      -554.6867
   1   2.0000     -11.308902      -307.7309
   2   2.0000     -11.175909      -304.1119
   3   2.0000     -11.174446      -304.0721
   4   2.0000      -1.434903       -39.0457
   5   2.0000      -1.053798       -28.6753
   6   2.0000      -0.871919       -23.7261
   7   2.0000      -0.736674       -20.0459
   8   2.0000      -0.685500       -18.6534
   9   2.0000      -0.612684       -16.6720
  10   2.0000      -0.607564       -16.5327
  11   2.0000      -0.544541       -14.8177
  12   2.0000      -0.502898       -13.6846
  13   2.0000      -0.407888       -11.0992
  14   2.0000      -0.386499       -10.5172
  15   0.0000       0.157765         4.2930
  16   0.0000       0.277508         7.5514
  17   0.0000       0.508677        13.8418
  18   0.0000       0.587118        15.9763
  19   0.0000       0.615069        16.7369

MULLIKEN ATOMIC CHARGES
-----------------------
   0 C :    0.180955
   1 O :   -0.355443
   2 C :   -0.162355
   3 C :   -0.229208
   4 H :    0.136461
   5 H :    0.135580
   6 H :    0.143221
   7 H :    0.150789
Sum of atomic charges:   -0.0000000

LOEWDIN ATOMIC CHARGES
----------------------
   0 C :    0.150152
   1 O :   -0.246170
   2 C :   -0.130322
   3 C :   -0.139926
   4 H :    0.074726
   5 H :    0.091788
   6 H :    0.095087
   7 H :    0.104665

  Mayer bond orders larger than 0.100000
B(  0-C ,  1-O ) :   1.9352 B(  0-C ,  2-C ) :   0.9927 B(  0-C ,  4-H ) :   0.9122
B(  2-C ,  3-C ) :   1.9751 B(  2-C ,  5-H ) :   0.9535 B(  3-C ,  6-H ) :   0.9606
B(  3-C ,  7-H ) :   0.9615

-----------------------------------------------------------------------------
         ABSORPTION SPECTRUM VIA TRANSITION ELECTRIC DIPOLE MOMENTS
-----------------------------------------------------------------------------
State   Energy    Wavelength  fosc         T2        TX        TY        TZ
        (cm-1)      (nm)                 (au**2)    (au)      (au)      (au)
-----------------------------------------------------------------------------
   1   35949.5    278.2   0.000021098   0.00019  -0.00955   0.00655  -0.00768

Dispersion correction           -0.025003102
FINAL SINGLE POINT ENERGY      -189.311681871635

DIPOLE MOMENT
-------------
                                X             Y             Z
Electronic contribution:     -2.16565      -1.61887      -0.43738
Nuclear contribution   :      2.44177       2.46456       0.74251
                        -----------------------------------------
Total Dipole Moment    :      0.27612       0.84569       0.30514
                        -----------------------------------------
Magnitude (a.u.)       :      0.94050
Magnitude (Debye)      :      2.39056

Rotational constants in cm-1:     0.813517     0.190326     0.159429
Rotational constants in MHz : 24388.628004  5705.832398  4779.570767

                             ****ORCA TERMINATED NORMALLY****
TOTAL RUN TIME: 0 days 0 hours 0 minutes 16 seconds 85 msec
