                         Program Version 5.0.3 -  RELEASE  -
|  1> ! B3LYP cc-pVDZ
|  2> !TightSCF
|  3> %scf
|  4>  ConvForced true
|  5>  convergence tight
|  6>  MaxIter 500
|  7> end
|  8>
|  9> %tddft
| 10>  nroots 1
| 11> end
| 12>
| 13> # 	11527
| 14> * xyz 0 1
| 15> 		C   -1.230113  -0.319608  -0.028964
| 16> 		O   -1.625537  -1.232511   0.756738
| 17> 		C    0.023101   0.451023   0.169701
| 18> 		C    1.207867   0.060397  -0.134897
| 19> 		H   -1.794133  -0.115381  -1.049333
| 20> 		H   -0.039101   1.377300   0.873994
| 21> 		H    1.488675  -0.876255  -0.592221
| 22> 		H    1.948619   0.627600  -0.034901
| 23> *
| 24>
| 25>                          ****END OF INPUT****

CARTESIAN COORDINATES (ANGSTROEM)
---------------------------------
  C     -1.230113   -0.319608   -0.028964
  O     -1.625537   -1.232511    0.756738
  C      0.023101    0.451023    0.169701
  C      1.207867    0.060397   -0.134897
  H     -1.794133   -0.115381   -1.049333
  H     -0.039101    1.377300    0.873994
  H      1.488675   -0.876255   -0.592221
  H      1.948619    0.627600   -0.034901

 Total Charge           Charge          ....    0
 Multiplicity           Mult            ....    1
 Number of Electrons    NEL             ....   30
 Basis Dimension        Dim             ....   76

ORBITAL ENERGIES
----------------

  NO   OCC          E(Eh)            E(eV)
   0   2.0000     -19.150181      -521.1029
   1   2.0000     -10.294393      -280.1247
   2   2.0000     -10.211080      -277.8576
   3   2.0000     -10.185500      -277.1616
   4   2.0000      -1.023077       -27.8393
   5   2.0000      -0.809519       -22.0281
   6   2.0000      -0.665583       -18.1114
   7   2.0000      -0.554282       -15.0828
   8   2.0000      -0.493416       -13.4265
   9   2.0000      -0.468010       -12.7352
  10   2.0000      -0.438101       -11.9213
  11   2.0000      -0.387938       -10.5563
  12   2.0000      -0.358356        -9.7514
  13   2.0000      -0.295910        -8.0521
  14   2.0000      -0.257710        -7.0127
  15   0.0000      -0.050371        -1.3707
  16   0.0000      -0.007281        -0.1981
  17   0.0000       0.076565         2.0834
  18   0.0000       0.085706         2.3322
  19   0.0000       0.099773         2.7149

MULLIKEN ATOMIC CHARGES
-----------------------
   0 C :    0.153899
   1 O :   -0.215301
   2 C :   -0.132494
   3 C :    0.158629
   4 H :    0.019943
   5 H :    0.042740
   6 H :    0.010881
   7 H :   -0.038298
Sum of atomic charges:   -0.0000000

LOEWDIN ATOMIC CHARGES
----------------------
   0 C :    0.012923
   1 O :   -0.039961
   2 C :   -0.065648
   3 C :    0.002106
   4 H :    0.010820
   5 H :    0.059719
   6 H :    0.031495
   7 H :   -0.011454

  Mayer bond orders larger than 0.100000
B(  0-C ,  1-O ) :   2.1824 B(  0-C ,  2-C ) :   0.9736 B(  0-C ,  4-H ) :   0.9048
B(  2-C ,  3-C ) :   2.0798 B(  2-C ,  5-H ) :   0.9118 B(  3-C ,  6-H ) :   0.9524
B(  3-C ,  7-H ) :   0.9201

-----------------------------------------------------------------------------
         ABSORPTION SPECTRUM VIA TRANSITION ELECTRIC DIPOLE MOMENTS
-----------------------------------------------------------------------------
State   Energy    Wavelength  fosc         T2        TX        TY        TZ
        (cm-1)      (nm)                 (au**2)    (au)      (au)      (au)
-----------------------------------------------------------------------------
   1   30014.1    333.2   0.000229817   0.00252  -0.03756  -0.02378   0.02333

FINAL SINGLE POINT ENERGY      -191.622771044055

DIPOLE MOMENT
-------------
                                X             Y             Z
Electronic contribution:     -2.55673      -1.33188       1.03187
Nuclear contribution   :      3.11917       2.03405      -1.50561
                        -----------------------------------------
Total Dipole Moment    :      0.56244       0.70217      -0.47374
                        -----------------------------------------
Magnitude (a.u.)       :      1.01677
Magnitude (Debye)      :      2.58442

Rotational constants in cm-1:     0.946949     0.167619     0.157590
Rotational constants in MHz : 28388.811705  5025.104929  4724.431704

                             ****ORCA TERMINATED NORMALLY****
TOTAL RUN TIME: 0 days 0 hours 2 minutes 34 seconds 781 msec
