                         Program Version 5.0.3 -  RELEASE  -
|  1> ! B3LYP cc-pVDZ
|  2> !TightSCF
|  3> %scf
|  4>  ConvForced true
|  5>  convergence tight
|  6>  MaxIter 500
|  7> end
|  8>
|  9> %tddft
| 10>  nroots 1
| 11> end
| 12>
| 13> # 	7243
| 14> * xyz 0 1
| 15> 		C   -1.160955  -0.252260  -0.017114
| 16> 		O   -1.222839  -1.444179   0.379833
| 17> 		C    0.043003   0.549083   0.132193
| 18> 		C    1.228662  -0.041496  -0.096114
| 19> 		H   -2.133809   0.011371  -0.523858
| 20> 		H   -0.130340   1.525700   0.290128
| 21> 		H    1.231735  -1.056040  -0.245207
| 22> 		H    2.128176   0.638654   0.086221
| 23> *
| 24>
| 25>                          ****END OF INPUT****

CARTESIAN COORDINATES (ANGSTROEM)
---------------------------------
  C     -1.160955   -0.252260   -0.017114
  O     -1.222839   -1.444179    0.379833
  C      0.043003    0.549083    0.132193
  C      1.228662   -0.041496   -0.096114
  H     -2.133809    0.011371   -0.523858
  H     -0.130340    1.525700    0.290128
  H      1.231735   -1.056040   -0.245207
  H      2.128176    0.638654    0.086221

 Total Charge           Charge          ....    0
 Multiplicity           Mult            ....    1
 Number of Electrons    NEL             ....   30
 Basis Dimension        Dim             ....   76

ORBITAL ENERGIES
----------------

  NO   OCC          E(Eh)            E(eV)
   0   2.0000     -19.129676      -520.5449
   1   2.0000     -10.272562      -279.5306
   2   2.0000     -10.214186      -277.9421
   3   2.0000     -10.202287      -277.6183
   4   2.0000      -1.017954       -27.6999
   5   2.0000      -0.804123       -21.8813
   6   2.0000      -0.658157       -17.9094
   7   2.0000      -0.554598       -15.0914
   8   2.0000      -0.513206       -13.9650
   9   2.0000      -0.448489       -12.2040
  10   2.0000      -0.424096       -11.5403
  11   2.0000      -0.392514       -10.6809
  12   2.0000      -0.368831       -10.0364
  13   2.0000      -0.288720        -7.8565
  14   2.0000      -0.246157        -6.6983
  15   0.0000      -0.064937        -1.7670
  16   0.0000       0.025566         0.6957
  17   0.0000       0.071848         1.9551
  18   0.0000       0.095757         2.6057
  19   0.0000       0.118648         3.2286

MULLIKEN ATOMIC CHARGES
-----------------------
   0 C :    0.141385
   1 O :   -0.239380
   2 C :   -0.014240
   3 C :    0.094246
   4 H :    0.000610
   5 H :   -0.039538
   6 H :    0.010620
   7 H :    0.046297
Sum of atomic charges:   -0.0000000

LOEWDIN ATOMIC CHARGES
----------------------
   0 C :   -0.005935
   1 O :   -0.057052
   2 C :   -0.050106
   3 C :    0.034611
   4 H :    0.008347
   5 H :    0.007000
   6 H :    0.014983
   7 H :    0.048151

  Mayer bond orders larger than 0.100000
B(  0-C ,  1-O ) :   2.1132 B(  0-C ,  2-C ) :   1.0464 B(  0-C ,  4-H ) :   0.9406
B(  2-C ,  3-C ) :   1.9750 B(  2-C ,  5-H ) :   0.9484 B(  3-C ,  6-H ) :   0.9284
B(  3-C ,  7-H ) :   0.9441

-----------------------------------------------------------------------------
         ABSORPTION SPECTRUM VIA TRANSITION ELECTRIC DIPOLE MOMENTS
-----------------------------------------------------------------------------
State   Energy    Wavelength  fosc         T2        TX        TY        TZ
        (cm-1)      (nm)                 (au**2)    (au)      (au)      (au)
-----------------------------------------------------------------------------
   1   26408.6    378.7   0.000076404   0.00095   0.01633   0.01404   0.02210

FINAL SINGLE POINT ENERGY      -191.661923562367

DIPOLE MOMENT
-------------
                                X             Y             Z
Electronic contribution:     -1.76953      -1.36461       0.49043
Nuclear contribution   :      2.16106       2.29986      -0.75990
                        -----------------------------------------
Total Dipole Moment    :      0.39154       0.93525      -0.26947
                        -----------------------------------------
Magnitude (a.u.)       :      1.04910
Magnitude (Debye)      :      2.66659

Rotational constants in cm-1:     0.765974     0.208026     0.168815
Rotational constants in MHz : 22963.313862  6236.455099  5060.942771

                             ****ORCA TERMINATED NORMALLY****
TOTAL RUN TIME: 0 days 0 hours 3 minutes 21 seconds 382 msec
