                         Program Version 5.0.3 -  RELEASE  -
|  1> ! B3LYP cc-pVDZ
|  2> !TightSCF
|  3> %scf
|  4>  ConvForced true
|  5>  convergence tight
|  6>  MaxIter 500
|  7> end
|  8>
|  9> %tddft
| 10>  nroots 1
| 11> end
| 12>
| 13> # 	32177
| 14> * xyz 0 1
| 15> 		C   -0.653478  -0.422840  -0.085358
| 16> 		O   -0.537413  -1.575679   0.039875
| 17> 		C    0.626530   0.342924   0.056626
| 18> 		C    1.855340  -0.116337  -0.016238
| 19> 		H   -1.681891   0.185938  -0.058388
| 20> 		H    0.282406   1.406669   0.156492
| 21> 		H    2.187747  -1.267570  -0.095069
| 22> 		H    2.838282   0.331352  -0.095249
| 23> *
| 24>
| 25>                          ****END OF INPUT****

CARTESIAN COORDINATES (ANGSTROEM)
---------------------------------
  C     -0.653478   -0.422840   -0.085358
  O     -0.537413   -1.575679    0.039875
  C      0.626530    0.342924    0.056626
  C      1.855340   -0.116337   -0.016238
  H     -1.681891    0.185938   -0.058388
  H      0.282406    1.406669    0.156492
  H      2.187747   -1.267570   -0.095069
  H      2.838282    0.331352   -0.095249

 Total Charge           Charge          ....    0
 Multiplicity           Mult            ....    1
 Number of Electrons    NEL             ....   30
 Basis Dimension        Dim             ....   76

ORBITAL ENERGIES
----------------

  NO   OCC          E(Eh)            E(eV)
   0   2.0000     -19.140758      -520.8465
   1   2.0000     -10.280016      -279.7335
   2   2.0000     -10.216576      -278.0072
   3   2.0000     -10.204978      -277.6916
   4   2.0000      -1.077534       -29.3212
   5   2.0000      -0.784792       -21.3553
   6   2.0000      -0.651888       -17.7388
   7   2.0000      -0.542153       -14.7527
   8   2.0000      -0.489657       -13.3243
   9   2.0000      -0.465180       -12.6582
  10   2.0000      -0.429696       -11.6926
  11   2.0000      -0.415926       -11.3179
  12   2.0000      -0.350285        -9.5317
  13   2.0000      -0.288397        -7.8477
  14   2.0000      -0.251131        -6.8336
  15   0.0000      -0.062506        -1.7009
  16   0.0000       0.053896         1.4666
  17   0.0000       0.060503         1.6464
  18   0.0000       0.082061         2.2330
  19   0.0000       0.112237         3.0541

MULLIKEN ATOMIC CHARGES
-----------------------
   0 C :    0.123332
   1 O :   -0.134362
   2 C :   -0.066469
   3 C :    0.021823
   4 H :   -0.009049
   5 H :   -0.015601
   6 H :    0.047457
   7 H :    0.032869
Sum of atomic charges:   -0.0000000

LOEWDIN ATOMIC CHARGES
----------------------
   0 C :   -0.068450
   1 O :    0.051613
   2 C :   -0.087259
   3 C :   -0.005786
   4 H :    0.002239
   5 H :    0.026396
   6 H :    0.050972
   7 H :    0.030276

  Mayer bond orders larger than 0.100000
B(  0-C ,  1-O ) :   2.2515 B(  0-C ,  2-C ) :   1.0314 B(  0-C ,  4-H ) :   0.8856
B(  2-C ,  3-C ) :   1.9572 B(  2-C ,  5-H ) :   0.9373 B(  3-C ,  6-H ) :   0.9345
B(  3-C ,  7-H ) :   0.9561

-----------------------------------------------------------------------------
         ABSORPTION SPECTRUM VIA TRANSITION ELECTRIC DIPOLE MOMENTS
-----------------------------------------------------------------------------
State   Energy    Wavelength  fosc         T2        TX        TY        TZ
        (cm-1)      (nm)                 (au**2)    (au)      (au)      (au)
-----------------------------------------------------------------------------
   1   28747.4    347.9   0.000124541   0.00143  -0.02524   0.01891   0.02078

FINAL SINGLE POINT ENERGY      -191.640578063392

DIPOLE MOMENT
-------------
                                X             Y             Z
Electronic contribution:     -1.98161      -1.70739       0.00473
Nuclear contribution   :      2.25076       2.40051      -0.08625
                        -----------------------------------------
Total Dipole Moment    :      0.26915       0.69312      -0.08152
                        -----------------------------------------
Magnitude (a.u.)       :      0.74800
Magnitude (Debye)      :      1.90126

Rotational constants in cm-1:     0.755565     0.213649     0.167217
Rotational constants in MHz : 22651.263728  6405.023303  5013.035581

                             ****ORCA TERMINATED NORMALLY****
TOTAL RUN TIME: 0 days 0 hours 3 minutes 14 seconds 863 msec
