                         Program Version 5.0.3 -  RELEASE  -
|  1> ! HF-3c
|  2> !TightSCF
|  3> %scf
|  4>  ConvForced true
|  5>  convergence tight
|  6>  MaxIter 500
|  7> end
|  8>
|  9> %tddft
| 10>  nroots 1
| 11> end
| 12>
| 13> # 	26956
| 14> * xyz 0 1
| 15> 		C   -0.579816  -0.401666   0.036412
| 16> 		O   -0.548869  -1.659455  -0.025552
| 17> 		C    0.618953   0.476202  -0.032435
| 18> 		C    1.801664  -0.163286  -0.004194
| 19> 		H   -1.469990   0.003158   0.210733
| 20> 		H    0.506644   1.500934  -0.128826
| 21> 		H    1.771924  -1.347799   0.191861
| 22> 		H    2.947325   0.469788   0.129406
| 23> *
| 24>
| 25>                          ****END OF INPUT****

CARTESIAN COORDINATES (ANGSTROEM)
---------------------------------
  C     -0.579816   -0.401666    0.036412
  O     -0.548869   -1.659455   -0.025552
  C      0.618953    0.476202   -0.032435
  C      1.801664   -0.163286   -0.004194
  H     -1.469990    0.003158    0.210733
  H      0.506644    1.500934   -0.128826
  H      1.771924   -1.347799    0.191861
  H      2.947325    0.469788    0.129406

 Total Charge           Charge          ....    0
 Multiplicity           Mult            ....    1
 Number of Electrons    NEL             ....   30
 Basis Dimension        Dim             ....   24

ORBITAL ENERGIES
----------------

  NO   OCC          E(Eh)            E(eV)
   0   2.0000     -20.340824      -553.5020
   1   2.0000     -11.282055      -307.0003
   2   2.0000     -11.187398      -304.4246
   3   2.0000     -11.178852      -304.1920
   4   2.0000      -1.363335       -37.0982
   5   2.0000      -1.066717       -29.0268
   6   2.0000      -0.882348       -24.0099
   7   2.0000      -0.743807       -20.2400
   8   2.0000      -0.696550       -18.9541
   9   2.0000      -0.591475       -16.0949
  10   2.0000      -0.562598       -15.3091
  11   2.0000      -0.517864       -14.0918
  12   2.0000      -0.497557       -13.5392
  13   2.0000      -0.416864       -11.3435
  14   2.0000      -0.379528       -10.3275
  15   0.0000       0.130882         3.5615
  16   0.0000       0.293424         7.9845
  17   0.0000       0.438230        11.9248
  18   0.0000       0.529885        14.4189
  19   0.0000       0.632049        17.1989

MULLIKEN ATOMIC CHARGES
-----------------------
   0 C :    0.135137
   1 O :   -0.353410
   2 C :   -0.214891
   3 C :   -0.163117
   4 H :    0.138653
   5 H :    0.143000
   6 H :    0.165193
   7 H :    0.149435
Sum of atomic charges:   -0.0000000

LOEWDIN ATOMIC CHARGES
----------------------
   0 C :    0.141652
   1 O :   -0.276070
   2 C :   -0.167213
   3 C :   -0.086580
   4 H :    0.067405
   5 H :    0.087822
   6 H :    0.118498
   7 H :    0.114486

  Mayer bond orders larger than 0.100000
B(  0-C ,  1-O ) :   1.8889 B(  0-C ,  2-C ) :   1.0378 B(  0-C ,  4-H ) :   0.9443
B(  2-C ,  3-C ) :   1.9216 B(  2-C ,  5-H ) :   0.9611 B(  3-C ,  6-H ) :   0.9471
B(  3-C ,  7-H ) :   0.9537

-----------------------------------------------------------------------------
         ABSORPTION SPECTRUM VIA TRANSITION ELECTRIC DIPOLE MOMENTS
-----------------------------------------------------------------------------
State   Energy    Wavelength  fosc         T2        TX        TY        TZ
        (cm-1)      (nm)                 (au**2)    (au)      (au)      (au)
-----------------------------------------------------------------------------
   1   30770.6    325.0   0.000068072   0.00073   0.01912   0.00601  -0.01808

Dispersion correction           -0.025887926
FINAL SINGLE POINT ENERGY      -189.296537032038

DIPOLE MOMENT
-------------
                                X             Y             Z
Electronic contribution:     -1.83789      -1.50158      -0.25546
Nuclear contribution   :      2.36549       2.37619       0.37821
                        -----------------------------------------
Total Dipole Moment    :      0.52761       0.87461       0.12274
                        -----------------------------------------
Magnitude (a.u.)       :      1.02878
Magnitude (Debye)      :      2.61494

Rotational constants in cm-1:     0.713034     0.214410     0.165342
Rotational constants in MHz : 21376.210526  6427.852813  4956.818146

                             ****ORCA TERMINATED NORMALLY****
TOTAL RUN TIME: 0 days 0 hours 0 minutes 16 seconds 87 msec
