                         Program Version 5.0.3 -  RELEASE  -
|  1> ! HF-3c
|  2> !TightSCF
|  3> %scf
|  4>  ConvForced true
|  5>  convergence tight
|  6>  MaxIter 500
|  7> end
|  8>
|  9> %tddft
| 10>  nroots 1
| 11> end
| 12>
| 13> # 	4948
| 14> * xyz 0 1
| 15> 		C   -1.204365  -0.239491   0.015253
| 16> 		O   -1.501306  -1.195543   0.751247
| 17> 		C   -0.021686   0.573791   0.174727
| 18> 		C    1.192617   0.033906  -0.114512
| 19> 		H   -1.724331  -0.060063  -1.043335
| 20> 		H   -0.086940   1.475333   0.766839
| 21> 		H    1.088624  -1.035318  -0.525379
| 22> 		H    2.269453   0.459037  -0.056049
| 23> *
| 24>
| 25>                          ****END OF INPUT****

CARTESIAN COORDINATES (ANGSTROEM)
---------------------------------
  C     -1.204365   -0.239491    0.015253
  O     -1.501306   -1.195543    0.751247
  C     -0.021686    0.573791    0.174727
  C      1.192617    0.033906   -0.114512
  H     -1.724331   -0.060063   -1.043335
  H     -0.086940    1.475333    0.766839
  H      1.088624   -1.035318   -0.525379
  H      2.269453    0.459037   -0.056049

 Total Charge           Charge          ....    0
 Multiplicity           Mult            ....    1
 Number of Electrons    NEL             ....   30
 Basis Dimension        Dim             ....   24

ORBITAL ENERGIES
----------------

  NO   OCC          E(Eh)            E(eV)
   0   2.0000     -20.365887      -554.1840
   1   2.0000     -11.291356      -307.2534
   2   2.0000     -11.182908      -304.3024
   3   2.0000     -11.178568      -304.1843
   4   2.0000      -1.381744       -37.5992
   5   2.0000      -1.072896       -29.1950
   6   2.0000      -0.872444       -23.7404
   7   2.0000      -0.745584       -20.2884
   8   2.0000      -0.668037       -18.1782
   9   2.0000      -0.621933       -16.9237
  10   2.0000      -0.595557       -16.2059
  11   2.0000      -0.523794       -14.2531
  12   2.0000      -0.484055       -13.1718
  13   2.0000      -0.409991       -11.1564
  14   2.0000      -0.387740       -10.5509
  15   0.0000       0.177947         4.8422
  16   0.0000       0.202697         5.5157
  17   0.0000       0.535837        14.5809
  18   0.0000       0.575359        15.6563
  19   0.0000       0.593264        16.1435

MULLIKEN ATOMIC CHARGES
-----------------------
   0 C :    0.168405
   1 O :   -0.339003
   2 C :   -0.191753
   3 C :   -0.209295
   4 H :    0.137686
   5 H :    0.151417
   6 H :    0.132391
   7 H :    0.150152
Sum of atomic charges:    0.0000000

LOEWDIN ATOMIC CHARGES
----------------------
   0 C :    0.153187
   1 O :   -0.253925
   2 C :   -0.146755
   3 C :   -0.126742
   4 H :    0.082107
   5 H :    0.099101
   6 H :    0.088718
   7 H :    0.104309

  Mayer bond orders larger than 0.100000
B(  0-C ,  1-O ) :   1.9408 B(  0-C ,  2-C ) :   1.0086 B(  0-C ,  4-H ) :   0.9090
B(  2-C ,  3-C ) :   1.9783 B(  2-C ,  5-H ) :   0.9484 B(  3-C ,  6-H ) :   0.9647
B(  3-C ,  7-H ) :   0.9611

-----------------------------------------------------------------------------
         ABSORPTION SPECTRUM VIA TRANSITION ELECTRIC DIPOLE MOMENTS
-----------------------------------------------------------------------------
State   Energy    Wavelength  fosc         T2        TX        TY        TZ
        (cm-1)      (nm)                 (au**2)    (au)      (au)      (au)
-----------------------------------------------------------------------------
   1   32529.8    307.4   0.000124022   0.00126   0.02930   0.00230   0.01979

Dispersion correction           -0.025338278
FINAL SINGLE POINT ENERGY      -189.308606087913

DIPOLE MOMENT
-------------
                                X             Y             Z
Electronic contribution:     -2.46703      -1.03778       1.01761
Nuclear contribution   :      2.96528       1.70078      -1.60426
                        -----------------------------------------
Total Dipole Moment    :      0.49825       0.66300      -0.58665
                        -----------------------------------------
Magnitude (a.u.)       :      1.01587
Magnitude (Debye)      :      2.58213

Rotational constants in cm-1:     0.830680     0.183018     0.165397
Rotational constants in MHz : 24903.155287  5486.753362  4958.481013

                             ****ORCA TERMINATED NORMALLY****
TOTAL RUN TIME: 0 days 0 hours 0 minutes 12 seconds 608 msec
