                         Program Version 5.0.3 -  RELEASE  -
|  1> ! B3LYP cc-pVDZ
|  2> !TightSCF
|  3> %scf
|  4>  ConvForced true
|  5>  convergence tight
|  6>  MaxIter 500
|  7> end
|  8>
|  9> %tddft
| 10>  nroots 1
| 11> end
| 12>
| 13> # 	4987
| 14> * xyz 0 1
| 15> 		C   -1.265513  -0.351602   0.006762
| 16> 		O   -1.341472  -1.428160   0.524884
| 17> 		C    0.087477   0.498800   0.087384
| 18> 		C    1.195908  -0.069029  -0.108443
| 19> 		H   -2.056574   0.140986  -0.548465
| 20> 		H   -0.074007   1.637909   0.327545
| 21> 		H    1.533556  -0.969113  -0.204897
| 22> 		H    1.936733   0.590135  -0.077015
| 23> *
| 24>
| 25>                          ****END OF INPUT****

CARTESIAN COORDINATES (ANGSTROEM)
---------------------------------
  C     -1.265513   -0.351602    0.006762
  O     -1.341472   -1.428160    0.524884
  C      0.087477    0.498800    0.087384
  C      1.195908   -0.069029   -0.108443
  H     -2.056574    0.140986   -0.548465
  H     -0.074007    1.637909    0.327545
  H      1.533556   -0.969113   -0.204897
  H      1.936733    0.590135   -0.077015

 Total Charge           Charge          ....    0
 Multiplicity           Mult            ....    1
 Number of Electrons    NEL             ....   30
 Basis Dimension        Dim             ....   76

ORBITAL ENERGIES
----------------

  NO   OCC          E(Eh)            E(eV)
   0   2.0000     -19.145020      -520.9625
   1   2.0000     -10.278568      -279.6940
   2   2.0000     -10.204592      -277.6811
   3   2.0000     -10.172680      -276.8127
   4   2.0000      -1.056348       -28.7447
   5   2.0000      -0.802787       -21.8449
   6   2.0000      -0.648474       -17.6459
   7   2.0000      -0.562237       -15.2992
   8   2.0000      -0.501420       -13.6443
   9   2.0000      -0.457418       -12.4470
  10   2.0000      -0.443659       -12.0726
  11   2.0000      -0.389892       -10.6095
  12   2.0000      -0.379026       -10.3138
  13   2.0000      -0.298189        -8.1141
  14   2.0000      -0.248036        -6.7494
  15   0.0000      -0.040807        -1.1104
  16   0.0000       0.031713         0.8629
  17   0.0000       0.070310         1.9132
  18   0.0000       0.101602         2.7647
  19   0.0000       0.114093         3.1046

MULLIKEN ATOMIC CHARGES
-----------------------
   0 C :    0.183021
   1 O :   -0.171522
   2 C :   -0.202104
   3 C :    0.233723
   4 H :   -0.012095
   5 H :    0.022157
   6 H :   -0.036836
   7 H :   -0.016343
Sum of atomic charges:    0.0000000

LOEWDIN ATOMIC CHARGES
----------------------
   0 C :   -0.012631
   1 O :    0.016793
   2 C :   -0.062267
   3 C :    0.008461
   4 H :   -0.012928
   5 H :    0.042788
   6 H :   -0.000117
   7 H :    0.019902

  Mayer bond orders larger than 0.100000
B(  0-C ,  1-O ) :   2.2397 B(  0-C ,  2-C ) :   0.9620 B(  0-C ,  4-H ) :   0.9103
B(  2-C ,  3-C ) :   2.0429 B(  2-C ,  5-H ) :   0.9222 B(  3-C ,  6-H ) :   0.9510
B(  3-C ,  7-H ) :   0.9171

-----------------------------------------------------------------------------
         ABSORPTION SPECTRUM VIA TRANSITION ELECTRIC DIPOLE MOMENTS
-----------------------------------------------------------------------------
State   Energy    Wavelength  fosc         T2        TX        TY        TZ
        (cm-1)      (nm)                 (au**2)    (au)      (au)      (au)
-----------------------------------------------------------------------------
   1   31569.0    316.8   0.000150664   0.00157  -0.03645   0.01490   0.00451

FINAL SINGLE POINT ENERGY      -191.613591934926

DIPOLE MOMENT
-------------
                                X             Y             Z
Electronic contribution:     -2.26508      -1.91222       0.64213
Nuclear contribution   :      2.57413       2.66979      -0.98270
                        -----------------------------------------
Total Dipole Moment    :      0.30904       0.75757      -0.34057
                        -----------------------------------------
Magnitude (a.u.)       :      0.88623
Magnitude (Debye)      :      2.25262

Rotational constants in cm-1:     0.809432     0.192778     0.161326
Rotational constants in MHz : 24266.168934  5779.348012  4836.429514

                             ****ORCA TERMINATED NORMALLY****
TOTAL RUN TIME: 0 days 0 hours 3 minutes 20 seconds 427 msec
