                         Program Version 5.0.3 -  RELEASE  -
|  1> ! HF-3c
|  2> !TightSCF
|  3> %scf
|  4>  ConvForced true
|  5>  convergence tight
|  6>  MaxIter 500
|  7> end
|  8>
|  9> %tddft
| 10>  nroots 1
| 11> end
| 12>
| 13> # 	3591
| 14> * xyz 0 1
| 15> 		C   -1.224063  -0.317563   0.018626
| 16> 		O   -1.803068  -0.780089  -0.932160
| 17> 		C   -0.025006   0.527636  -0.191006
| 18> 		C    1.207388  -0.006495   0.122146
| 19> 		H   -1.453825  -0.578775   1.047652
| 20> 		H   -0.066537   1.610928  -0.863853
| 21> 		H    1.203791  -0.956738   0.694265
| 22> 		H    2.121124   0.560430   0.102971
| 23> *
| 24>
| 25>                          ****END OF INPUT****

CARTESIAN COORDINATES (ANGSTROEM)
---------------------------------
  C     -1.224063   -0.317563    0.018626
  O     -1.803068   -0.780089   -0.932160
  C     -0.025006    0.527636   -0.191006
  C      1.207388   -0.006495    0.122146
  H     -1.453825   -0.578775    1.047652
  H     -0.066537    1.610928   -0.863853
  H      1.203791   -0.956738    0.694265
  H      2.121124    0.560430    0.102971

 Total Charge           Charge          ....    0
 Multiplicity           Mult            ....    1
 Number of Electrons    NEL             ....   30
 Basis Dimension        Dim             ....   24

ORBITAL ENERGIES
----------------

  NO   OCC          E(Eh)            E(eV)
   0   2.0000     -20.378210      -554.5193
   1   2.0000     -11.304048      -307.5988
   2   2.0000     -11.181342      -304.2598
   3   2.0000     -11.167751      -303.8900
   4   2.0000      -1.413337       -38.4589
   5   2.0000      -1.056918       -28.7602
   6   2.0000      -0.874631       -23.7999
   7   2.0000      -0.760944       -20.7063
   8   2.0000      -0.657126       -17.8813
   9   2.0000      -0.633861       -17.2482
  10   2.0000      -0.594283       -16.1713
  11   2.0000      -0.536001       -14.5853
  12   2.0000      -0.493407       -13.4263
  13   2.0000      -0.416349       -11.3294
  14   2.0000      -0.379219       -10.3191
  15   0.0000       0.158958         4.3255
  16   0.0000       0.236714         6.4413
  17   0.0000       0.479534        13.0488
  18   0.0000       0.581288        15.8177
  19   0.0000       0.669187        18.2095

MULLIKEN ATOMIC CHARGES
-----------------------
   0 C :    0.157849
   1 O :   -0.340092
   2 C :   -0.136894
   3 C :   -0.252484
   4 H :    0.144024
   5 H :    0.158121
   6 H :    0.130228
   7 H :    0.139248
Sum of atomic charges:    0.0000000

LOEWDIN ATOMIC CHARGES
----------------------
   0 C :    0.144033
   1 O :   -0.243277
   2 C :   -0.107874
   3 C :   -0.164259
   4 H :    0.077682
   5 H :    0.119072
   6 H :    0.085000
   7 H :    0.089622

  Mayer bond orders larger than 0.100000
B(  0-C ,  1-O ) :   1.9349 B(  0-C ,  2-C ) :   1.0004 B(  0-C ,  4-H ) :   0.9210
B(  2-C ,  3-C ) :   1.9785 B(  2-C ,  5-H ) :   0.9411 B(  3-C ,  6-H ) :   0.9666
B(  3-C ,  7-H ) :   0.9663

-----------------------------------------------------------------------------
         ABSORPTION SPECTRUM VIA TRANSITION ELECTRIC DIPOLE MOMENTS
-----------------------------------------------------------------------------
State   Energy    Wavelength  fosc         T2        TX        TY        TZ
        (cm-1)      (nm)                 (au**2)    (au)      (au)      (au)
-----------------------------------------------------------------------------
   1   33879.3    295.2   0.000202554   0.00197  -0.04265  -0.00773  -0.00948

Dispersion correction           -0.025003714
FINAL SINGLE POINT ENERGY      -189.300742654231

DIPOLE MOMENT
-------------
                                X             Y             Z
Electronic contribution:     -2.96779      -0.77727      -1.19403
Nuclear contribution   :      3.51626       1.21631       1.88289
                        -----------------------------------------
Total Dipole Moment    :      0.54848       0.43904       0.68885
                        -----------------------------------------
Magnitude (a.u.)       :      0.98392
Magnitude (Debye)      :      2.50093

Rotational constants in cm-1:     0.989533     0.165255     0.160117
Rotational constants in MHz : 29665.452701  4954.229003  4800.187687

                             ****ORCA TERMINATED NORMALLY****
TOTAL RUN TIME: 0 days 0 hours 0 minutes 11 seconds 799 msec
