                         Program Version 5.0.3 -  RELEASE  -
|  1> ! B3LYP cc-pVDZ
|  2> !TightSCF
|  3> %scf
|  4>  ConvForced true
|  5>  convergence tight
|  6>  MaxIter 500
|  7> end
|  8>
|  9> %tddft
| 10>  nroots 1
| 11> end
| 12>
| 13> # 	1303
| 14> * xyz 0 1
| 15> 		C   -1.180115  -0.294386  -0.065203
| 16> 		O   -1.196959  -1.429802   0.355956
| 17> 		C    0.026705   0.625067   0.104820
| 18> 		C    1.180771   0.002227  -0.095652
| 19> 		H   -2.020692   0.101871  -0.463488
| 20> 		H   -0.228689   1.667796   0.354319
| 21> 		H    1.254146  -1.095228  -0.333851
| 22> 		H    2.217683   0.429534   0.105213
| 23> *
| 24>
| 25>                          ****END OF INPUT****

CARTESIAN COORDINATES (ANGSTROEM)
---------------------------------
  C     -1.180115   -0.294386   -0.065203
  O     -1.196959   -1.429802    0.355956
  C      0.026705    0.625067    0.104820
  C      1.180771    0.002227   -0.095652
  H     -2.020692    0.101871   -0.463488
  H     -0.228689    1.667796    0.354319
  H      1.254146   -1.095228   -0.333851
  H      2.217683    0.429534    0.105213

 Total Charge           Charge          ....    0
 Multiplicity           Mult            ....    1
 Number of Electrons    NEL             ....   30
 Basis Dimension        Dim             ....   76

ORBITAL ENERGIES
----------------

  NO   OCC          E(Eh)            E(eV)
   0   2.0000     -19.136728      -520.7368
   1   2.0000     -10.266863      -279.3756
   2   2.0000     -10.213381      -277.9202
   3   2.0000     -10.207081      -277.7488
   4   2.0000      -1.045187       -28.4410
   5   2.0000      -0.789112       -21.4728
   6   2.0000      -0.651067       -17.7164
   7   2.0000      -0.556530       -15.1440
   8   2.0000      -0.499860       -13.6019
   9   2.0000      -0.448861       -12.2141
  10   2.0000      -0.434606       -11.8262
  11   2.0000      -0.387656       -10.5487
  12   2.0000      -0.367363        -9.9965
  13   2.0000      -0.288011        -7.8372
  14   2.0000      -0.251621        -6.8470
  15   0.0000      -0.052512        -1.4289
  16   0.0000       0.029750         0.8095
  17   0.0000       0.073713         2.0058
  18   0.0000       0.088294         2.4026
  19   0.0000       0.122271         3.3272

MULLIKEN ATOMIC CHARGES
-----------------------
   0 C :    0.221858
   1 O :   -0.196808
   2 C :   -0.100928
   3 C :    0.024615
   4 H :   -0.042740
   5 H :    0.008622
   6 H :    0.048695
   7 H :    0.036687
Sum of atomic charges:    0.0000000

LOEWDIN ATOMIC CHARGES
----------------------
   0 C :   -0.005614
   1 O :   -0.000136
   2 C :   -0.070635
   3 C :   -0.006595
   4 H :   -0.024322
   5 H :    0.032547
   6 H :    0.040242
   7 H :    0.034513

  Mayer bond orders larger than 0.100000
B(  0-C ,  1-O ) :   2.1928 B(  0-C ,  2-C ) :   1.0173 B(  0-C ,  4-H ) :   0.9352
B(  2-C ,  3-C ) :   1.9765 B(  2-C ,  5-H ) :   0.9488 B(  3-C ,  6-H ) :   0.9349
B(  3-C ,  7-H ) :   0.9530

-----------------------------------------------------------------------------
         ABSORPTION SPECTRUM VIA TRANSITION ELECTRIC DIPOLE MOMENTS
-----------------------------------------------------------------------------
State   Energy    Wavelength  fosc         T2        TX        TY        TZ
        (cm-1)      (nm)                 (au**2)    (au)      (au)      (au)
-----------------------------------------------------------------------------
   1   30165.7    331.5   0.000124211   0.00136   0.03648  -0.00464   0.00171

FINAL SINGLE POINT ENERGY      -191.652042653019

DIPOLE MOMENT
-------------
                                X             Y             Z
Electronic contribution:     -2.06946      -1.37507       0.36986
Nuclear contribution   :      2.31117       2.20832      -0.62625
                        -----------------------------------------
Total Dipole Moment    :      0.24171       0.83324      -0.25639
                        -----------------------------------------
Magnitude (a.u.)       :      0.90469
Magnitude (Debye)      :      2.29953

Rotational constants in cm-1:     0.730922     0.211634     0.169746
Rotational constants in MHz : 21912.504735  6344.633835  5088.856965

                             ****ORCA TERMINATED NORMALLY****
TOTAL RUN TIME: 0 days 0 hours 3 minutes 21 seconds 802 msec
