                         Program Version 5.0.3 -  RELEASE  -
|  1> ! HF-3c
|  2> !TightSCF
|  3> %scf
|  4>  ConvForced true
|  5>  convergence tight
|  6>  MaxIter 500
|  7> end
|  8>
|  9> %tddft
| 10>  nroots 1
| 11> end
| 12>
| 13> # 	4903
| 14> * xyz 0 1
| 15> 		C   -1.152164  -0.326957  -0.000753
| 16> 		O   -1.309130  -1.430987   0.370189
| 17> 		C    0.023474   0.545419   0.129557
| 18> 		C    1.212396   0.002653  -0.073629
| 19> 		H   -1.942264   0.204620  -0.447933
| 20> 		H   -0.249074   1.648687   0.244692
| 21> 		H    1.271478  -1.161976  -0.272931
| 22> 		H    2.124054   0.599900   0.082957
| 23> *
| 24>
| 25>                          ****END OF INPUT****

CARTESIAN COORDINATES (ANGSTROEM)
---------------------------------
  C     -1.152164   -0.326957   -0.000753
  O     -1.309130   -1.430987    0.370189
  C      0.023474    0.545419    0.129557
  C      1.212396    0.002653   -0.073629
  H     -1.942264    0.204620   -0.447933
  H     -0.249074    1.648687    0.244692
  H      1.271478   -1.161976   -0.272931
  H      2.124054    0.599900    0.082957

 Total Charge           Charge          ....    0
 Multiplicity           Mult            ....    1
 Number of Electrons    NEL             ....   30
 Basis Dimension        Dim             ....   24

ORBITAL ENERGIES
----------------

  NO   OCC          E(Eh)            E(eV)
   0   2.0000     -20.377913      -554.5112
   1   2.0000     -11.301835      -307.5386
   2   2.0000     -11.186386      -304.3970
   3   2.0000     -11.182947      -304.3035
   4   2.0000      -1.428916       -38.8828
   5   2.0000      -1.080965       -29.4146
   6   2.0000      -0.893217       -24.3057
   7   2.0000      -0.743682       -20.2366
   8   2.0000      -0.697191       -18.9715
   9   2.0000      -0.613962       -16.7068
  10   2.0000      -0.611165       -16.6307
  11   2.0000      -0.541475       -14.7343
  12   2.0000      -0.526756       -14.3338
  13   2.0000      -0.411110       -11.1869
  14   2.0000      -0.395744       -10.7687
  15   0.0000       0.152238         4.1426
  16   0.0000       0.296434         8.0664
  17   0.0000       0.515282        14.0215
  18   0.0000       0.597579        16.2610
  19   0.0000       0.624109        16.9829

MULLIKEN ATOMIC CHARGES
-----------------------
   0 C :    0.171771
   1 O :   -0.357198
   2 C :   -0.176648
   3 C :   -0.214505
   4 H :    0.125882
   5 H :    0.148052
   6 H :    0.159064
   7 H :    0.143581
Sum of atomic charges:    0.0000000

LOEWDIN ATOMIC CHARGES
----------------------
   0 C :    0.149475
   1 O :   -0.250653
   2 C :   -0.139330
   3 C :   -0.124971
   4 H :    0.057812
   5 H :    0.100418
   6 H :    0.113178
   7 H :    0.094071

  Mayer bond orders larger than 0.100000
B(  0-C ,  1-O ) :   1.9198 B(  0-C ,  2-C ) :   1.0094 B(  0-C ,  4-H ) :   0.9233
B(  2-C ,  3-C ) :   1.9612 B(  2-C ,  5-H ) :   0.9524 B(  3-C ,  6-H ) :   0.9540
B(  3-C ,  7-H ) :   0.9629

-----------------------------------------------------------------------------
         ABSORPTION SPECTRUM VIA TRANSITION ELECTRIC DIPOLE MOMENTS
-----------------------------------------------------------------------------
State   Energy    Wavelength  fosc         T2        TX        TY        TZ
        (cm-1)      (nm)                 (au**2)    (au)      (au)      (au)
-----------------------------------------------------------------------------
   1   35215.4    284.0   0.000332851   0.00311   0.05553   0.00369  -0.00377

Dispersion correction           -0.025838821
FINAL SINGLE POINT ENERGY      -189.313371607412

DIPOLE MOMENT
-------------
                                X             Y             Z
Electronic contribution:     -1.95665      -1.61154       0.47489
Nuclear contribution   :      2.36874       2.46280      -0.77933
                        -----------------------------------------
Total Dipole Moment    :      0.41209       0.85126      -0.30444
                        -----------------------------------------
Magnitude (a.u.)       :      0.99355
Magnitude (Debye)      :      2.52541

Rotational constants in cm-1:     0.815252     0.202364     0.166343
Rotational constants in MHz : 24440.644441  6066.708154  4986.831913

                             ****ORCA TERMINATED NORMALLY****
TOTAL RUN TIME: 0 days 0 hours 0 minutes 12 seconds 733 msec
