                         Program Version 5.0.3 -  RELEASE  -
|  1> ! B3LYP cc-pVDZ
|  2> !TightSCF
|  3> %scf
|  4>  ConvForced true
|  5>  convergence tight
|  6>  MaxIter 500
|  7> end
|  8>
|  9> %tddft
| 10>  nroots 1
| 11> end
| 12>
| 13> # 	28903
| 14> * xyz 0 1
| 15> 		C   -0.558669  -0.394509   0.042013
| 16> 		O   -0.540729  -1.641674  -0.034800
| 17> 		C    0.597693   0.420566   0.000335
| 18> 		C    1.818393  -0.146030  -0.016211
| 19> 		H   -1.579168   0.203633   0.119353
| 20> 		H    0.359248   1.519226  -0.208785
| 21> 		H    1.651274  -1.198582   0.357116
| 22> 		H    2.928751   0.211833  -0.045740
| 23> *
| 24>
| 25>                          ****END OF INPUT****

CARTESIAN COORDINATES (ANGSTROEM)
---------------------------------
  C     -0.558669   -0.394509    0.042013
  O     -0.540729   -1.641674   -0.034800
  C      0.597693    0.420566    0.000335
  C      1.818393   -0.146030   -0.016211
  H     -1.579168    0.203633    0.119353
  H      0.359248    1.519226   -0.208785
  H      1.651274   -1.198582    0.357116
  H      2.928751    0.211833   -0.045740

 Total Charge           Charge          ....    0
 Multiplicity           Mult            ....    1
 Number of Electrons    NEL             ....   30
 Basis Dimension        Dim             ....   76

ORBITAL ENERGIES
----------------

  NO   OCC          E(Eh)            E(eV)
   0   2.0000     -19.137840      -520.7671
   1   2.0000     -10.278793      -279.7002
   2   2.0000     -10.228836      -278.3408
   3   2.0000     -10.212829      -277.9052
   4   2.0000      -1.026710       -27.9382
   5   2.0000      -0.803327       -21.8597
   6   2.0000      -0.661882       -18.0107
   7   2.0000      -0.526695       -14.3321
   8   2.0000      -0.503268       -13.6946
   9   2.0000      -0.446565       -12.1516
  10   2.0000      -0.419796       -11.4232
  11   2.0000      -0.391506       -10.6534
  12   2.0000      -0.361507        -9.8371
  13   2.0000      -0.287752        -7.8301
  14   2.0000      -0.258019        -7.0211
  15   0.0000      -0.082164        -2.2358
  16   0.0000       0.051574         1.4034
  17   0.0000       0.060637         1.6500
  18   0.0000       0.081579         2.2199
  19   0.0000       0.117255         3.1907

MULLIKEN ATOMIC CHARGES
-----------------------
   0 C :    0.160707
   1 O :   -0.224560
   2 C :   -0.098238
   3 C :    0.035488
   4 H :   -0.002872
   5 H :    0.006113
   6 H :    0.057288
   7 H :    0.066074
Sum of atomic charges:    0.0000000

LOEWDIN ATOMIC CHARGES
----------------------
   0 C :   -0.030517
   1 O :   -0.042373
   2 C :   -0.094485
   3 C :    0.025924
   4 H :    0.007954
   5 H :    0.036792
   6 H :    0.045728
   7 H :    0.050977

  Mayer bond orders larger than 0.100000
B(  0-C ,  1-O ) :   2.1172 B(  0-C ,  2-C ) :   1.1079 B(  0-C ,  4-H ) :   0.9112
B(  1-O ,  3-C ) :   0.1093 B(  2-C ,  3-C ) :   1.8949 B(  2-C ,  5-H ) :   0.9455
B(  3-C ,  6-H ) :   0.9106 B(  3-C ,  7-H ) :   0.9515

-----------------------------------------------------------------------------
         ABSORPTION SPECTRUM VIA TRANSITION ELECTRIC DIPOLE MOMENTS
-----------------------------------------------------------------------------
State   Energy    Wavelength  fosc         T2        TX        TY        TZ
        (cm-1)      (nm)                 (au**2)    (au)      (au)      (au)
-----------------------------------------------------------------------------
   1   25845.8    386.9   0.000396854   0.00505   0.05839  -0.00087  -0.04056

FINAL SINGLE POINT ENERGY      -191.668038829608

DIPOLE MOMENT
-------------
                                X             Y             Z
Electronic contribution:     -1.50907      -1.56702      -0.14124
Nuclear contribution   :      1.99893       2.47831       0.20899
                        -----------------------------------------
Total Dipole Moment    :      0.48986       0.91129       0.06776
                        -----------------------------------------
Magnitude (a.u.)       :      1.03682
Magnitude (Debye)      :      2.63539

Rotational constants in cm-1:     0.713433     0.220688     0.169337
Rotational constants in MHz : 21388.175212  6616.071273  5076.591270

                             ****ORCA TERMINATED NORMALLY****
TOTAL RUN TIME: 0 days 0 hours 3 minutes 25 seconds 709 msec
