                         Program Version 5.0.3 -  RELEASE  -
|  1> ! B3LYP cc-pVDZ
|  2> !TightSCF
|  3> %scf
|  4>  ConvForced true
|  5>  convergence tight
|  6>  MaxIter 500
|  7> end
|  8>
|  9> %tddft
| 10>  nroots 1
| 11> end
| 12>
| 13> # 	799
| 14> * xyz 0 1
| 15> 		C   -1.152479  -0.469564   0.068436
| 16> 		O   -2.289223  -0.206317   0.487076
| 17> 		C    0.055147   0.173962   0.455756
| 18> 		C    1.146962   0.148598  -0.314390
| 19> 		H   -1.082815  -0.894818  -0.906728
| 20> 		H   -0.085254   0.795334   1.353161
| 21> 		H    1.292288  -0.528623  -1.087074
| 22> 		H    2.117555   0.928247  -0.048200
| 23> *
| 24>
| 25>                          ****END OF INPUT****

CARTESIAN COORDINATES (ANGSTROEM)
---------------------------------
  C     -1.152479   -0.469564    0.068436
  O     -2.289223   -0.206317    0.487076
  C      0.055147    0.173962    0.455756
  C      1.146962    0.148598   -0.314390
  H     -1.082815   -0.894818   -0.906728
  H     -0.085254    0.795334    1.353161
  H      1.292288   -0.528623   -1.087074
  H      2.117555    0.928247   -0.048200

 Total Charge           Charge          ....    0
 Multiplicity           Mult            ....    1
 Number of Electrons    NEL             ....   30
 Basis Dimension        Dim             ....   76

ORBITAL ENERGIES
----------------

  NO   OCC          E(Eh)            E(eV)
   0   2.0000     -19.135569      -520.7053
   1   2.0000     -10.266104      -279.3549
   2   2.0000     -10.235702      -278.5276
   3   2.0000     -10.211088      -277.8578
   4   2.0000      -1.028640       -27.9907
   5   2.0000      -0.813470       -22.1356
   6   2.0000      -0.655139       -17.8272
   7   2.0000      -0.577701       -15.7200
   8   2.0000      -0.487242       -13.2585
   9   2.0000      -0.459522       -12.5042
  10   2.0000      -0.410899       -11.1811
  11   2.0000      -0.395113       -10.7516
  12   2.0000      -0.382835       -10.4175
  13   2.0000      -0.293997        -8.0001
  14   2.0000      -0.252384        -6.8677
  15   0.0000      -0.074901        -2.0382
  16   0.0000       0.035265         0.9596
  17   0.0000       0.050077         1.3627
  18   0.0000       0.080898         2.2013
  19   0.0000       0.128405         3.4941

MULLIKEN ATOMIC CHARGES
-----------------------
   0 C :    0.191684
   1 O :   -0.223046
   2 C :   -0.036839
   3 C :    0.011001
   4 H :   -0.041235
   5 H :    0.003760
   6 H :    0.022925
   7 H :    0.071751
Sum of atomic charges:   -0.0000000

LOEWDIN ATOMIC CHARGES
----------------------
   0 C :   -0.035074
   1 O :   -0.026124
   2 C :   -0.058317
   3 C :    0.011880
   4 H :   -0.009627
   5 H :    0.036969
   6 H :    0.014953
   7 H :    0.065340

  Mayer bond orders larger than 0.100000
B(  0-C ,  1-O ) :   2.1052 B(  0-C ,  2-C ) :   1.1315 B(  0-C ,  4-H ) :   0.9314
B(  1-O ,  3-C ) :   0.1159 B(  2-C ,  3-C ) :   1.8966 B(  2-C ,  5-H ) :   0.9400
B(  3-C ,  6-H ) :   0.9369 B(  3-C ,  7-H ) :   0.9384

-----------------------------------------------------------------------------
         ABSORPTION SPECTRUM VIA TRANSITION ELECTRIC DIPOLE MOMENTS
-----------------------------------------------------------------------------
State   Energy    Wavelength  fosc         T2        TX        TY        TZ
        (cm-1)      (nm)                 (au**2)    (au)      (au)      (au)
-----------------------------------------------------------------------------
   1   25993.7    384.7   0.000276483   0.00350   0.03698   0.02566  -0.03842

FINAL SINGLE POINT ENERGY      -191.662724855522

DIPOLE MOMENT
-------------
                                X             Y             Z
Electronic contribution:     -3.14520      -0.61402       0.95199
Nuclear contribution   :      4.33863       0.59867      -1.28540
                        -----------------------------------------
Total Dipole Moment    :      1.19343      -0.01534      -0.33341
                        -----------------------------------------
Magnitude (a.u.)       :      1.23922
Magnitude (Debye)      :      3.14986

Rotational constants in cm-1:     1.613890     0.154951     0.142943
Rotational constants in MHz : 48383.203980  4645.309752  4285.335242

                             ****ORCA TERMINATED NORMALLY****
TOTAL RUN TIME: 0 days 0 hours 3 minutes 14 seconds 243 msec
