                         Program Version 5.0.3 -  RELEASE  -
|  1> ! B3LYP cc-pVDZ
|  2> !TightSCF
|  3> %scf
|  4>  ConvForced true
|  5>  convergence tight
|  6>  MaxIter 500
|  7> end
|  8>
|  9> %tddft
| 10>  nroots 1
| 11> end
| 12>
| 13> # 	24048
| 14> * xyz 0 1
| 15> 		C   -0.552442  -0.398968   0.043657
| 16> 		O   -0.613600  -1.683700  -0.039585
| 17> 		C    0.653030   0.443630   0.004241
| 18> 		C    1.848698  -0.122586   0.001825
| 19> 		H   -1.609433  -0.036303   0.157913
| 20> 		H    0.490485   1.424944  -0.313457
| 21> 		H    1.994129  -1.165387   0.279811
| 22> 		H    2.632820   0.663753  -0.115196
| 23> *
| 24>
| 25>                          ****END OF INPUT****

CARTESIAN COORDINATES (ANGSTROEM)
---------------------------------
  C     -0.552442   -0.398968    0.043657
  O     -0.613600   -1.683700   -0.039585
  C      0.653030    0.443630    0.004241
  C      1.848698   -0.122586    0.001825
  H     -1.609433   -0.036303    0.157913
  H      0.490485    1.424944   -0.313457
  H      1.994129   -1.165387    0.279811
  H      2.632820    0.663753   -0.115196

 Total Charge           Charge          ....    0
 Multiplicity           Mult            ....    1
 Number of Electrons    NEL             ....   30
 Basis Dimension        Dim             ....   76

ORBITAL ENERGIES
----------------

  NO   OCC          E(Eh)            E(eV)
   0   2.0000     -19.131514      -520.5950
   1   2.0000     -10.275168      -279.6015
   2   2.0000     -10.219526      -278.0874
   3   2.0000     -10.207141      -277.7504
   4   2.0000      -1.000729       -27.2312
   5   2.0000      -0.808406       -21.9979
   6   2.0000      -0.657654       -17.8957
   7   2.0000      -0.546868       -14.8810
   8   2.0000      -0.511903       -13.9296
   9   2.0000      -0.445878       -12.1329
  10   2.0000      -0.409357       -11.1392
  11   2.0000      -0.387682       -10.5494
  12   2.0000      -0.372878       -10.1465
  13   2.0000      -0.291364        -7.9284
  14   2.0000      -0.246034        -6.6949
  15   0.0000      -0.077625        -2.1123
  16   0.0000       0.043762         1.1908
  17   0.0000       0.065280         1.7764
  18   0.0000       0.091977         2.5028
  19   0.0000       0.116144         3.1604

MULLIKEN ATOMIC CHARGES
-----------------------
   0 C :    0.160568
   1 O :   -0.257126
   2 C :   -0.068565
   3 C :    0.091534
   4 H :   -0.000665
   5 H :   -0.010072
   6 H :    0.045761
   7 H :    0.038566
Sum of atomic charges:   -0.0000000

LOEWDIN ATOMIC CHARGES
----------------------
   0 C :    0.009118
   1 O :   -0.084853
   2 C :   -0.078550
   3 C :    0.040372
   4 H :    0.006825
   5 H :    0.023667
   6 H :    0.038614
   7 H :    0.044805

  Mayer bond orders larger than 0.100000
B(  0-C ,  1-O ) :   2.0987 B(  0-C ,  2-C ) :   1.0617 B(  0-C ,  4-H ) :   0.9438
B(  2-C ,  3-C ) :   1.9526 B(  2-C ,  5-H ) :   0.9456 B(  3-C ,  6-H ) :   0.9343
B(  3-C ,  7-H ) :   0.9336

-----------------------------------------------------------------------------
         ABSORPTION SPECTRUM VIA TRANSITION ELECTRIC DIPOLE MOMENTS
-----------------------------------------------------------------------------
State   Energy    Wavelength  fosc         T2        TX        TY        TZ
        (cm-1)      (nm)                 (au**2)    (au)      (au)      (au)
-----------------------------------------------------------------------------
   1   23764.3    420.8   0.000252403   0.00350  -0.04117  -0.00912   0.04145

FINAL SINGLE POINT ENERGY      -191.678127501743

DIPOLE MOMENT
-------------
                                X             Y             Z
Electronic contribution:     -1.64326      -1.59986       0.01246
Nuclear contribution   :      2.13078       2.62028       0.00974
                        -----------------------------------------
Total Dipole Moment    :      0.48752       1.02042       0.02220
                        -----------------------------------------
Magnitude (a.u.)       :      1.13112
Magnitude (Debye)      :      2.87507

Rotational constants in cm-1:     0.763017     0.201646     0.160299
Rotational constants in MHz : 22874.686081  6045.209783  4805.629447

                             ****ORCA TERMINATED NORMALLY****
TOTAL RUN TIME: 0 days 0 hours 3 minutes 21 seconds 685 msec
