                         Program Version 5.0.3 -  RELEASE  -
|  1> ! B3LYP cc-pVDZ
|  2> !TightSCF
|  3> %scf
|  4>  ConvForced true
|  5>  convergence tight
|  6>  MaxIter 500
|  7> end
|  8>
|  9> %tddft
| 10>  nroots 1
| 11> end
| 12>
| 13> # 	12383
| 14> * xyz 0 1
| 15> 		C   -1.151986  -0.354527  -0.040343
| 16> 		O   -1.240969  -1.445072  -0.423135
| 17> 		C    0.031385   0.510852  -0.135401
| 18> 		C    1.223053  -0.055857   0.071598
| 19> 		H   -2.136144   0.194408   0.444965
| 20> 		H   -0.194551   1.687377  -0.207278
| 21> 		H    1.387137  -1.083555   0.312649
| 22> 		H    2.072459   0.556473  -0.071178
| 23> *
| 24>
| 25>                          ****END OF INPUT****

CARTESIAN COORDINATES (ANGSTROEM)
---------------------------------
  C     -1.151986   -0.354527   -0.040343
  O     -1.240969   -1.445072   -0.423135
  C      0.031385    0.510852   -0.135401
  C      1.223053   -0.055857    0.071598
  H     -2.136144    0.194408    0.444965
  H     -0.194551    1.687377   -0.207278
  H      1.387137   -1.083555    0.312649
  H      2.072459    0.556473   -0.071178

 Total Charge           Charge          ....    0
 Multiplicity           Mult            ....    1
 Number of Electrons    NEL             ....   30
 Basis Dimension        Dim             ....   76

ORBITAL ENERGIES
----------------

  NO   OCC          E(Eh)            E(eV)
   0   2.0000     -19.142230      -520.8866
   1   2.0000     -10.277386      -279.6619
   2   2.0000     -10.214976      -277.9636
   3   2.0000     -10.209058      -277.8026
   4   2.0000      -1.079065       -29.3628
   5   2.0000      -0.798438       -21.7266
   6   2.0000      -0.651840       -17.7375
   7   2.0000      -0.529886       -14.4189
   8   2.0000      -0.504152       -13.7187
   9   2.0000      -0.456612       -12.4250
  10   2.0000      -0.438728       -11.9384
  11   2.0000      -0.400882       -10.9086
  12   2.0000      -0.390292       -10.6204
  13   2.0000      -0.291189        -7.9237
  14   2.0000      -0.251941        -6.8556
  15   0.0000      -0.056267        -1.5311
  16   0.0000       0.044690         1.2161
  17   0.0000       0.058408         1.5894
  18   0.0000       0.092345         2.5128
  19   0.0000       0.106473         2.8973

MULLIKEN ATOMIC CHARGES
-----------------------
   0 C :    0.137948
   1 O :   -0.136359
   2 C :   -0.148380
   3 C :    0.101904
   4 H :   -0.043721
   5 H :    0.037078
   6 H :    0.031658
   7 H :    0.019872
Sum of atomic charges:    0.0000000

LOEWDIN ATOMIC CHARGES
----------------------
   0 C :   -0.079204
   1 O :    0.051270
   2 C :   -0.080256
   3 C :    0.020105
   4 H :   -0.020419
   5 H :    0.053500
   6 H :    0.029942
   7 H :    0.025061

  Mayer bond orders larger than 0.100000
B(  0-C ,  1-O ) :   2.2637 B(  0-C ,  2-C ) :   1.0261 B(  0-C ,  4-H ) :   0.8793
B(  2-C ,  3-C ) :   1.9711 B(  2-C ,  5-H ) :   0.9293 B(  3-C ,  6-H ) :   0.9462
B(  3-C ,  7-H ) :   0.9427

-----------------------------------------------------------------------------
         ABSORPTION SPECTRUM VIA TRANSITION ELECTRIC DIPOLE MOMENTS
-----------------------------------------------------------------------------
State   Energy    Wavelength  fosc         T2        TX        TY        TZ
        (cm-1)      (nm)                 (au**2)    (au)      (au)      (au)
-----------------------------------------------------------------------------
   1   30679.4    326.0   0.001268784   0.01361  -0.11118  -0.02241  -0.02744

FINAL SINGLE POINT ENERGY      -191.647653225004

DIPOLE MOMENT
-------------
                                X             Y             Z
Electronic contribution:     -1.70068      -1.90435      -0.71678
Nuclear contribution   :      2.21580       2.63036       0.94981
                        -----------------------------------------
Total Dipole Moment    :      0.51512       0.72601       0.23303
                        -----------------------------------------
Magnitude (a.u.)       :      0.92019
Magnitude (Debye)      :      2.33893

Rotational constants in cm-1:     0.778408     0.207624     0.168414
Rotational constants in MHz : 23336.083530  6224.415965  5048.927181

                             ****ORCA TERMINATED NORMALLY****
TOTAL RUN TIME: 0 days 0 hours 3 minutes 15 seconds 987 msec
