                         Program Version 5.0.3 -  RELEASE  -
|  1> ! HF-3c
|  2> !TightSCF
|  3> %scf
|  4>  ConvForced true
|  5>  convergence tight
|  6>  MaxIter 500
|  7> end
|  8>
|  9> %tddft
| 10>  nroots 1
| 11> end
| 12>
| 13> # 	9546
| 14> * xyz 0 1
| 15> 		C   -1.212849  -0.341712  -0.075683
| 16> 		O   -1.393621  -1.353556   0.501940
| 17> 		C    0.020853   0.505855   0.069101
| 18> 		C    1.214911   0.048000  -0.187668
| 19> 		H   -1.953728   0.166351  -0.739332
| 20> 		H   -0.014669   1.535588   0.712121
| 21> 		H    1.106573  -1.172101  -0.435366
| 22> 		H    2.202684   0.562617   0.109543
| 23> *
| 24>
| 25>                          ****END OF INPUT****

CARTESIAN COORDINATES (ANGSTROEM)
---------------------------------
  C     -1.212849   -0.341712   -0.075683
  O     -1.393621   -1.353556    0.501940
  C      0.020853    0.505855    0.069101
  C      1.214911    0.048000   -0.187668
  H     -1.953728    0.166351   -0.739332
  H     -0.014669    1.535588    0.712121
  H      1.106573   -1.172101   -0.435366
  H      2.202684    0.562617    0.109543

 Total Charge           Charge          ....    0
 Multiplicity           Mult            ....    1
 Number of Electrons    NEL             ....   30
 Basis Dimension        Dim             ....   24

ORBITAL ENERGIES
----------------

  NO   OCC          E(Eh)            E(eV)
   0   2.0000     -20.391018      -554.8678
   1   2.0000     -11.309846      -307.7566
   2   2.0000     -11.169328      -303.9329
   3   2.0000     -11.164664      -303.8060
   4   2.0000      -1.434118       -39.0243
   5   2.0000      -1.066016       -29.0078
   6   2.0000      -0.869759       -23.6673
   7   2.0000      -0.726406       -19.7665
   8   2.0000      -0.674735       -18.3605
   9   2.0000      -0.622145       -16.9294
  10   2.0000      -0.601020       -16.3546
  11   2.0000      -0.531510       -14.4631
  12   2.0000      -0.481677       -13.1071
  13   2.0000      -0.406821       -11.0702
  14   2.0000      -0.393635       -10.7113
  15   0.0000       0.178437         4.8555
  16   0.0000       0.252500         6.8709
  17   0.0000       0.489929        13.3317
  18   0.0000       0.543890        14.8000
  19   0.0000       0.562197        15.2982

MULLIKEN ATOMIC CHARGES
-----------------------
   0 C :    0.182971
   1 O :   -0.349982
   2 C :   -0.174536
   3 C :   -0.226573
   4 H :    0.135813
   5 H :    0.144639
   6 H :    0.142919
   7 H :    0.144749
Sum of atomic charges:   -0.0000000

LOEWDIN ATOMIC CHARGES
----------------------
   0 C :    0.157272
   1 O :   -0.242018
   2 C :   -0.144125
   3 C :   -0.152276
   4 H :    0.071583
   5 H :    0.103817
   6 H :    0.105637
   7 H :    0.100111

  Mayer bond orders larger than 0.100000
B(  0-C ,  1-O ) :   1.9490 B(  0-C ,  2-C ) :   0.9793 B(  0-C ,  4-H ) :   0.9134
B(  2-C ,  3-C ) :   1.9988 B(  2-C ,  5-H ) :   0.9412 B(  3-C ,  6-H ) :   0.9508
B(  3-C ,  7-H ) :   0.9583

-----------------------------------------------------------------------------
         ABSORPTION SPECTRUM VIA TRANSITION ELECTRIC DIPOLE MOMENTS
-----------------------------------------------------------------------------
State   Energy    Wavelength  fosc         T2        TX        TY        TZ
        (cm-1)      (nm)                 (au**2)    (au)      (au)      (au)
-----------------------------------------------------------------------------
   1   36169.4    276.5   0.000075533   0.00069  -0.01678  -0.00844  -0.01829

Dispersion correction           -0.025377013
FINAL SINGLE POINT ENERGY      -189.275391108169

DIPOLE MOMENT
-------------
                                X             Y             Z
Electronic contribution:     -2.30976      -1.46116       0.38601
Nuclear contribution   :      2.62636       2.21492      -0.68274
                        -----------------------------------------
Total Dipole Moment    :      0.31659       0.75376      -0.29673
                        -----------------------------------------
Magnitude (a.u.)       :      0.86973
Magnitude (Debye)      :      2.21068

Rotational constants in cm-1:     0.849681     0.187480     0.163902
Rotational constants in MHz : 25472.792988  5620.497092  4913.668573

                             ****ORCA TERMINATED NORMALLY****
TOTAL RUN TIME: 0 days 0 hours 0 minutes 11 seconds 384 msec
