                         Program Version 5.0.3 -  RELEASE  -
|  1> ! HF-3c
|  2> !TightSCF
|  3> %scf
|  4>  ConvForced true
|  5>  convergence tight
|  6>  MaxIter 500
|  7> end
|  8>
|  9> %tddft
| 10>  nroots 1
| 11> end
| 12>
| 13> # 	29009
| 14> * xyz 0 1
| 15> 		C   -0.579632  -0.440758  -0.057568
| 16> 		O   -0.650914  -1.681159   0.019312
| 17> 		C    0.642666   0.389556  -0.002158
| 18> 		C    1.916900  -0.061802  -0.002496
| 19> 		H   -1.536984   0.139166   0.240844
| 20> 		H    0.461048   1.458293   0.130487
| 21> 		H    2.153200  -1.039799   0.030445
| 22> 		H    2.639756   0.729625   0.037267
| 23> *
| 24>
| 25>                          ****END OF INPUT****

CARTESIAN COORDINATES (ANGSTROEM)
---------------------------------
  C     -0.579632   -0.440758   -0.057568
  O     -0.650914   -1.681159    0.019312
  C      0.642666    0.389556   -0.002158
  C      1.916900   -0.061802   -0.002496
  H     -1.536984    0.139166    0.240844
  H      0.461048    1.458293    0.130487
  H      2.153200   -1.039799    0.030445
  H      2.639756    0.729625    0.037267

 Total Charge           Charge          ....    0
 Multiplicity           Mult            ....    1
 Number of Electrons    NEL             ....   30
 Basis Dimension        Dim             ....   24

ORBITAL ENERGIES
----------------

  NO   OCC          E(Eh)            E(eV)
   0   2.0000     -20.357797      -553.9638
   1   2.0000     -11.285116      -307.0836
   2   2.0000     -11.198005      -304.7132
   3   2.0000     -11.194485      -304.6174
   4   2.0000      -1.374750       -37.4088
   5   2.0000      -1.080727       -29.4081
   6   2.0000      -0.900421       -24.5017
   7   2.0000      -0.747384       -20.3374
   8   2.0000      -0.698571       -19.0091
   9   2.0000      -0.616708       -16.7815
  10   2.0000      -0.592515       -16.1232
  11   2.0000      -0.540564       -14.7095
  12   2.0000      -0.524806       -14.2807
  13   2.0000      -0.411246       -11.1906
  14   2.0000      -0.389722       -10.6049
  15   0.0000       0.115151         3.1334
  16   0.0000       0.294206         8.0058
  17   0.0000       0.550955        14.9922
  18   0.0000       0.614551        16.7228
  19   0.0000       0.667711        18.1693

MULLIKEN ATOMIC CHARGES
-----------------------
   0 C :    0.153568
   1 O :   -0.342514
   2 C :   -0.162676
   3 C :   -0.233503
   4 H :    0.133420
   5 H :    0.141859
   6 H :    0.158040
   7 H :    0.151806
Sum of atomic charges:   -0.0000000

LOEWDIN ATOMIC CHARGES
----------------------
   0 C :    0.137738
   1 O :   -0.257034
   2 C :   -0.118863
   3 C :   -0.125179
   4 H :    0.076022
   5 H :    0.090243
   6 H :    0.097354
   7 H :    0.099721

  Mayer bond orders larger than 0.100000
B(  0-C ,  1-O ) :   1.8985 B(  0-C ,  2-C ) :   1.0361 B(  0-C ,  4-H ) :   0.9257
B(  2-C ,  3-C ) :   1.9377 B(  2-C ,  5-H ) :   0.9605 B(  3-C ,  6-H ) :   0.9643
B(  3-C ,  7-H ) :   0.9641

-----------------------------------------------------------------------------
         ABSORPTION SPECTRUM VIA TRANSITION ELECTRIC DIPOLE MOMENTS
-----------------------------------------------------------------------------
State   Energy    Wavelength  fosc         T2        TX        TY        TZ
        (cm-1)      (nm)                 (au**2)    (au)      (au)      (au)
-----------------------------------------------------------------------------
   1   28810.9    347.1   0.000073665   0.00084  -0.02372   0.00263   0.01650

Dispersion correction           -0.025270425
FINAL SINGLE POINT ENERGY      -189.344400452773

DIPOLE MOMENT
-------------
                                X             Y             Z
Electronic contribution:     -1.98166      -1.96450      -0.35244
Nuclear contribution   :      2.32755       2.99432       0.41190
                        -----------------------------------------
Total Dipole Moment    :      0.34589       1.02982       0.05947
                        -----------------------------------------
Magnitude (a.u.)       :      1.08798
Magnitude (Debye)      :      2.76542

Rotational constants in cm-1:     0.803075     0.190519     0.154337
Rotational constants in MHz : 24075.576011  5711.620072  4626.900946

                             ****ORCA TERMINATED NORMALLY****
TOTAL RUN TIME: 0 days 0 hours 0 minutes 16 seconds 77 msec
