                         Program Version 5.0.3 -  RELEASE  -
|  1> ! B3LYP cc-pVDZ
|  2> !TightSCF
|  3> %scf
|  4>  ConvForced true
|  5>  convergence tight
|  6>  MaxIter 500
|  7> end
|  8>
|  9> %tddft
| 10>  nroots 1
| 11> end
| 12>
| 13> # 	29643
| 14> * xyz 0 1
| 15> 		C   -0.476947  -0.394269  -0.025891
| 16> 		O   -0.543111  -1.640598   0.000330
| 17> 		C    0.589215   0.471010  -0.003561
| 18> 		C    1.731390  -0.210249   0.036406
| 19> 		H   -1.387441   0.286056   0.270982
| 20> 		H    0.564475   1.604858  -0.163287
| 21> 		H    1.810456  -1.355826  -0.175264
| 22> 		H    2.673573   0.376266  -0.030493
| 23> *
| 24>
| 25>                          ****END OF INPUT****

CARTESIAN COORDINATES (ANGSTROEM)
---------------------------------
  C     -0.476947   -0.394269   -0.025891
  O     -0.543111   -1.640598    0.000330
  C      0.589215    0.471010   -0.003561
  C      1.731390   -0.210249    0.036406
  H     -1.387441    0.286056    0.270982
  H      0.564475    1.604858   -0.163287
  H      1.810456   -1.355826   -0.175264
  H      2.673573    0.376266   -0.030493

 Total Charge           Charge          ....    0
 Multiplicity           Mult            ....    1
 Number of Electrons    NEL             ....   30
 Basis Dimension        Dim             ....   76

ORBITAL ENERGIES
----------------

  NO   OCC          E(Eh)            E(eV)
   0   2.0000     -19.135472      -520.7027
   1   2.0000     -10.271339      -279.4973
   2   2.0000     -10.226357      -278.2733
   3   2.0000     -10.208132      -277.7774
   4   2.0000      -1.023945       -27.8630
   5   2.0000      -0.820581       -22.3291
   6   2.0000      -0.664854       -18.0916
   7   2.0000      -0.530926       -14.4472
   8   2.0000      -0.507822       -13.8185
   9   2.0000      -0.446723       -12.1559
  10   2.0000      -0.412448       -11.2233
  11   2.0000      -0.383214       -10.4278
  12   2.0000      -0.377649       -10.2764
  13   2.0000      -0.290401        -7.9022
  14   2.0000      -0.249490        -6.7890
  15   0.0000      -0.082837        -2.2541
  16   0.0000       0.042084         1.1452
  17   0.0000       0.064740         1.7617
  18   0.0000       0.086405         2.3512
  19   0.0000       0.118655         3.2288

MULLIKEN ATOMIC CHARGES
-----------------------
   0 C :    0.190213
   1 O :   -0.228115
   2 C :   -0.113994
   3 C :    0.048125
   4 H :   -0.033976
   5 H :    0.031388
   6 H :    0.079114
   7 H :    0.027244
Sum of atomic charges:   -0.0000000

LOEWDIN ATOMIC CHARGES
----------------------
   0 C :   -0.039805
   1 O :   -0.045650
   2 C :   -0.100073
   3 C :    0.050910
   4 H :   -0.007103
   5 H :    0.054626
   6 H :    0.058060
   7 H :    0.029033

  Mayer bond orders larger than 0.100000
B(  0-C ,  1-O ) :   2.1258 B(  0-C ,  2-C ) :   1.1231 B(  0-C ,  4-H ) :   0.9096
B(  1-O ,  3-C ) :   0.1148 B(  2-C ,  3-C ) :   1.8955 B(  2-C ,  5-H ) :   0.9467
B(  3-C ,  6-H ) :   0.9282 B(  3-C ,  7-H ) :   0.9395

-----------------------------------------------------------------------------
         ABSORPTION SPECTRUM VIA TRANSITION ELECTRIC DIPOLE MOMENTS
-----------------------------------------------------------------------------
State   Energy    Wavelength  fosc         T2        TX        TY        TZ
        (cm-1)      (nm)                 (au**2)    (au)      (au)      (au)
-----------------------------------------------------------------------------
   1   24174.6    413.7   0.000673849   0.00918  -0.07646  -0.00887  -0.05702

FINAL SINGLE POINT ENERGY      -191.659816818506

DIPOLE MOMENT
-------------
                                X             Y             Z
Electronic contribution:     -1.61229      -1.67118      -0.00913
Nuclear contribution   :      2.27453       2.64063      -0.09132
                        -----------------------------------------
Total Dipole Moment    :      0.66224       0.96945      -0.10045
                        -----------------------------------------
Magnitude (a.u.)       :      1.17834
Magnitude (Debye)      :      2.99511

Rotational constants in cm-1:     0.712797     0.235182     0.177420
Rotational constants in MHz : 21369.116970  7050.593245  5318.930354

                             ****ORCA TERMINATED NORMALLY****
TOTAL RUN TIME: 0 days 0 hours 3 minutes 23 seconds 540 msec
