                         Program Version 5.0.3 -  RELEASE  -
|  1> ! HF-3c
|  2> !TightSCF
|  3> %scf
|  4>  ConvForced true
|  5>  convergence tight
|  6>  MaxIter 500
|  7> end
|  8>
|  9> %tddft
| 10>  nroots 1
| 11> end
| 12>
| 13> # 	17590
| 14> * xyz 0 1
| 15> 		C   -1.266931  -0.291168  -0.035913
| 16> 		O   -1.677865  -1.022301  -0.792791
| 17> 		C   -0.065095   0.547517  -0.138999
| 18> 		C    1.166029  -0.035121   0.168858
| 19> 		H   -1.608513  -0.380711   0.922825
| 20> 		H   -0.089184   1.572373  -0.644485
| 21> 		H    1.328711  -0.983535   0.588888
| 22> 		H    2.144009   0.573769  -0.011303
| 23> *
| 24>
| 25>                          ****END OF INPUT****

CARTESIAN COORDINATES (ANGSTROEM)
---------------------------------
  C     -1.266931   -0.291168   -0.035913
  O     -1.677865   -1.022301   -0.792791
  C     -0.065095    0.547517   -0.138999
  C      1.166029   -0.035121    0.168858
  H     -1.608513   -0.380711    0.922825
  H     -0.089184    1.572373   -0.644485
  H      1.328711   -0.983535    0.588888
  H      2.144009    0.573769   -0.011303

 Total Charge           Charge          ....    0
 Multiplicity           Mult            ....    1
 Number of Electrons    NEL             ....   30
 Basis Dimension        Dim             ....   24

ORBITAL ENERGIES
----------------

  NO   OCC          E(Eh)            E(eV)
   0   2.0000     -20.404858      -555.2444
   1   2.0000     -11.326073      -308.1981
   2   2.0000     -11.183603      -304.3213
   3   2.0000     -11.176196      -304.1198
   4   2.0000      -1.476783       -40.1853
   5   2.0000      -1.060849       -28.8672
   6   2.0000      -0.885234       -24.0884
   7   2.0000      -0.786499       -21.4017
   8   2.0000      -0.695322       -18.9207
   9   2.0000      -0.642280       -17.4773
  10   2.0000      -0.617581       -16.8052
  11   2.0000      -0.549236       -14.9455
  12   2.0000      -0.533387       -14.5142
  13   2.0000      -0.413757       -11.2589
  14   2.0000      -0.380745       -10.3606
  15   0.0000       0.190363         5.1800
  16   0.0000       0.212748         5.7892
  17   0.0000       0.566426        15.4132
  18   0.0000       0.593634        16.1536
  19   0.0000       0.654878        17.8201

MULLIKEN ATOMIC CHARGES
-----------------------
   0 C :    0.173924
   1 O :   -0.347251
   2 C :   -0.159239
   3 C :   -0.230675
   4 H :    0.133607
   5 H :    0.154492
   6 H :    0.136178
   7 H :    0.138964
Sum of atomic charges:   -0.0000000

LOEWDIN ATOMIC CHARGES
----------------------
   0 C :    0.144826
   1 O :   -0.223606
   2 C :   -0.124860
   3 C :   -0.141824
   4 H :    0.059150
   5 H :    0.106535
   6 H :    0.084128
   7 H :    0.095651

  Mayer bond orders larger than 0.100000
B(  0-C ,  1-O ) :   1.9476 B(  0-C ,  2-C ) :   0.9808 B(  0-C ,  4-H ) :   0.9179
B(  2-C ,  3-C ) :   1.9865 B(  2-C ,  5-H ) :   0.9500 B(  3-C ,  6-H ) :   0.9696
B(  3-C ,  7-H ) :   0.9644

-----------------------------------------------------------------------------
         ABSORPTION SPECTRUM VIA TRANSITION ELECTRIC DIPOLE MOMENTS
-----------------------------------------------------------------------------
State   Energy    Wavelength  fosc         T2        TX        TY        TZ
        (cm-1)      (nm)                 (au**2)    (au)      (au)      (au)
-----------------------------------------------------------------------------
   1   38337.4    260.8   0.000280898   0.00241   0.04689   0.00979  -0.01085

Dispersion correction           -0.025133649
FINAL SINGLE POINT ENERGY      -189.267706885422

DIPOLE MOMENT
-------------
                                X             Y             Z
Electronic contribution:     -2.89404      -1.01353      -1.08003
Nuclear contribution   :      3.45814       1.58602       1.59055
                        -----------------------------------------
Total Dipole Moment    :      0.56410       0.57249       0.51052
                        -----------------------------------------
Magnitude (a.u.)       :      0.95214
Magnitude (Debye)      :      2.42016

Rotational constants in cm-1:     0.955798     0.175153     0.162672
Rotational constants in MHz : 28654.099174  5250.945858  4876.796177

                             ****ORCA TERMINATED NORMALLY****
TOTAL RUN TIME: 0 days 0 hours 0 minutes 11 seconds 629 msec
