                         Program Version 5.0.3 -  RELEASE  -
|  1> ! B3LYP cc-pVDZ
|  2> !TightSCF
|  3> %scf
|  4>  ConvForced true
|  5>  convergence tight
|  6>  MaxIter 500
|  7> end
|  8>
|  9> %tddft
| 10>  nroots 1
| 11> end
| 12>
| 13> # 	13965
| 14> * xyz 0 1
| 15> 		C   -1.177371  -0.281444   0.029449
| 16> 		O   -1.267659  -1.406734   0.408933
| 17> 		C    0.033189   0.536753   0.142102
| 18> 		C    1.213839  -0.009906  -0.123800
| 19> 		H   -2.047814   0.201618  -0.415458
| 20> 		H   -0.047558   1.570486   0.201484
| 21> 		H    1.215807  -1.220856  -0.170542
| 22> 		H    2.157399   0.557413  -0.025732
| 23> *
| 24>
| 25>                          ****END OF INPUT****

CARTESIAN COORDINATES (ANGSTROEM)
---------------------------------
  C     -1.177371   -0.281444    0.029449
  O     -1.267659   -1.406734    0.408933
  C      0.033189    0.536753    0.142102
  C      1.213839   -0.009906   -0.123800
  H     -2.047814    0.201618   -0.415458
  H     -0.047558    1.570486    0.201484
  H      1.215807   -1.220856   -0.170542
  H      2.157399    0.557413   -0.025732

 Total Charge           Charge          ....    0
 Multiplicity           Mult            ....    1
 Number of Electrons    NEL             ....   30
 Basis Dimension        Dim             ....   76

ORBITAL ENERGIES
----------------

  NO   OCC          E(Eh)            E(eV)
   0   2.0000     -19.137258      -520.7513
   1   2.0000     -10.270810      -279.4830
   2   2.0000     -10.218660      -278.0639
   3   2.0000     -10.196679      -277.4657
   4   2.0000      -1.057885       -28.7865
   5   2.0000      -0.799155       -21.7461
   6   2.0000      -0.651486       -17.7278
   7   2.0000      -0.542451       -14.7608
   8   2.0000      -0.516055       -14.0426
   9   2.0000      -0.441366       -12.0102
  10   2.0000      -0.439108       -11.9487
  11   2.0000      -0.392644       -10.6844
  12   2.0000      -0.373840       -10.1727
  13   2.0000      -0.290654        -7.9091
  14   2.0000      -0.255317        -6.9475
  15   0.0000      -0.056895        -1.5482
  16   0.0000       0.039482         1.0744
  17   0.0000       0.075147         2.0449
  18   0.0000       0.080863         2.2004
  19   0.0000       0.121282         3.3003

MULLIKEN ATOMIC CHARGES
-----------------------
   0 C :    0.180562
   1 O :   -0.179175
   2 C :   -0.041963
   3 C :   -0.006885
   4 H :   -0.027651
   5 H :   -0.026027
   6 H :    0.061704
   7 H :    0.039435
Sum of atomic charges:    0.0000000

LOEWDIN ATOMIC CHARGES
----------------------
   0 C :   -0.040644
   1 O :    0.016962
   2 C :   -0.071222
   3 C :   -0.001827
   4 H :   -0.008560
   5 H :    0.017157
   6 H :    0.054827
   7 H :    0.033306

  Mayer bond orders larger than 0.100000
B(  0-C ,  1-O ) :   2.2060 B(  0-C ,  2-C ) :   1.0385 B(  0-C ,  4-H ) :   0.9200
B(  2-C ,  3-C ) :   1.9784 B(  2-C ,  5-H ) :   0.9407 B(  3-C ,  6-H ) :   0.9257
B(  3-C ,  7-H ) :   0.9416

-----------------------------------------------------------------------------
         ABSORPTION SPECTRUM VIA TRANSITION ELECTRIC DIPOLE MOMENTS
-----------------------------------------------------------------------------
State   Energy    Wavelength  fosc         T2        TX        TY        TZ
        (cm-1)      (nm)                 (au**2)    (au)      (au)      (au)
-----------------------------------------------------------------------------
   1   30472.8    328.2   0.000215541   0.00233  -0.04472   0.00193   0.01802

FINAL SINGLE POINT ENERGY      -191.653908233225

DIPOLE MOMENT
-------------
                                X             Y             Z
Electronic contribution:     -2.02740      -1.40519       0.58447
Nuclear contribution   :      2.40021       2.25857      -0.82925
                        -----------------------------------------
Total Dipole Moment    :      0.37280       0.85338      -0.24478
                        -----------------------------------------
Magnitude (a.u.)       :      0.96289
Magnitude (Debye)      :      2.44747

Rotational constants in cm-1:     0.805402     0.205844     0.168260
Rotational constants in MHz : 24145.336121  6171.042842  5044.319416

                             ****ORCA TERMINATED NORMALLY****
TOTAL RUN TIME: 0 days 0 hours 3 minutes 19 seconds 825 msec
