                         Program Version 5.0.3 -  RELEASE  -
|  1> ! B3LYP cc-pVDZ
|  2> !TightSCF
|  3> %scf
|  4>  ConvForced true
|  5>  convergence tight
|  6>  MaxIter 500
|  7> end
|  8>
|  9> %tddft
| 10>  nroots 1
| 11> end
| 12>
| 13> # 	14380
| 14> * xyz 0 1
| 15> 		C   -1.279973  -0.333565   0.012237
| 16> 		O   -1.204034  -1.546961  -0.023266
| 17> 		C    0.056824   0.513306   0.007166
| 18> 		C    1.225944  -0.015648  -0.010347
| 19> 		H   -2.237538  -0.043941  -0.070530
| 20> 		H   -0.073648   1.737733   0.044545
| 21> 		H    1.314861  -0.867000   0.088866
| 22> 		H    2.218982   0.521736  -0.079244
| 23> *
| 24>
| 25>                          ****END OF INPUT****

CARTESIAN COORDINATES (ANGSTROEM)
---------------------------------
  C     -1.279973   -0.333565    0.012237
  O     -1.204034   -1.546961   -0.023266
  C      0.056824    0.513306    0.007166
  C      1.225944   -0.015648   -0.010347
  H     -2.237538   -0.043941   -0.070530
  H     -0.073648    1.737733    0.044545
  H      1.314861   -0.867000    0.088866
  H      2.218982    0.521736   -0.079244

 Total Charge           Charge          ....    0
 Multiplicity           Mult            ....    1
 Number of Electrons    NEL             ....   30
 Basis Dimension        Dim             ....   76

ORBITAL ENERGIES
----------------

  NO   OCC          E(Eh)            E(eV)
   0   2.0000     -19.138284      -520.7792
   1   2.0000     -10.274950      -279.5956
   2   2.0000     -10.216219      -277.9974
   3   2.0000     -10.184282      -277.1284
   4   2.0000      -1.047235       -28.4967
   5   2.0000      -0.800274       -21.7766
   6   2.0000      -0.651139       -17.7184
   7   2.0000      -0.574451       -15.6316
   8   2.0000      -0.509626       -13.8676
   9   2.0000      -0.446815       -12.1585
  10   2.0000      -0.433412       -11.7937
  11   2.0000      -0.396420       -10.7871
  12   2.0000      -0.369074       -10.0430
  13   2.0000      -0.292885        -7.9698
  14   2.0000      -0.254147        -6.9157
  15   0.0000      -0.060839        -1.6555
  16   0.0000       0.050904         1.3852
  17   0.0000       0.060862         1.6561
  18   0.0000       0.105918         2.8822
  19   0.0000       0.110808         3.0152

MULLIKEN ATOMIC CHARGES
-----------------------
   0 C :    0.239012
   1 O :   -0.197923
   2 C :   -0.215124
   3 C :    0.268652
   4 H :   -0.034076
   5 H :    0.013622
   6 H :   -0.110423
   7 H :    0.036260
Sum of atomic charges:   -0.0000000

LOEWDIN ATOMIC CHARGES
----------------------
   0 C :    0.007355
   1 O :   -0.006197
   2 C :   -0.066521
   3 C :    0.047421
   4 H :   -0.018185
   5 H :    0.039487
   6 H :   -0.055658
   7 H :    0.052298

  Mayer bond orders larger than 0.100000
B(  0-C ,  1-O ) :   2.1717 B(  0-C ,  2-C ) :   0.9596 B(  0-C ,  4-H ) :   0.9552
B(  2-C ,  3-C ) :   2.0178 B(  2-C ,  5-H ) :   0.9248 B(  3-C ,  6-H ) :   0.8917
B(  3-C ,  7-H ) :   0.9465

-----------------------------------------------------------------------------
         ABSORPTION SPECTRUM VIA TRANSITION ELECTRIC DIPOLE MOMENTS
-----------------------------------------------------------------------------
State   Energy    Wavelength  fosc         T2        TX        TY        TZ
        (cm-1)      (nm)                 (au**2)    (au)      (au)      (au)
-----------------------------------------------------------------------------
   1   28605.4    349.6   0.000117572   0.00135   0.02661   0.02016   0.01545

FINAL SINGLE POINT ENERGY      -191.587019928232

DIPOLE MOMENT
-------------
                                X             Y             Z
Electronic contribution:     -2.13918      -1.88240       0.02073
Nuclear contribution   :      2.33868       2.68167       0.00312
                        -----------------------------------------
Total Dipole Moment    :      0.19950       0.79927       0.02385
                        -----------------------------------------
Magnitude (a.u.)       :      0.82414
Magnitude (Debye)      :      2.09480

Rotational constants in cm-1:     0.789961     0.199859     0.159585
Rotational constants in MHz : 23682.442319  5991.627894  4784.251278

                             ****ORCA TERMINATED NORMALLY****
TOTAL RUN TIME: 0 days 0 hours 3 minutes 22 seconds 411 msec
