                         Program Version 5.0.3 -  RELEASE  -
|  1> ! HF-3c
|  2> !TightSCF
|  3> %scf
|  4>  ConvForced true
|  5>  convergence tight
|  6>  MaxIter 500
|  7> end
|  8>
|  9> %tddft
| 10>  nroots 1
| 11> end
| 12>
| 13> # 	26276
| 14> * xyz 0 1
| 15> 		C   -0.562407  -0.433062   0.017301
| 16> 		O   -0.573884  -1.621189  -0.010386
| 17> 		C    0.591645   0.402061  -0.020305
| 18> 		C    1.859320  -0.138442  -0.019327
| 19> 		H   -1.533547   0.135899   0.108815
| 20> 		H    0.534205   1.659666  -0.002430
| 21> 		H    1.957192  -1.267912   0.175747
| 22> 		H    2.629927   0.487092   0.152518
| 23> *
| 24>
| 25>                          ****END OF INPUT****

CARTESIAN COORDINATES (ANGSTROEM)
---------------------------------
  C     -0.562407   -0.433062    0.017301
  O     -0.573884   -1.621189   -0.010386
  C      0.591645    0.402061   -0.020305
  C      1.859320   -0.138442   -0.019327
  H     -1.533547    0.135899    0.108815
  H      0.534205    1.659666   -0.002430
  H      1.957192   -1.267912    0.175747
  H      2.629927    0.487092    0.152518

 Total Charge           Charge          ....    0
 Multiplicity           Mult            ....    1
 Number of Electrons    NEL             ....   30
 Basis Dimension        Dim             ....   24

ORBITAL ENERGIES
----------------

  NO   OCC          E(Eh)            E(eV)
   0   2.0000     -20.364837      -554.1554
   1   2.0000     -11.299774      -307.4825
   2   2.0000     -11.186244      -304.3932
   3   2.0000     -11.181710      -304.2698
   4   2.0000      -1.415853       -38.5273
   5   2.0000      -1.067704       -29.0537
   6   2.0000      -0.897525       -24.4229
   7   2.0000      -0.737216       -20.0607
   8   2.0000      -0.683797       -18.6071
   9   2.0000      -0.608998       -16.5717
  10   2.0000      -0.594965       -16.1898
  11   2.0000      -0.552675       -15.0391
  12   2.0000      -0.504837       -13.7373
  13   2.0000      -0.409995       -11.1565
  14   2.0000      -0.379223       -10.3192
  15   0.0000       0.120397         3.2762
  16   0.0000       0.320652         8.7254
  17   0.0000       0.469355        12.7718
  18   0.0000       0.594631        16.1807
  19   0.0000       0.629696        17.1349

MULLIKEN ATOMIC CHARGES
-----------------------
   0 C :    0.161780
   1 O :   -0.361418
   2 C :   -0.156192
   3 C :   -0.222098
   4 H :    0.128961
   5 H :    0.145272
   6 H :    0.164086
   7 H :    0.139611
Sum of atomic charges:   -0.0000000

LOEWDIN ATOMIC CHARGES
----------------------
   0 C :    0.139874
   1 O :   -0.261426
   2 C :   -0.129534
   3 C :   -0.120967
   4 H :    0.067114
   5 H :    0.106024
   6 H :    0.114727
   7 H :    0.084188

  Mayer bond orders larger than 0.100000
B(  0-C ,  1-O ) :   1.8858 B(  0-C ,  2-C ) :   1.0561 B(  0-C ,  4-H ) :   0.9188
B(  2-C ,  3-C ) :   1.9139 B(  2-C ,  5-H ) :   0.9539 B(  3-C ,  6-H ) :   0.9561
B(  3-C ,  7-H ) :   0.9698

-----------------------------------------------------------------------------
         ABSORPTION SPECTRUM VIA TRANSITION ELECTRIC DIPOLE MOMENTS
-----------------------------------------------------------------------------
State   Energy    Wavelength  fosc         T2        TX        TY        TZ
        (cm-1)      (nm)                 (au**2)    (au)      (au)      (au)
-----------------------------------------------------------------------------
   1   32760.3    305.2   0.000016096   0.00016   0.00150  -0.00091  -0.01260

Dispersion correction           -0.025691974
FINAL SINGLE POINT ENERGY      -189.302887169631

DIPOLE MOMENT
-------------
                                X             Y             Z
Electronic contribution:     -1.86957      -1.76389      -0.28849
Nuclear contribution   :      2.20713       2.73905       0.40737
                        -----------------------------------------
Total Dipole Moment    :      0.33756       0.97516       0.11889
                        -----------------------------------------
Magnitude (a.u.)       :      1.03876
Magnitude (Debye)      :      2.64032

Rotational constants in cm-1:     0.748442     0.213732     0.166522
Rotational constants in MHz : 22437.731944  6407.520596  4992.192708

                             ****ORCA TERMINATED NORMALLY****
TOTAL RUN TIME: 0 days 0 hours 0 minutes 10 seconds 555 msec
