                         Program Version 5.0.3 -  RELEASE  -
|  1> ! HF-3c
|  2> !TightSCF
|  3> %scf
|  4>  ConvForced true
|  5>  convergence tight
|  6>  MaxIter 500
|  7> end
|  8>
|  9> %tddft
| 10>  nroots 1
| 11> end
| 12>
| 13> # 	8765
| 14> * xyz 0 1
| 15> 		C   -1.158472  -0.323139  -0.061057
| 16> 		O   -1.298509  -1.385839  -0.481465
| 17> 		C   -0.017760   0.539049  -0.149968
| 18> 		C    1.220742  -0.005476   0.090748
| 19> 		H   -2.081365   0.198497   0.470790
| 20> 		H   -0.101057   1.658244  -0.198595
| 21> 		H    1.298536  -1.138838   0.426423
| 22> 		H    2.122920   0.498602  -0.102032
| 23> *
| 24>
| 25>                          ****END OF INPUT****

CARTESIAN COORDINATES (ANGSTROEM)
---------------------------------
  C     -1.158472   -0.323139   -0.061057
  O     -1.298509   -1.385839   -0.481465
  C     -0.017760    0.539049   -0.149968
  C      1.220742   -0.005476    0.090748
  H     -2.081365    0.198497    0.470790
  H     -0.101057    1.658244   -0.198595
  H      1.298536   -1.138838    0.426423
  H      2.122920    0.498602   -0.102032

 Total Charge           Charge          ....    0
 Multiplicity           Mult            ....    1
 Number of Electrons    NEL             ....   30
 Basis Dimension        Dim             ....   24

ORBITAL ENERGIES
----------------

  NO   OCC          E(Eh)            E(eV)
   0   2.0000     -20.380949      -554.5938
   1   2.0000     -11.308866      -307.7299
   2   2.0000     -11.187496      -304.4273
   3   2.0000     -11.182693      -304.2966
   4   2.0000      -1.445995       -39.3475
   5   2.0000      -1.072315       -29.1792
   6   2.0000      -0.883539       -24.0423
   7   2.0000      -0.733678       -19.9644
   8   2.0000      -0.702367       -19.1124
   9   2.0000      -0.618336       -16.8258
  10   2.0000      -0.614520       -16.7219
  11   2.0000      -0.547224       -14.8907
  12   2.0000      -0.526638       -14.3306
  13   2.0000      -0.406127       -11.0513
  14   2.0000      -0.377654       -10.2765
  15   0.0000       0.141092         3.8393
  16   0.0000       0.294999         8.0273
  17   0.0000       0.531987        14.4761
  18   0.0000       0.586939        15.9714
  19   0.0000       0.615113        16.7381

MULLIKEN ATOMIC CHARGES
-----------------------
   0 C :    0.192456
   1 O :   -0.365726
   2 C :   -0.183293
   3 C :   -0.203055
   4 H :    0.116300
   5 H :    0.151921
   6 H :    0.151124
   7 H :    0.140273
Sum of atomic charges:   -0.0000000

LOEWDIN ATOMIC CHARGES
----------------------
   0 C :    0.152355
   1 O :   -0.250820
   2 C :   -0.147219
   3 C :   -0.109090
   4 H :    0.058553
   5 H :    0.102939
   6 H :    0.106116
   7 H :    0.087166

  Mayer bond orders larger than 0.100000
B(  0-C ,  1-O ) :   1.9145 B(  0-C ,  2-C ) :   1.0303 B(  0-C ,  4-H ) :   0.9023
B(  2-C ,  3-C ) :   1.9366 B(  2-C ,  5-H ) :   0.9533 B(  3-C ,  6-H ) :   0.9610
B(  3-C ,  7-H ) :   0.9682

-----------------------------------------------------------------------------
         ABSORPTION SPECTRUM VIA TRANSITION ELECTRIC DIPOLE MOMENTS
-----------------------------------------------------------------------------
State   Energy    Wavelength  fosc         T2        TX        TY        TZ
        (cm-1)      (nm)                 (au**2)    (au)      (au)      (au)
-----------------------------------------------------------------------------
   1   35902.2    278.5   0.001343522   0.01232  -0.10987   0.00577  -0.01464

Dispersion correction           -0.025535445
FINAL SINGLE POINT ENERGY      -189.295145980046

DIPOLE MOMENT
-------------
                                X             Y             Z
Electronic contribution:     -1.96804      -1.53443      -0.72427
Nuclear contribution   :      2.41944       2.35851       1.12689
                        -----------------------------------------
Total Dipole Moment    :      0.45140       0.82408       0.40262
                        -----------------------------------------
Magnitude (a.u.)       :      1.02224
Magnitude (Debye)      :      2.59832

Rotational constants in cm-1:     0.800451     0.203321     0.167685
Rotational constants in MHz : 23996.903467  6095.411243  5027.065850

                             ****ORCA TERMINATED NORMALLY****
TOTAL RUN TIME: 0 days 0 hours 0 minutes 15 seconds 910 msec
