                         Program Version 5.0.3 -  RELEASE  -
|  1> ! B3LYP cc-pVDZ
|  2> !TightSCF
|  3> %scf
|  4>  ConvForced true
|  5>  convergence tight
|  6>  MaxIter 500
|  7> end
|  8>
|  9> %tddft
| 10>  nroots 1
| 11> end
| 12>
| 13> # 	8459
| 14> * xyz 0 1
| 15> 		C   -1.102910  -0.385706  -0.173517
| 16> 		O   -2.178392  -0.072415  -0.670992
| 17> 		C    0.061409   0.278939  -0.446298
| 18> 		C    1.178498   0.184277   0.380321
| 19> 		H   -1.069710  -1.158328   0.624618
| 20> 		H   -0.044009   1.261330  -1.089785
| 21> 		H    1.041101  -0.632762   1.235744
| 22> 		H    2.182096   0.582735   0.127722
| 23> *
| 24>
| 25>                          ****END OF INPUT****

CARTESIAN COORDINATES (ANGSTROEM)
---------------------------------
  C     -1.102910   -0.385706   -0.173517
  O     -2.178392   -0.072415   -0.670992
  C      0.061409    0.278939   -0.446298
  C      1.178498    0.184277    0.380321
  H     -1.069710   -1.158328    0.624618
  H     -0.044009    1.261330   -1.089785
  H      1.041101   -0.632762    1.235744
  H      2.182096    0.582735    0.127722

 Total Charge           Charge          ....    0
 Multiplicity           Mult            ....    1
 Number of Electrons    NEL             ....   30
 Basis Dimension        Dim             ....   76

ORBITAL ENERGIES
----------------

  NO   OCC          E(Eh)            E(eV)
   0   2.0000     -19.131571      -520.5965
   1   2.0000     -10.264850      -279.3208
   2   2.0000     -10.242785      -278.7204
   3   2.0000     -10.216169      -277.9961
   4   2.0000      -1.035823       -28.1862
   5   2.0000      -0.805858       -21.9285
   6   2.0000      -0.656967       -17.8770
   7   2.0000      -0.561854       -15.2888
   8   2.0000      -0.474818       -12.9205
   9   2.0000      -0.465986       -12.6801
  10   2.0000      -0.414504       -11.2792
  11   2.0000      -0.399668       -10.8755
  12   2.0000      -0.374123       -10.1804
  13   2.0000      -0.285941        -7.7809
  14   2.0000      -0.253809        -6.9065
  15   0.0000      -0.084957        -2.3118
  16   0.0000       0.042820         1.1652
  17   0.0000       0.060505         1.6464
  18   0.0000       0.072062         1.9609
  19   0.0000       0.125735         3.4214

MULLIKEN ATOMIC CHARGES
-----------------------
   0 C :    0.180689
   1 O :   -0.214146
   2 C :   -0.073942
   3 C :   -0.012795
   4 H :   -0.034557
   5 H :    0.037811
   6 H :    0.055353
   7 H :    0.061586
Sum of atomic charges:    0.0000000

LOEWDIN ATOMIC CHARGES
----------------------
   0 C :   -0.063558
   1 O :   -0.014062
   2 C :   -0.071168
   3 C :    0.012260
   4 H :   -0.003011
   5 H :    0.054185
   6 H :    0.046143
   7 H :    0.039211

  Mayer bond orders larger than 0.100000
B(  0-C ,  1-O ) :   2.1043 B(  0-C ,  2-C ) :   1.1604 B(  0-C ,  4-H ) :   0.9262
B(  1-O ,  3-C ) :   0.1401 B(  2-C ,  3-C ) :   1.8491 B(  2-C ,  5-H ) :   0.9298
B(  3-C ,  6-H ) :   0.9365 B(  3-C ,  7-H ) :   0.9426

-----------------------------------------------------------------------------
         ABSORPTION SPECTRUM VIA TRANSITION ELECTRIC DIPOLE MOMENTS
-----------------------------------------------------------------------------
State   Energy    Wavelength  fosc         T2        TX        TY        TZ
        (cm-1)      (nm)                 (au**2)    (au)      (au)      (au)
-----------------------------------------------------------------------------
   1   24982.6    400.3   0.000763745   0.01006  -0.08266  -0.03194  -0.04704

FINAL SINGLE POINT ENERGY      -191.669193635967

DIPOLE MOMENT
-------------
                                X             Y             Z
Electronic contribution:     -2.85443      -0.08415      -1.26872
Nuclear contribution   :      4.03544       0.06033       1.68670
                        -----------------------------------------
Total Dipole Moment    :      1.18100      -0.02381       0.41798
                        -----------------------------------------
Magnitude (a.u.)       :      1.25302
Magnitude (Debye)      :      3.18491

Rotational constants in cm-1:     1.537851     0.159829     0.145993
Rotational constants in MHz : 46103.598997  4791.562281  4376.750106

                             ****ORCA TERMINATED NORMALLY****
TOTAL RUN TIME: 0 days 0 hours 3 minutes 27 seconds 820 msec
