                         Program Version 5.0.3 -  RELEASE  -
|  1> ! HF-3c
|  2> !TightSCF
|  3> %scf
|  4>  ConvForced true
|  5>  convergence tight
|  6>  MaxIter 500
|  7> end
|  8>
|  9> %tddft
| 10>  nroots 1
| 11> end
| 12>
| 13> # 	8185
| 14> * xyz 0 1
| 15> 		C   -1.175541  -0.281890  -0.022267
| 16> 		O   -1.285509  -1.299387  -0.578815
| 17> 		C   -0.003693   0.528443  -0.050763
| 18> 		C    1.256081  -0.026047   0.126314
| 19> 		H   -2.084491   0.039365   0.539248
| 20> 		H   -0.074777   1.520886  -0.541801
| 21> 		H    1.248626  -1.090317   0.445202
| 22> 		H    2.130819   0.632163   0.084728
| 23> *
| 24>
| 25>                          ****END OF INPUT****

CARTESIAN COORDINATES (ANGSTROEM)
---------------------------------
  C     -1.175541   -0.281890   -0.022267
  O     -1.285509   -1.299387   -0.578815
  C     -0.003693    0.528443   -0.050763
  C      1.256081   -0.026047    0.126314
  H     -2.084491    0.039365    0.539248
  H     -0.074777    1.520886   -0.541801
  H      1.248626   -1.090317    0.445202
  H      2.130819    0.632163    0.084728

 Total Charge           Charge          ....    0
 Multiplicity           Mult            ....    1
 Number of Electrons    NEL             ....   30
 Basis Dimension        Dim             ....   24

ORBITAL ENERGIES
----------------

  NO   OCC          E(Eh)            E(eV)
   0   2.0000     -20.374913      -554.4296
   1   2.0000     -11.305272      -307.6321
   2   2.0000     -11.184073      -304.3341
   3   2.0000     -11.180313      -304.2318
   4   2.0000      -1.439210       -39.1629
   5   2.0000      -1.068301       -29.0700
   6   2.0000      -0.887393       -24.1472
   7   2.0000      -0.752120       -20.4662
   8   2.0000      -0.703083       -19.1319
   9   2.0000      -0.619303       -16.8521
  10   2.0000      -0.606213       -16.4959
  11   2.0000      -0.557545       -15.1716
  12   2.0000      -0.514856       -14.0099
  13   2.0000      -0.411164       -11.1883
  14   2.0000      -0.382577       -10.4105
  15   0.0000       0.154620         4.2074
  16   0.0000       0.254992         6.9387
  17   0.0000       0.592384        16.1196
  18   0.0000       0.605461        16.4754
  19   0.0000       0.647694        17.6246

MULLIKEN ATOMIC CHARGES
-----------------------
   0 C :    0.163999
   1 O :   -0.354835
   2 C :   -0.176327
   3 C :   -0.213938
   4 H :    0.134150
   5 H :    0.148030
   6 H :    0.151218
   7 H :    0.147703
Sum of atomic charges:    0.0000000

LOEWDIN ATOMIC CHARGES
----------------------
   0 C :    0.138076
   1 O :   -0.247155
   2 C :   -0.138357
   3 C :   -0.120149
   4 H :    0.069927
   5 H :    0.098670
   6 H :    0.101263
   7 H :    0.097724

  Mayer bond orders larger than 0.100000
B(  0-C ,  1-O ) :   1.9161 B(  0-C ,  2-C ) :   1.0258 B(  0-C ,  4-H ) :   0.9163
B(  2-C ,  3-C ) :   1.9514 B(  2-C ,  5-H ) :   0.9520 B(  3-C ,  6-H ) :   0.9634
B(  3-C ,  7-H ) :   0.9657

-----------------------------------------------------------------------------
         ABSORPTION SPECTRUM VIA TRANSITION ELECTRIC DIPOLE MOMENTS
-----------------------------------------------------------------------------
State   Energy    Wavelength  fosc         T2        TX        TY        TZ
        (cm-1)      (nm)                 (au**2)    (au)      (au)      (au)
-----------------------------------------------------------------------------
   1   35706.8    280.1   0.000049593   0.00046  -0.02007  -0.00239  -0.00698

Dispersion correction           -0.025699358
FINAL SINGLE POINT ENERGY      -189.303093786848

DIPOLE MOMENT
-------------
                                X             Y             Z
Electronic contribution:     -1.99458      -1.39617      -0.63868
Nuclear contribution   :      2.36314       2.15912       1.02978
                        -----------------------------------------
Total Dipole Moment    :      0.36856       0.76296       0.39111
                        -----------------------------------------
Magnitude (a.u.)       :      0.93322
Magnitude (Debye)      :      2.37207

Rotational constants in cm-1:     0.819126     0.201409     0.169791
Rotational constants in MHz : 24556.780394  6038.096806  5090.194161

                             ****ORCA TERMINATED NORMALLY****
TOTAL RUN TIME: 0 days 0 hours 0 minutes 16 seconds 100 msec
