                         Program Version 5.0.3 -  RELEASE  -
|  1> ! HF-3c
|  2> !TightSCF
|  3> %scf
|  4>  ConvForced true
|  5>  convergence tight
|  6>  MaxIter 500
|  7> end
|  8>
|  9> %tddft
| 10>  nroots 1
| 11> end
| 12>
| 13> # 	13881
| 14> * xyz 0 1
| 15> 		C   -1.233249  -0.322083  -0.092839
| 16> 		O   -1.239753  -1.470863   0.124094
| 17> 		C   -0.067361   0.574808   0.024794
| 18> 		C    1.175869  -0.021041  -0.103273
| 19> 		H   -2.147481   0.200885  -0.357499
| 20> 		H   -0.013430   1.621590   0.401182
| 21> 		H    1.387574  -1.104136  -0.145461
| 22> 		H    2.160286   0.535474   0.179801
| 23> *
| 24>
| 25>                          ****END OF INPUT****

CARTESIAN COORDINATES (ANGSTROEM)
---------------------------------
  C     -1.233249   -0.322083   -0.092839
  O     -1.239753   -1.470863    0.124094
  C     -0.067361    0.574808    0.024794
  C      1.175869   -0.021041   -0.103273
  H     -2.147481    0.200885   -0.357499
  H     -0.013430    1.621590    0.401182
  H      1.387574   -1.104136   -0.145461
  H      2.160286    0.535474    0.179801

 Total Charge           Charge          ....    0
 Multiplicity           Mult            ....    1
 Number of Electrons    NEL             ....   30
 Basis Dimension        Dim             ....   24

ORBITAL ENERGIES
----------------

  NO   OCC          E(Eh)            E(eV)
   0   2.0000     -20.379459      -554.5533
   1   2.0000     -11.309034      -307.7345
   2   2.0000     -11.179705      -304.2152
   3   2.0000     -11.175559      -304.1024
   4   2.0000      -1.435033       -39.0492
   5   2.0000      -1.057351       -28.7720
   6   2.0000      -0.879234       -23.9252
   7   2.0000      -0.749183       -20.3863
   8   2.0000      -0.702979       -19.1290
   9   2.0000      -0.616749       -16.7826
  10   2.0000      -0.589950       -16.0534
  11   2.0000      -0.541908       -14.7461
  12   2.0000      -0.521399       -14.1880
  13   2.0000      -0.410603       -11.1731
  14   2.0000      -0.378782       -10.3072
  15   0.0000       0.138299         3.7633
  16   0.0000       0.287329         7.8186
  17   0.0000       0.550573        14.9819
  18   0.0000       0.581111        15.8128
  19   0.0000       0.638981        17.3875

MULLIKEN ATOMIC CHARGES
-----------------------
   0 C :    0.177825
   1 O :   -0.358732
   2 C :   -0.189422
   3 C :   -0.194593
   4 H :    0.130165
   5 H :    0.152484
   6 H :    0.148644
   7 H :    0.133629
Sum of atomic charges:    0.0000000

LOEWDIN ATOMIC CHARGES
----------------------
   0 C :    0.152861
   1 O :   -0.250517
   2 C :   -0.153736
   3 C :   -0.101984
   4 H :    0.063361
   5 H :    0.102890
   6 H :    0.096936
   7 H :    0.090187

  Mayer bond orders larger than 0.100000
B(  0-C ,  1-O ) :   1.9160 B(  0-C ,  2-C ) :   1.0166 B(  0-C ,  4-H ) :   0.9196
B(  2-C ,  3-C ) :   1.9376 B(  2-C ,  5-H ) :   0.9569 B(  3-C ,  6-H ) :   0.9634
B(  3-C ,  7-H ) :   0.9667

-----------------------------------------------------------------------------
         ABSORPTION SPECTRUM VIA TRANSITION ELECTRIC DIPOLE MOMENTS
-----------------------------------------------------------------------------
State   Energy    Wavelength  fosc         T2        TX        TY        TZ
        (cm-1)      (nm)                 (au**2)    (au)      (au)      (au)
-----------------------------------------------------------------------------
   1   35399.4    282.5   0.000007413   0.00007   0.00722   0.00405  -0.00070

Dispersion correction           -0.025413125
FINAL SINGLE POINT ENERGY      -189.307172673516

DIPOLE MOMENT
-------------
                                X             Y             Z
Electronic contribution:     -2.20635      -1.60069      -0.11962
Nuclear contribution   :      2.62250       2.46398       0.07461
                        -----------------------------------------
Total Dipole Moment    :      0.41615       0.86329      -0.04502
                        -----------------------------------------
Magnitude (a.u.)       :      0.95942
Magnitude (Debye)      :      2.43864

Rotational constants in cm-1:     0.745490     0.210794     0.166802
Rotational constants in MHz : 22349.223966  6319.445825  5000.589892

                             ****ORCA TERMINATED NORMALLY****
TOTAL RUN TIME: 0 days 0 hours 0 minutes 11 seconds 626 msec
