                         Program Version 5.0.3 -  RELEASE  -
|  1> ! HF-3c
|  2> !TightSCF
|  3> %scf
|  4>  ConvForced true
|  5>  convergence tight
|  6>  MaxIter 500
|  7> end
|  8>
|  9> %tddft
| 10>  nroots 1
| 11> end
| 12>
| 13> # 	13648
| 14> * xyz 0 1
| 15> 		C   -1.210010  -0.393949  -0.034636
| 16> 		O   -1.474469  -1.403661  -0.565120
| 17> 		C   -0.011924   0.518147  -0.193526
| 18> 		C    1.224306   0.036641   0.135688
| 19> 		H   -1.797620   0.114739   0.632818
| 20> 		H   -0.140245   1.551368  -0.388341
| 21> 		H    1.425034  -0.952242   0.327785
| 22> 		H    2.069387   0.549851   0.065179
| 23> *
| 24>
| 25>                          ****END OF INPUT****

CARTESIAN COORDINATES (ANGSTROEM)
---------------------------------
  C     -1.210010   -0.393949   -0.034636
  O     -1.474469   -1.403661   -0.565120
  C     -0.011924    0.518147   -0.193526
  C      1.224306    0.036641    0.135688
  H     -1.797620    0.114739    0.632818
  H     -0.140245    1.551368   -0.388341
  H      1.425034   -0.952242    0.327785
  H      2.069387    0.549851    0.065179

 Total Charge           Charge          ....    0
 Multiplicity           Mult            ....    1
 Number of Electrons    NEL             ....   30
 Basis Dimension        Dim             ....   24

ORBITAL ENERGIES
----------------

  NO   OCC          E(Eh)            E(eV)
   0   2.0000     -20.405654      -555.2661
   1   2.0000     -11.322627      -308.1044
   2   2.0000     -11.194630      -304.6214
   3   2.0000     -11.184374      -304.3423
   4   2.0000      -1.445138       -39.3242
   5   2.0000      -1.079946       -29.3868
   6   2.0000      -0.916772       -24.9466
   7   2.0000      -0.786181       -21.3931
   8   2.0000      -0.710839       -19.3429
   9   2.0000      -0.640522       -17.4295
  10   2.0000      -0.632591       -17.2137
  11   2.0000      -0.569972       -15.5097
  12   2.0000      -0.541370       -14.7314
  13   2.0000      -0.422650       -11.5009
  14   2.0000      -0.395269       -10.7558
  15   0.0000       0.154884         4.2146
  16   0.0000       0.242644         6.6027
  17   0.0000       0.561042        15.2667
  18   0.0000       0.656419        17.8621
  19   0.0000       0.744760        20.2659

MULLIKEN ATOMIC CHARGES
-----------------------
   0 C :    0.182201
   1 O :   -0.339801
   2 C :   -0.154652
   3 C :   -0.258805
   4 H :    0.136134
   5 H :    0.151304
   6 H :    0.144339
   7 H :    0.139281
Sum of atomic charges:    0.0000000

LOEWDIN ATOMIC CHARGES
----------------------
   0 C :    0.160746
   1 O :   -0.228840
   2 C :   -0.110437
   3 C :   -0.153224
   4 H :    0.063725
   5 H :    0.096551
   6 H :    0.088985
   7 H :    0.082494

  Mayer bond orders larger than 0.100000
B(  0-C ,  1-O ) :   1.9539 B(  0-C ,  2-C ) :   0.9807 B(  0-C ,  4-H ) :   0.9191
B(  2-C ,  3-C ) :   1.9781 B(  2-C ,  5-H ) :   0.9573 B(  3-C ,  6-H ) :   0.9681
B(  3-C ,  7-H ) :   0.9694

-----------------------------------------------------------------------------
         ABSORPTION SPECTRUM VIA TRANSITION ELECTRIC DIPOLE MOMENTS
-----------------------------------------------------------------------------
State   Energy    Wavelength  fosc         T2        TX        TY        TZ
        (cm-1)      (nm)                 (au**2)    (au)      (au)      (au)
-----------------------------------------------------------------------------
   1   36172.3    276.5   0.000568068   0.00517   0.07124   0.00938  -0.00276

Dispersion correction           -0.025433658
FINAL SINGLE POINT ENERGY      -189.295847842361

DIPOLE MOMENT
-------------
                                X             Y             Z
Electronic contribution:     -2.59461      -1.65832      -0.80573
Nuclear contribution   :      2.91641       2.45853       1.22871
                        -----------------------------------------
Total Dipole Moment    :      0.32181       0.80021       0.42298
                        -----------------------------------------
Magnitude (a.u.)       :      0.96063
Magnitude (Debye)      :      2.44172

Rotational constants in cm-1:     0.897976     0.179929     0.157019
Rotational constants in MHz : 26920.646242  5394.145850  4707.319995

                             ****ORCA TERMINATED NORMALLY****
TOTAL RUN TIME: 0 days 0 hours 0 minutes 10 seconds 218 msec
