                         Program Version 5.0.3 -  RELEASE  -
|  1> ! B3LYP cc-pVDZ
|  2> !TightSCF
|  3> %scf
|  4>  ConvForced true
|  5>  convergence tight
|  6>  MaxIter 500
|  7> end
|  8>
|  9> %tddft
| 10>  nroots 1
| 11> end
| 12>
| 13> # 	14972
| 14> * xyz 0 1
| 15> 		C   -1.262644  -0.270048  -0.098994
| 16> 		O   -1.613016  -1.053897  -0.933643
| 17> 		C   -0.013078   0.530792  -0.200784
| 18> 		C    1.216906   0.011645   0.244963
| 19> 		H   -1.578151  -0.263835   0.951100
| 20> 		H    0.039478   1.445279  -0.836280
| 21> 		H    1.193886  -0.984254   0.648474
| 22> 		H    1.958736   0.561495   0.121718
| 23> *
| 24>
| 25>                          ****END OF INPUT****

CARTESIAN COORDINATES (ANGSTROEM)
---------------------------------
  C     -1.262644   -0.270048   -0.098994
  O     -1.613016   -1.053897   -0.933643
  C     -0.013078    0.530792   -0.200784
  C      1.216906    0.011645    0.244963
  H     -1.578151   -0.263835    0.951100
  H      0.039478    1.445279   -0.836280
  H      1.193886   -0.984254    0.648474
  H      1.958736    0.561495    0.121718

 Total Charge           Charge          ....    0
 Multiplicity           Mult            ....    1
 Number of Electrons    NEL             ....   30
 Basis Dimension        Dim             ....   76

ORBITAL ENERGIES
----------------

  NO   OCC          E(Eh)            E(eV)
   0   2.0000     -19.150888      -521.1222
   1   2.0000     -10.282544      -279.8022
   2   2.0000     -10.210913      -277.8531
   3   2.0000     -10.196164      -277.4517
   4   2.0000      -1.062664       -28.9166
   5   2.0000      -0.787518       -21.4294
   6   2.0000      -0.663843       -18.0641
   7   2.0000      -0.561437       -15.2775
   8   2.0000      -0.497477       -13.5370
   9   2.0000      -0.465391       -12.6639
  10   2.0000      -0.438244       -11.9252
  11   2.0000      -0.411704       -11.2030
  12   2.0000      -0.375993       -10.2313
  13   2.0000      -0.273510        -7.4426
  14   2.0000      -0.258554        -7.0356
  15   0.0000      -0.044865        -1.2208
  16   0.0000      -0.016976        -0.4620
  17   0.0000       0.087646         2.3850
  18   0.0000       0.096066         2.6141
  19   0.0000       0.110231         2.9995

MULLIKEN ATOMIC CHARGES
-----------------------
   0 C :    0.189639
   1 O :   -0.163977
   2 C :   -0.159729
   3 C :    0.138661
   4 H :   -0.006885
   5 H :    0.026949
   6 H :    0.016400
   7 H :   -0.041058
Sum of atomic charges:   -0.0000000

LOEWDIN ATOMIC CHARGES
----------------------
   0 C :   -0.037166
   1 O :    0.031100
   2 C :   -0.044505
   3 C :    0.016423
   4 H :   -0.005185
   5 H :    0.037227
   6 H :    0.027663
   7 H :   -0.025557

  Mayer bond orders larger than 0.100000
B(  0-C ,  1-O ) :   2.2448 B(  0-C ,  2-C ) :   0.9790 B(  0-C ,  4-H ) :   0.9103
B(  2-C ,  3-C ) :   2.0286 B(  2-C ,  5-H ) :   0.9371 B(  3-C ,  6-H ) :   0.9562
B(  3-C ,  7-H ) :   0.9421

-----------------------------------------------------------------------------
         ABSORPTION SPECTRUM VIA TRANSITION ELECTRIC DIPOLE MOMENTS
-----------------------------------------------------------------------------
State   Energy    Wavelength  fosc         T2        TX        TY        TZ
        (cm-1)      (nm)                 (au**2)    (au)      (au)      (au)
-----------------------------------------------------------------------------
   1   32426.5    308.4   0.000567741   0.00576   0.03350   0.01633   0.06615

FINAL SINGLE POINT ENERGY      -191.612040231515

DIPOLE MOMENT
-------------
                                X             Y             Z
Electronic contribution:     -2.72873      -1.01218      -1.32105
Nuclear contribution   :      3.16266       1.55802       1.80457
                        -----------------------------------------
Total Dipole Moment    :      0.43393       0.54585       0.48352
                        -----------------------------------------
Magnitude (a.u.)       :      0.84855
Magnitude (Debye)      :      2.15685

Rotational constants in cm-1:     0.933428     0.169408     0.160290
Rotational constants in MHz : 27983.460324  5078.717016  4805.374432

                             ****ORCA TERMINATED NORMALLY****
TOTAL RUN TIME: 0 days 0 hours 3 minutes 26 seconds 994 msec
