                         Program Version 5.0.3 -  RELEASE  -
|  1> ! B3LYP cc-pVDZ
|  2> !TightSCF
|  3> %scf
|  4>  ConvForced true
|  5>  convergence tight
|  6>  MaxIter 500
|  7> end
|  8>
|  9> %tddft
| 10>  nroots 1
| 11> end
| 12>
| 13> # 	23656
| 14> * xyz 0 1
| 15> 		C   -0.547506  -0.448623   0.011270
| 16> 		O   -0.584730  -1.654452   0.010480
| 17> 		C    0.592915   0.434318  -0.052535
| 18> 		C    1.855407  -0.133660   0.021086
| 19> 		H   -1.539106   0.302612   0.005106
| 20> 		H    0.511964   1.654240   0.141299
| 21> 		H    1.863053  -1.204925  -0.277008
| 22> 		H    2.779410   0.537455   0.226905
| 23> *
| 24>
| 25>                          ****END OF INPUT****

CARTESIAN COORDINATES (ANGSTROEM)
---------------------------------
  C     -0.547506   -0.448623    0.011270
  O     -0.584730   -1.654452    0.010480
  C      0.592915    0.434318   -0.052535
  C      1.855407   -0.133660    0.021086
  H     -1.539106    0.302612    0.005106
  H      0.511964    1.654240    0.141299
  H      1.863053   -1.204925   -0.277008
  H      2.779410    0.537455    0.226905

 Total Charge           Charge          ....    0
 Multiplicity           Mult            ....    1
 Number of Electrons    NEL             ....   30
 Basis Dimension        Dim             ....   76

ORBITAL ENERGIES
----------------

  NO   OCC          E(Eh)            E(eV)
   0   2.0000     -19.146579      -521.0049
   1   2.0000     -10.285796      -279.8907
   2   2.0000     -10.233542      -278.4688
   3   2.0000     -10.221902      -278.1521
   4   2.0000      -1.053366       -28.6636
   5   2.0000      -0.793048       -21.5799
   6   2.0000      -0.653953       -17.7950
   7   2.0000      -0.517682       -14.0868
   8   2.0000      -0.497477       -13.5370
   9   2.0000      -0.449602       -12.2343
  10   2.0000      -0.412277       -11.2186
  11   2.0000      -0.403296       -10.9742
  12   2.0000      -0.377323       -10.2675
  13   2.0000      -0.285756        -7.7758
  14   2.0000      -0.257832        -7.0160
  15   0.0000      -0.081326        -2.2130
  16   0.0000       0.040098         1.0911
  17   0.0000       0.057994         1.5781
  18   0.0000       0.075668         2.0590
  19   0.0000       0.104774         2.8510

MULLIKEN ATOMIC CHARGES
-----------------------
   0 C :    0.168186
   1 O :   -0.181682
   2 C :   -0.161592
   3 C :    0.039706
   4 H :   -0.026619
   5 H :    0.041059
   6 H :    0.060187
   7 H :    0.060755
Sum of atomic charges:   -0.0000000

LOEWDIN ATOMIC CHARGES
----------------------
   0 C :   -0.061530
   1 O :    0.002436
   2 C :   -0.106220
   3 C :    0.031703
   4 H :   -0.009746
   5 H :    0.053906
   6 H :    0.041088
   7 H :    0.048363

  Mayer bond orders larger than 0.100000
B(  0-C ,  1-O ) :   2.1841 B(  0-C ,  2-C ) :   1.0674 B(  0-C ,  4-H ) :   0.8856
B(  2-C ,  3-C ) :   1.9041 B(  2-C ,  5-H ) :   0.9360 B(  3-C ,  6-H ) :   0.9302
B(  3-C ,  7-H ) :   0.9425

-----------------------------------------------------------------------------
         ABSORPTION SPECTRUM VIA TRANSITION ELECTRIC DIPOLE MOMENTS
-----------------------------------------------------------------------------
State   Energy    Wavelength  fosc         T2        TX        TY        TZ
        (cm-1)      (nm)                 (au**2)    (au)      (au)      (au)
-----------------------------------------------------------------------------
   1   26753.9    373.8   0.000758076   0.00933   0.08459  -0.00876   0.04579

FINAL SINGLE POINT ENERGY      -191.656023278534

DIPOLE MOMENT
-------------
                                X             Y             Z
Electronic contribution:     -1.60638      -2.15060      -0.06797
Nuclear contribution   :      2.23271       2.99604       0.08900
                        -----------------------------------------
Total Dipole Moment    :      0.62633       0.84544       0.02103
                        -----------------------------------------
Magnitude (a.u.)       :      1.05238
Magnitude (Debye)      :      2.67494

Rotational constants in cm-1:     0.725286     0.208546     0.162570
Rotational constants in MHz : 21743.520072  6252.051745  4873.713421

                             ****ORCA TERMINATED NORMALLY****
TOTAL RUN TIME: 0 days 0 hours 3 minutes 22 seconds 919 msec
