                         Program Version 5.0.3 -  RELEASE  -
|  1> ! B3LYP cc-pVDZ
|  2> !TightSCF
|  3> %scf
|  4>  ConvForced true
|  5>  convergence tight
|  6>  MaxIter 500
|  7> end
|  8>
|  9> %tddft
| 10>  nroots 1
| 11> end
| 12>
| 13> # 	29917
| 14> * xyz 0 1
| 15> 		C   -0.538531  -0.407377  -0.045245
| 16> 		O   -0.575125  -1.612125   0.041746
| 17> 		C    0.583754   0.362697   0.081560
| 18> 		C    1.846476  -0.119102  -0.073327
| 19> 		H   -1.476307   0.248641  -0.445712
| 20> 		H    0.389874   1.426421   0.146446
| 21> 		H    1.858147  -1.256265  -0.075218
| 22> 		H    2.737841   0.384534   0.177231
| 23> *
| 24>
| 25>                          ****END OF INPUT****

CARTESIAN COORDINATES (ANGSTROEM)
---------------------------------
  C     -0.538531   -0.407377   -0.045245
  O     -0.575125   -1.612125    0.041746
  C      0.583754    0.362697    0.081560
  C      1.846476   -0.119102   -0.073327
  H     -1.476307    0.248641   -0.445712
  H      0.389874    1.426421    0.146446
  H      1.858147   -1.256265   -0.075218
  H      2.737841    0.384534    0.177231

 Total Charge           Charge          ....    0
 Multiplicity           Mult            ....    1
 Number of Electrons    NEL             ....   30
 Basis Dimension        Dim             ....   76

ORBITAL ENERGIES
----------------

  NO   OCC          E(Eh)            E(eV)
   0   2.0000     -19.139102      -520.8015
   1   2.0000     -10.272877      -279.5392
   2   2.0000     -10.221445      -278.1397
   3   2.0000     -10.203028      -277.6385
   4   2.0000      -1.049798       -28.5664
   5   2.0000      -0.808215       -21.9927
   6   2.0000      -0.674817       -18.3627
   7   2.0000      -0.528169       -14.3722
   8   2.0000      -0.514874       -14.0104
   9   2.0000      -0.451105       -12.2752
  10   2.0000      -0.434388       -11.8203
  11   2.0000      -0.397956       -10.8289
  12   2.0000      -0.374111       -10.1801
  13   2.0000      -0.288939        -7.8624
  14   2.0000      -0.257507        -7.0071
  15   0.0000      -0.082972        -2.2578
  16   0.0000       0.053181         1.4471
  17   0.0000       0.072938         1.9847
  18   0.0000       0.088520         2.4088
  19   0.0000       0.124100         3.3769

MULLIKEN ATOMIC CHARGES
-----------------------
   0 C :    0.139842
   1 O :   -0.186840
   2 C :   -0.064004
   3 C :    0.062774
   4 H :   -0.025650
   5 H :   -0.013107
   6 H :    0.053362
   7 H :    0.033623
Sum of atomic charges:   -0.0000000

LOEWDIN ATOMIC CHARGES
----------------------
   0 C :   -0.068138
   1 O :    0.004287
   2 C :   -0.077874
   3 C :    0.042315
   4 H :   -0.000792
   5 H :    0.030193
   6 H :    0.046628
   7 H :    0.023381

  Mayer bond orders larger than 0.100000
B(  0-C ,  1-O ) :   2.1705 B(  0-C ,  2-C ) :   1.1276 B(  0-C ,  4-H ) :   0.8924
B(  1-O ,  3-C ) :   0.1066 B(  2-C ,  3-C ) :   1.9251 B(  2-C ,  5-H ) :   0.9409
B(  3-C ,  6-H ) :   0.9282 B(  3-C ,  7-H ) :   0.9464

-----------------------------------------------------------------------------
         ABSORPTION SPECTRUM VIA TRANSITION ELECTRIC DIPOLE MOMENTS
-----------------------------------------------------------------------------
State   Energy    Wavelength  fosc         T2        TX        TY        TZ
        (cm-1)      (nm)                 (au**2)    (au)      (au)      (au)
-----------------------------------------------------------------------------
   1   25895.1    386.2   0.000602189   0.00766  -0.07197  -0.01258   0.04814

FINAL SINGLE POINT ENERGY      -191.668508707407

DIPOLE MOMENT
-------------
                                X             Y             Z
Electronic contribution:     -1.59705      -1.67279       0.18900
Nuclear contribution   :      2.13782       2.54085      -0.18609
                        -----------------------------------------
Total Dipole Moment    :      0.54077       0.86806       0.00291
                        -----------------------------------------
Magnitude (a.u.)       :      1.02273
Magnitude (Debye)      :      2.59958

Rotational constants in cm-1:     0.769196     0.218265     0.171598
Rotational constants in MHz : 23059.925546  6543.421406  5144.380232

                             ****ORCA TERMINATED NORMALLY****
TOTAL RUN TIME: 0 days 0 hours 3 minutes 27 seconds 224 msec
