                         Program Version 5.0.3 -  RELEASE  -
|  1> ! HF-3c
|  2> !TightSCF
|  3> %scf
|  4>  ConvForced true
|  5>  convergence tight
|  6>  MaxIter 500
|  7> end
|  8>
|  9> %tddft
| 10>  nroots 1
| 11> end
| 12>
| 13> # 	22419
| 14> * xyz 0 1
| 15> 		C   -0.597021  -0.388033  -0.009603
| 16> 		O   -0.572374  -1.632119  -0.003094
| 17> 		C    0.622614   0.340632  -0.041206
| 18> 		C    1.872978  -0.094645   0.002573
| 19> 		H   -1.602325   0.193133   0.282604
| 20> 		H    0.378101   1.375724   0.108407
| 21> 		H    1.854685  -1.236441   0.150720
| 22> 		H    2.749174   0.522938   0.084987
| 23> *
| 24>
| 25>                          ****END OF INPUT****

CARTESIAN COORDINATES (ANGSTROEM)
---------------------------------
  C     -0.597021   -0.388033   -0.009603
  O     -0.572374   -1.632119   -0.003094
  C      0.622614    0.340632   -0.041206
  C      1.872978   -0.094645    0.002573
  H     -1.602325    0.193133    0.282604
  H      0.378101    1.375724    0.108407
  H      1.854685   -1.236441    0.150720
  H      2.749174    0.522938    0.084987

 Total Charge           Charge          ....    0
 Multiplicity           Mult            ....    1
 Number of Electrons    NEL             ....   30
 Basis Dimension        Dim             ....   24

ORBITAL ENERGIES
----------------

  NO   OCC          E(Eh)            E(eV)
   0   2.0000     -20.346297      -553.6509
   1   2.0000     -11.283425      -307.0376
   2   2.0000     -11.193678      -304.5955
   3   2.0000     -11.184862      -304.3556
   4   2.0000      -1.375218       -37.4216
   5   2.0000      -1.083111       -29.4729
   6   2.0000      -0.900338       -24.4995
   7   2.0000      -0.723212       -19.6796
   8   2.0000      -0.699111       -19.0238
   9   2.0000      -0.616232       -16.7685
  10   2.0000      -0.589185       -16.0325
  11   2.0000      -0.530973       -14.4485
  12   2.0000      -0.503232       -13.6936
  13   2.0000      -0.413209       -11.2440
  14   2.0000      -0.385023       -10.4770
  15   0.0000       0.119704         3.2573
  16   0.0000       0.315328         8.5805
  17   0.0000       0.502047        13.6614
  18   0.0000       0.589016        16.0279
  19   0.0000       0.646339        17.5878

MULLIKEN ATOMIC CHARGES
-----------------------
   0 C :    0.152712
   1 O :   -0.351638
   2 C :   -0.186881
   3 C :   -0.213046
   4 H :    0.142792
   5 H :    0.132606
   6 H :    0.168777
   7 H :    0.154678
Sum of atomic charges:    0.0000000

LOEWDIN ATOMIC CHARGES
----------------------
   0 C :    0.134894
   1 O :   -0.267800
   2 C :   -0.141171
   3 C :   -0.115649
   4 H :    0.087908
   5 H :    0.081365
   6 H :    0.118730
   7 H :    0.101723

  Mayer bond orders larger than 0.100000
B(  0-C ,  1-O ) :   1.8772 B(  0-C ,  2-C ) :   1.0636 B(  0-C ,  4-H ) :   0.9205
B(  2-C ,  3-C ) :   1.9248 B(  2-C ,  5-H ) :   0.9574 B(  3-C ,  6-H ) :   0.9506
B(  3-C ,  7-H ) :   0.9629

-----------------------------------------------------------------------------
         ABSORPTION SPECTRUM VIA TRANSITION ELECTRIC DIPOLE MOMENTS
-----------------------------------------------------------------------------
State   Energy    Wavelength  fosc         T2        TX        TY        TZ
        (cm-1)      (nm)                 (au**2)    (au)      (au)      (au)
-----------------------------------------------------------------------------
   1   29351.2    340.7   0.000043488   0.00049  -0.00137   0.01209   0.01843

Dispersion correction           -0.026033355
FINAL SINGLE POINT ENERGY      -189.330801641682

DIPOLE MOMENT
-------------
                                X             Y             Z
Electronic contribution:     -1.74328      -1.67376      -0.43502
Nuclear contribution   :      2.01627       2.58979       0.58773
                        -----------------------------------------
Total Dipole Moment    :      0.27299       0.91603       0.15271
                        -----------------------------------------
Magnitude (a.u.)       :      0.96796
Magnitude (Debye)      :      2.46036

Rotational constants in cm-1:     0.778024     0.209946     0.165801
Rotational constants in MHz : 23324.564141  6294.028832  4970.587145

                             ****ORCA TERMINATED NORMALLY****
TOTAL RUN TIME: 0 days 0 hours 0 minutes 13 seconds 571 msec
