                         Program Version 5.0.3 -  RELEASE  -
|  1> ! HF-3c
|  2> !TightSCF
|  3> %scf
|  4>  ConvForced true
|  5>  convergence tight
|  6>  MaxIter 500
|  7> end
|  8>
|  9> %tddft
| 10>  nroots 1
| 11> end
| 12>
| 13> # 	29689
| 14> * xyz 0 1
| 15> 		C   -0.620460  -0.458234   0.044276
| 16> 		O   -0.602889  -1.626340  -0.034330
| 17> 		C    0.672241   0.368787  -0.086216
| 18> 		C    1.860699  -0.077476   0.031450
| 19> 		H   -1.413406   0.333225   0.423957
| 20> 		H    0.315283   1.305959  -0.036269
| 21> 		H    2.043117  -1.105180   0.202054
| 22> 		H    2.750203   0.548282   0.072584
| 23> *
| 24>
| 25>                          ****END OF INPUT****

CARTESIAN COORDINATES (ANGSTROEM)
---------------------------------
  C     -0.620460   -0.458234    0.044276
  O     -0.602889   -1.626340   -0.034330
  C      0.672241    0.368787   -0.086216
  C      1.860699   -0.077476    0.031450
  H     -1.413406    0.333225    0.423957
  H      0.315283    1.305959   -0.036269
  H      2.043117   -1.105180    0.202054
  H      2.750203    0.548282    0.072584

 Total Charge           Charge          ....    0
 Multiplicity           Mult            ....    1
 Number of Electrons    NEL             ....   30
 Basis Dimension        Dim             ....   24

ORBITAL ENERGIES
----------------

  NO   OCC          E(Eh)            E(eV)
   0   2.0000     -20.390224      -554.8462
   1   2.0000     -11.306326      -307.6608
   2   2.0000     -11.192395      -304.5606
   3   2.0000     -11.182615      -304.2944
   4   2.0000      -1.436529       -39.0900
   5   2.0000      -1.090717       -29.6799
   6   2.0000      -0.898378       -24.4461
   7   2.0000      -0.745678       -20.2909
   8   2.0000      -0.701989       -19.1021
   9   2.0000      -0.638603       -17.3773
  10   2.0000      -0.615400       -16.7459
  11   2.0000      -0.556820       -15.1518
  12   2.0000      -0.540750       -14.7146
  13   2.0000      -0.417243       -11.3538
  14   2.0000      -0.394938       -10.7468
  15   0.0000       0.151903         4.1335
  16   0.0000       0.308395         8.3918
  17   0.0000       0.493608        13.4318
  18   0.0000       0.569711        15.5026
  19   0.0000       0.700737        19.0680

MULLIKEN ATOMIC CHARGES
-----------------------
   0 C :    0.204756
   1 O :   -0.356361
   2 C :   -0.184429
   3 C :   -0.239880
   4 H :    0.137671
   5 H :    0.132546
   6 H :    0.156255
   7 H :    0.149444
Sum of atomic charges:   -0.0000000

LOEWDIN ATOMIC CHARGES
----------------------
   0 C :    0.162502
   1 O :   -0.243730
   2 C :   -0.137459
   3 C :   -0.136521
   4 H :    0.079534
   5 H :    0.077064
   6 H :    0.100333
   7 H :    0.098277

  Mayer bond orders larger than 0.100000
B(  0-C ,  1-O ) :   1.9474 B(  0-C ,  2-C ) :   0.9708 B(  0-C ,  4-H ) :   0.9039
B(  2-C ,  3-C ) :   1.9849 B(  2-C ,  5-H ) :   0.9628 B(  3-C ,  6-H ) :   0.9565
B(  3-C ,  7-H ) :   0.9589

-----------------------------------------------------------------------------
         ABSORPTION SPECTRUM VIA TRANSITION ELECTRIC DIPOLE MOMENTS
-----------------------------------------------------------------------------
State   Energy    Wavelength  fosc         T2        TX        TY        TZ
        (cm-1)      (nm)                 (au**2)    (au)      (au)      (au)
-----------------------------------------------------------------------------
   1   34669.2    288.4   0.000033692   0.00032   0.01094  -0.01414   0.00071

Dispersion correction           -0.025949399
FINAL SINGLE POINT ENERGY      -189.306449675163

DIPOLE MOMENT
-------------
                                X             Y             Z
Electronic contribution:     -2.15617      -1.90206      -0.42192
Nuclear contribution   :      2.31208       2.80127       0.62138
                        -----------------------------------------
Total Dipole Moment    :      0.15590       0.89921       0.19946
                        -----------------------------------------
Magnitude (a.u.)       :      0.93417
Magnitude (Debye)      :      2.37446

Rotational constants in cm-1:     0.817480     0.202359     0.163375
Rotational constants in MHz : 24507.443817  6066.569050  4897.865028

                             ****ORCA TERMINATED NORMALLY****
TOTAL RUN TIME: 0 days 0 hours 0 minutes 11 seconds 114 msec
