                         Program Version 5.0.3 -  RELEASE  -
|  1> ! HF-3c
|  2> !TightSCF
|  3> %scf
|  4>  ConvForced true
|  5>  convergence tight
|  6>  MaxIter 500
|  7> end
|  8>
|  9> %tddft
| 10>  nroots 1
| 11> end
| 12>
| 13> # 	10220
| 14> * xyz 0 1
| 15> 		C   -1.191698  -0.282458  -0.065670
| 16> 		O   -1.089901  -1.476988   0.004405
| 17> 		C    0.074630   0.478310  -0.066522
| 18> 		C    1.250610  -0.062849   0.007453
| 19> 		H   -2.123731   0.235743   0.073518
| 20> 		H   -0.200618   1.628289   0.154941
| 21> 		H    1.183542  -1.053575  -0.117925
| 22> 		H    2.167176   0.530236   0.041151
| 23> *
| 24>
| 25>                          ****END OF INPUT****

CARTESIAN COORDINATES (ANGSTROEM)
---------------------------------
  C     -1.191698   -0.282458   -0.065670
  O     -1.089901   -1.476988    0.004405
  C      0.074630    0.478310   -0.066522
  C      1.250610   -0.062849    0.007453
  H     -2.123731    0.235743    0.073518
  H     -0.200618    1.628289    0.154941
  H      1.183542   -1.053575   -0.117925
  H      2.167176    0.530236    0.041151

 Total Charge           Charge          ....    0
 Multiplicity           Mult            ....    1
 Number of Electrons    NEL             ....   30
 Basis Dimension        Dim             ....   24

ORBITAL ENERGIES
----------------

  NO   OCC          E(Eh)            E(eV)
   0   2.0000     -20.369838      -554.2915
   1   2.0000     -11.298787      -307.4556
   2   2.0000     -11.186146      -304.3905
   3   2.0000     -11.184988      -304.3590
   4   2.0000      -1.416961       -38.5575
   5   2.0000      -1.087066       -29.5806
   6   2.0000      -0.900327       -24.4991
   7   2.0000      -0.749946       -20.4071
   8   2.0000      -0.703237       -19.1360
   9   2.0000      -0.619470       -16.8566
  10   2.0000      -0.610001       -16.5990
  11   2.0000      -0.551307       -15.0018
  12   2.0000      -0.514194       -13.9919
  13   2.0000      -0.418807       -11.3963
  14   2.0000      -0.398978       -10.8567
  15   0.0000       0.136774         3.7218
  16   0.0000       0.312793         8.5115
  17   0.0000       0.509996        13.8777
  18   0.0000       0.615820        16.7573
  19   0.0000       0.681218        18.5369

MULLIKEN ATOMIC CHARGES
-----------------------
   0 C :    0.153360
   1 O :   -0.347853
   2 C :   -0.140428
   3 C :   -0.263510
   4 H :    0.144532
   5 H :    0.131323
   6 H :    0.164589
   7 H :    0.157987
Sum of atomic charges:    0.0000000

LOEWDIN ATOMIC CHARGES
----------------------
   0 C :    0.136377
   1 O :   -0.250392
   2 C :   -0.106509
   3 C :   -0.155958
   4 H :    0.077908
   5 H :    0.088819
   6 H :    0.102737
   7 H :    0.107017

  Mayer bond orders larger than 0.100000
B(  0-C ,  1-O ) :   1.9077 B(  0-C ,  2-C ) :   1.0177 B(  0-C ,  4-H ) :   0.9288
B(  2-C ,  3-C ) :   1.9646 B(  2-C ,  5-H ) :   0.9557 B(  3-C ,  6-H ) :   0.9529
B(  3-C ,  7-H ) :   0.9602

-----------------------------------------------------------------------------
         ABSORPTION SPECTRUM VIA TRANSITION ELECTRIC DIPOLE MOMENTS
-----------------------------------------------------------------------------
State   Energy    Wavelength  fosc         T2        TX        TY        TZ
        (cm-1)      (nm)                 (au**2)    (au)      (au)      (au)
-----------------------------------------------------------------------------
   1   32071.0    311.8   0.000025251   0.00026  -0.01316  -0.00127  -0.00918

Dispersion correction           -0.026510638
FINAL SINGLE POINT ENERGY      -189.317774195043

DIPOLE MOMENT
-------------
                                X             Y             Z
Electronic contribution:     -1.85499      -1.68907      -0.20901
Nuclear contribution   :      1.94127       2.62575       0.22804
                        -----------------------------------------
Total Dipole Moment    :      0.08628       0.93668       0.01903
                        -----------------------------------------
Magnitude (a.u.)       :      0.94084
Magnitude (Debye)      :      2.39143

Rotational constants in cm-1:     0.762748     0.224671     0.173955
Rotational constants in MHz : 22866.624649  6735.469830  5215.050559

                             ****ORCA TERMINATED NORMALLY****
TOTAL RUN TIME: 0 days 0 hours 0 minutes 16 seconds 95 msec
