                         Program Version 5.0.3 -  RELEASE  -
|  1> ! HF-3c
|  2> !TightSCF
|  3> %scf
|  4>  ConvForced true
|  5>  convergence tight
|  6>  MaxIter 500
|  7> end
|  8>
|  9> %tddft
| 10>  nroots 1
| 11> end
| 12>
| 13> # 	13410
| 14> * xyz 0 1
| 15> 		C   -1.231798  -0.365195  -0.113450
| 16> 		O   -1.546245  -1.163275  -0.900193
| 17> 		C    0.033131   0.436797  -0.178776
| 18> 		C    1.256110   0.073889   0.218262
| 19> 		H   -1.860966  -0.116098   0.867810
| 20> 		H    0.024192   1.438641  -0.701011
| 21> 		H    1.248892  -0.959587   0.679291
| 22> 		H    2.132941   0.601523   0.068070
| 23> *
| 24>
| 25>                          ****END OF INPUT****

CARTESIAN COORDINATES (ANGSTROEM)
---------------------------------
  C     -1.231798   -0.365195   -0.113450
  O     -1.546245   -1.163275   -0.900193
  C      0.033131    0.436797   -0.178776
  C      1.256110    0.073889    0.218262
  H     -1.860966   -0.116098    0.867810
  H      0.024192    1.438641   -0.701011
  H      1.248892   -0.959587    0.679291
  H      2.132941    0.601523    0.068070

 Total Charge           Charge          ....    0
 Multiplicity           Mult            ....    1
 Number of Electrons    NEL             ....   30
 Basis Dimension        Dim             ....   24

ORBITAL ENERGIES
----------------

  NO   OCC          E(Eh)            E(eV)
   0   2.0000     -20.399723      -555.1047
   1   2.0000     -11.319642      -308.0231
   2   2.0000     -11.182607      -304.2942
   3   2.0000     -11.174297      -304.0681
   4   2.0000      -1.448512       -39.4160
   5   2.0000      -1.070492       -29.1296
   6   2.0000      -0.879192       -23.9240
   7   2.0000      -0.747321       -20.3356
   8   2.0000      -0.685838       -18.6626
   9   2.0000      -0.649542       -17.6749
  10   2.0000      -0.617185       -16.7945
  11   2.0000      -0.554533       -15.0896
  12   2.0000      -0.503918       -13.7123
  13   2.0000      -0.411704       -11.2030
  14   2.0000      -0.395330       -10.7575
  15   0.0000       0.199056         5.4166
  16   0.0000       0.217308         5.9133
  17   0.0000       0.520976        14.1765
  18   0.0000       0.600214        16.3327
  19   0.0000       0.641000        17.4425

MULLIKEN ATOMIC CHARGES
-----------------------
   0 C :    0.197233
   1 O :   -0.349725
   2 C :   -0.160332
   3 C :   -0.250801
   4 H :    0.135418
   5 H :    0.147052
   6 H :    0.137340
   7 H :    0.143816
Sum of atomic charges:   -0.0000000

LOEWDIN ATOMIC CHARGES
----------------------
   0 C :    0.158998
   1 O :   -0.235632
   2 C :   -0.121373
   3 C :   -0.160240
   4 H :    0.076873
   5 H :    0.099219
   6 H :    0.092169
   7 H :    0.089987

  Mayer bond orders larger than 0.100000
B(  0-C ,  1-O ) :   1.9613 B(  0-C ,  2-C ) :   0.9772 B(  0-C ,  4-H ) :   0.8991
B(  2-C ,  3-C ) :   1.9994 B(  2-C ,  5-H ) :   0.9469 B(  3-C ,  6-H ) :   0.9644
B(  3-C ,  7-H ) :   0.9664

-----------------------------------------------------------------------------
         ABSORPTION SPECTRUM VIA TRANSITION ELECTRIC DIPOLE MOMENTS
-----------------------------------------------------------------------------
State   Energy    Wavelength  fosc         T2        TX        TY        TZ
        (cm-1)      (nm)                 (au**2)    (au)      (au)      (au)
-----------------------------------------------------------------------------
   1   37705.8    265.2   0.000051511   0.00045  -0.01753  -0.00987  -0.00672

Dispersion correction           -0.024949916
FINAL SINGLE POINT ENERGY      -189.296682360235

DIPOLE MOMENT
-------------
                                X             Y             Z
Electronic contribution:     -2.61420      -1.32529      -1.21671
Nuclear contribution   :      2.93806       1.95556       1.80993
                        -----------------------------------------
Total Dipole Moment    :      0.32386       0.63027       0.59322
                        -----------------------------------------
Magnitude (a.u.)       :      0.92414
Magnitude (Debye)      :      2.34897

Rotational constants in cm-1:     1.004989     0.166399     0.157136
Rotational constants in MHz : 30128.815308  4988.531219  4710.809900

                             ****ORCA TERMINATED NORMALLY****
TOTAL RUN TIME: 0 days 0 hours 0 minutes 13 seconds 160 msec
