                         Program Version 5.0.3 -  RELEASE  -
|  1> ! B3LYP cc-pVDZ
|  2> !TightSCF
|  3> %scf
|  4>  ConvForced true
|  5>  convergence tight
|  6>  MaxIter 500
|  7> end
|  8>
|  9> %tddft
| 10>  nroots 1
| 11> end
| 12>
| 13> # 	21492
| 14> * xyz 0 1
| 15> 		C   -0.622299  -0.404309   0.062829
| 16> 		O   -0.501299  -1.605955  -0.034923
| 17> 		C    0.577973   0.444809  -0.090587
| 18> 		C    1.811582  -0.215144   0.023765
| 19> 		H   -1.663818   0.061838   0.133637
| 20> 		H    0.648385   1.684502   0.246293
| 21> 		H    2.137593  -1.208953   0.393521
| 22> 		H    2.746882   0.330125  -0.179149
| 23> *
| 24>
| 25>                          ****END OF INPUT****

CARTESIAN COORDINATES (ANGSTROEM)
---------------------------------
  C     -0.622299   -0.404309    0.062829
  O     -0.501299   -1.605955   -0.034923
  C      0.577973    0.444809   -0.090587
  C      1.811582   -0.215144    0.023765
  H     -1.663818    0.061838    0.133637
  H      0.648385    1.684502    0.246293
  H      2.137593   -1.208953    0.393521
  H      2.746882    0.330125   -0.179149

 Total Charge           Charge          ....    0
 Multiplicity           Mult            ....    1
 Number of Electrons    NEL             ....   30
 Basis Dimension        Dim             ....   76

ORBITAL ENERGIES
----------------

  NO   OCC          E(Eh)            E(eV)
   0   2.0000     -19.134341      -520.6719
   1   2.0000     -10.276552      -279.6392
   2   2.0000     -10.228239      -278.3245
   3   2.0000     -10.227732      -278.3107
   4   2.0000      -1.045268       -28.4432
   5   2.0000      -0.775884       -21.1129
   6   2.0000      -0.649664       -17.6782
   7   2.0000      -0.543210       -14.7815
   8   2.0000      -0.487615       -13.2687
   9   2.0000      -0.442478       -12.0404
  10   2.0000      -0.407029       -11.0758
  11   2.0000      -0.400011       -10.8849
  12   2.0000      -0.368941       -10.0394
  13   2.0000      -0.270849        -7.3702
  14   2.0000      -0.254684        -6.9303
  15   0.0000      -0.081776        -2.2252
  16   0.0000       0.026229         0.7137
  17   0.0000       0.061527         1.6742
  18   0.0000       0.088536         2.4092
  19   0.0000       0.100062         2.7228

MULLIKEN ATOMIC CHARGES
-----------------------
   0 C :    0.186042
   1 O :   -0.193608
   2 C :   -0.170877
   3 C :    0.041043
   4 H :   -0.008887
   5 H :    0.057279
   6 H :    0.057005
   7 H :    0.032004
Sum of atomic charges:   -0.0000000

LOEWDIN ATOMIC CHARGES
----------------------
   0 C :   -0.049006
   1 O :   -0.007435
   2 C :   -0.112180
   3 C :    0.039357
   4 H :   -0.000810
   5 H :    0.064419
   6 H :    0.037602
   7 H :    0.028054

  Mayer bond orders larger than 0.100000
B(  0-C ,  1-O ) :   2.1640 B(  0-C ,  2-C ) :   1.0385 B(  0-C ,  4-H ) :   0.9235
B(  1-O ,  3-C ) :   0.1128 B(  2-C ,  3-C ) :   1.8803 B(  2-C ,  5-H ) :   0.9173
B(  3-C ,  6-H ) :   0.9644 B(  3-C ,  7-H ) :   0.9543

-----------------------------------------------------------------------------
         ABSORPTION SPECTRUM VIA TRANSITION ELECTRIC DIPOLE MOMENTS
-----------------------------------------------------------------------------
State   Energy    Wavelength  fosc         T2        TX        TY        TZ
        (cm-1)      (nm)                 (au**2)    (au)      (au)      (au)
-----------------------------------------------------------------------------
   1   26116.5    382.9   0.001606064   0.02025  -0.11630  -0.07822  -0.02453

FINAL SINGLE POINT ENERGY      -191.645296478176

DIPOLE MOMENT
-------------
                                X             Y             Z
Electronic contribution:     -2.03831      -1.80749      -0.34288
Nuclear contribution   :      2.47289       2.59894       0.55756
                        -----------------------------------------
Total Dipole Moment    :      0.43458       0.79145       0.21468
                        -----------------------------------------
Magnitude (a.u.)       :      0.92809
Magnitude (Debye)      :      2.35901

Rotational constants in cm-1:     0.664361     0.223290     0.168591
Rotational constants in MHz : 19917.030991  6694.054628  5054.220955

                             ****ORCA TERMINATED NORMALLY****
TOTAL RUN TIME: 0 days 0 hours 3 minutes 22 seconds 280 msec
