                         Program Version 5.0.3 -  RELEASE  -
|  1> ! B3LYP cc-pVDZ
|  2> !TightSCF
|  3> %scf
|  4>  ConvForced true
|  5>  convergence tight
|  6>  MaxIter 500
|  7> end
|  8>
|  9> %tddft
| 10>  nroots 1
| 11> end
| 12>
| 13> # 	1712
| 14> * xyz 0 1
| 15> 		C   -1.191185  -0.370645  -0.017853
| 16> 		O   -1.652912  -1.176933  -0.797394
| 17> 		C   -0.030496   0.528799  -0.192664
| 18> 		C    1.176303   0.005699   0.193613
| 19> 		H   -1.613971  -0.253367   0.945976
| 20> 		H   -0.254995   1.452115  -0.784583
| 21> 		H    1.401451  -0.916964   0.614897
| 22> 		H    2.050879   0.687884   0.044863
| 23> *
| 24>
| 25>                          ****END OF INPUT****

CARTESIAN COORDINATES (ANGSTROEM)
---------------------------------
  C     -1.191185   -0.370645   -0.017853
  O     -1.652912   -1.176933   -0.797394
  C     -0.030496    0.528799   -0.192664
  C      1.176303    0.005699    0.193613
  H     -1.613971   -0.253367    0.945976
  H     -0.254995    1.452115   -0.784583
  H      1.401451   -0.916964    0.614897
  H      2.050879    0.687884    0.044863

 Total Charge           Charge          ....    0
 Multiplicity           Mult            ....    1
 Number of Electrons    NEL             ....   30
 Basis Dimension        Dim             ....   76

ORBITAL ENERGIES
----------------

  NO   OCC          E(Eh)            E(eV)
   0   2.0000     -19.142189      -520.8855
   1   2.0000     -10.272664      -279.5334
   2   2.0000     -10.215075      -277.9663
   3   2.0000     -10.210971      -277.8546
   4   2.0000      -1.046468       -28.4759
   5   2.0000      -0.794454       -21.6182
   6   2.0000      -0.656651       -17.8684
   7   2.0000      -0.565678       -15.3929
   8   2.0000      -0.487244       -13.2586
   9   2.0000      -0.463179       -12.6037
  10   2.0000      -0.445203       -12.1146
  11   2.0000      -0.390419       -10.6238
  12   2.0000      -0.372178       -10.1275
  13   2.0000      -0.282159        -7.6779
  14   2.0000      -0.251923        -6.8552
  15   0.0000      -0.036367        -0.9896
  16   0.0000      -0.016556        -0.4505
  17   0.0000       0.078651         2.1402
  18   0.0000       0.092152         2.5076
  19   0.0000       0.111719         3.0400

MULLIKEN ATOMIC CHARGES
-----------------------
   0 C :    0.191474
   1 O :   -0.187894
   2 C :   -0.113189
   3 C :    0.036198
   4 H :   -0.021103
   5 H :    0.040740
   6 H :    0.018465
   7 H :    0.035310
Sum of atomic charges:   -0.0000000

LOEWDIN ATOMIC CHARGES
----------------------
   0 C :   -0.021929
   1 O :    0.004633
   2 C :   -0.053642
   3 C :   -0.014123
   4 H :   -0.014420
   5 H :    0.047252
   6 H :    0.015334
   7 H :    0.036895

  Mayer bond orders larger than 0.100000
B(  0-C ,  1-O ) :   2.2396 B(  0-C ,  2-C ) :   0.9945 B(  0-C ,  4-H ) :   0.9206
B(  2-C ,  3-C ) :   2.0126 B(  2-C ,  5-H ) :   0.9357 B(  3-C ,  6-H ) :   0.9573
B(  3-C ,  7-H ) :   0.9514

-----------------------------------------------------------------------------
         ABSORPTION SPECTRUM VIA TRANSITION ELECTRIC DIPOLE MOMENTS
-----------------------------------------------------------------------------
State   Energy    Wavelength  fosc         T2        TX        TY        TZ
        (cm-1)      (nm)                 (au**2)    (au)      (au)      (au)
-----------------------------------------------------------------------------
   1   32551.8    307.2   0.000000727   0.00001   0.00150   0.00118   0.00192

FINAL SINGLE POINT ENERGY      -191.635185533963

DIPOLE MOMENT
-------------
                                X             Y             Z
Electronic contribution:     -2.64176      -1.32066      -1.09211
Nuclear contribution   :      3.16750       1.95974       1.57392
                        -----------------------------------------
Total Dipole Moment    :      0.52574       0.63908       0.48181
                        -----------------------------------------
Magnitude (a.u.)       :      0.95759
Magnitude (Debye)      :      2.43399

Rotational constants in cm-1:     0.942222     0.170456     0.159226
Rotational constants in MHz : 28247.090372  5110.131466  4773.479102

                             ****ORCA TERMINATED NORMALLY****
TOTAL RUN TIME: 0 days 0 hours 3 minutes 20 seconds 98 msec
