                         Program Version 5.0.3 -  RELEASE  -
|  1> ! HF-3c
|  2> !TightSCF
|  3> %scf
|  4>  ConvForced true
|  5>  convergence tight
|  6>  MaxIter 500
|  7> end
|  8>
|  9> %tddft
| 10>  nroots 1
| 11> end
| 12>
| 13> # 	7468
| 14> * xyz 0 1
| 15> 		C   -1.240417  -0.317411  -0.043092
| 16> 		O   -1.703130  -0.974086  -0.862444
| 17> 		C    0.017576   0.518616  -0.187668
| 18> 		C    1.216943   0.031869   0.149357
| 19> 		H   -1.769161  -0.483017   0.921237
| 20> 		H   -0.031713   1.565635  -0.776669
| 21> 		H    1.374688  -0.962979   0.739458
| 22> 		H    2.153182   0.613232   0.064813
| 23> *
| 24>
| 25>                          ****END OF INPUT****

CARTESIAN COORDINATES (ANGSTROEM)
---------------------------------
  C     -1.240417   -0.317411   -0.043092
  O     -1.703130   -0.974086   -0.862444
  C      0.017576    0.518616   -0.187668
  C      1.216943    0.031869    0.149357
  H     -1.769161   -0.483017    0.921237
  H     -0.031713    1.565635   -0.776669
  H      1.374688   -0.962979    0.739458
  H      2.153182    0.613232    0.064813

 Total Charge           Charge          ....    0
 Multiplicity           Mult            ....    1
 Number of Electrons    NEL             ....   30
 Basis Dimension        Dim             ....   24

ORBITAL ENERGIES
----------------

  NO   OCC          E(Eh)            E(eV)
   0   2.0000     -20.386929      -554.7566
   1   2.0000     -11.312139      -307.8189
   2   2.0000     -11.186855      -304.4098
   3   2.0000     -11.175784      -304.1085
   4   2.0000      -1.455947       -39.6183
   5   2.0000      -1.059757       -28.8375
   6   2.0000      -0.859448       -23.3868
   7   2.0000      -0.761957       -20.7339
   8   2.0000      -0.675627       -18.3847
   9   2.0000      -0.634500       -17.2656
  10   2.0000      -0.606018       -16.4906
  11   2.0000      -0.541916       -14.7463
  12   2.0000      -0.509712       -13.8700
  13   2.0000      -0.402443       -10.9510
  14   2.0000      -0.395897       -10.7729
  15   0.0000       0.198964         5.4141
  16   0.0000       0.230999         6.2858
  17   0.0000       0.513622        13.9764
  18   0.0000       0.519070        14.1246
  19   0.0000       0.634400        17.2629

MULLIKEN ATOMIC CHARGES
-----------------------
   0 C :    0.176375
   1 O :   -0.354801
   2 C :   -0.157088
   3 C :   -0.233156
   4 H :    0.137988
   5 H :    0.155722
   6 H :    0.137207
   7 H :    0.137754
Sum of atomic charges:    0.0000000

LOEWDIN ATOMIC CHARGES
----------------------
   0 C :    0.142122
   1 O :   -0.237847
   2 C :   -0.123399
   3 C :   -0.148912
   4 H :    0.072482
   5 H :    0.111936
   6 H :    0.093789
   7 H :    0.089830

  Mayer bond orders larger than 0.100000
B(  0-C ,  1-O ) :   1.9493 B(  0-C ,  2-C ) :   0.9705 B(  0-C ,  4-H ) :   0.9166
B(  2-C ,  3-C ) :   2.0019 B(  2-C ,  5-H ) :   0.9430 B(  3-C ,  6-H ) :   0.9619
B(  3-C ,  7-H ) :   0.9630

-----------------------------------------------------------------------------
         ABSORPTION SPECTRUM VIA TRANSITION ELECTRIC DIPOLE MOMENTS
-----------------------------------------------------------------------------
State   Energy    Wavelength  fosc         T2        TX        TY        TZ
        (cm-1)      (nm)                 (au**2)    (au)      (au)      (au)
-----------------------------------------------------------------------------
   1   37444.6    267.1   0.000018575   0.00016  -0.00938  -0.00406   0.00768

Dispersion correction           -0.024470912
FINAL SINGLE POINT ENERGY      -189.286406829812

DIPOLE MOMENT
-------------
                                X             Y             Z
Electronic contribution:     -2.76698      -0.95745      -1.20048
Nuclear contribution   :      3.31391       1.48266       1.80610
                        -----------------------------------------
Total Dipole Moment    :      0.54692       0.52521       0.60562
                        -----------------------------------------
Magnitude (a.u.)       :      0.97044
Magnitude (Debye)      :      2.46665

Rotational constants in cm-1:     1.009530     0.164543     0.157667
Rotational constants in MHz : 30264.961109  4932.875194  4726.732683

                             ****ORCA TERMINATED NORMALLY****
TOTAL RUN TIME: 0 days 0 hours 0 minutes 13 seconds 556 msec
