                         Program Version 5.0.3 -  RELEASE  -
|  1> ! B3LYP cc-pVDZ
|  2> !TightSCF
|  3> %scf
|  4>  ConvForced true
|  5>  convergence tight
|  6>  MaxIter 500
|  7> end
|  8>
|  9> %tddft
| 10>  nroots 1
| 11> end
| 12>
| 13> # 	20943
| 14> * xyz 0 1
| 15> 		C   -0.574992  -0.420323   0.061061
| 16> 		O   -0.594383  -1.665130  -0.033023
| 17> 		C    0.652825   0.437182  -0.058959
| 18> 		C    1.855221  -0.129397   0.041767
| 19> 		H   -1.741140   0.118687   0.157009
| 20> 		H    0.426629   1.401563  -0.142159
| 21> 		H    1.968759  -1.082656  -0.014889
| 22> 		H    2.701773   0.586048  -0.007978
| 23> *
| 24>
| 25>                          ****END OF INPUT****

CARTESIAN COORDINATES (ANGSTROEM)
---------------------------------
  C     -0.574992   -0.420323    0.061061
  O     -0.594383   -1.665130   -0.033023
  C      0.652825    0.437182   -0.058959
  C      1.855221   -0.129397    0.041767
  H     -1.741140    0.118687    0.157009
  H      0.426629    1.401563   -0.142159
  H      1.968759   -1.082656   -0.014889
  H      2.701773    0.586048   -0.007978

 Total Charge           Charge          ....    0
 Multiplicity           Mult            ....    1
 Number of Electrons    NEL             ....   30
 Basis Dimension        Dim             ....   76

ORBITAL ENERGIES
----------------

  NO   OCC          E(Eh)            E(eV)
   0   2.0000     -19.141182      -520.8580
   1   2.0000     -10.289667      -279.9961
   2   2.0000     -10.208927      -277.7990
   3   2.0000     -10.206383      -277.7298
   4   2.0000      -1.026389       -27.9295
   5   2.0000      -0.807188       -21.9647
   6   2.0000      -0.661022       -17.9873
   7   2.0000      -0.551503       -15.0072
   8   2.0000      -0.498645       -13.5688
   9   2.0000      -0.462634       -12.5889
  10   2.0000      -0.412291       -11.2190
  11   2.0000      -0.397983       -10.8297
  12   2.0000      -0.387022       -10.5314
  13   2.0000      -0.292360        -7.9555
  14   2.0000      -0.252365        -6.8672
  15   0.0000      -0.075244        -2.0475
  16   0.0000       0.046677         1.2701
  17   0.0000       0.057056         1.5526
  18   0.0000       0.087210         2.3731
  19   0.0000       0.121761         3.3133

MULLIKEN ATOMIC CHARGES
-----------------------
   0 C :    0.110601
   1 O :   -0.213008
   2 C :   -0.037664
   3 C :    0.177853
   4 H :   -0.002067
   5 H :   -0.050038
   6 H :   -0.022538
   7 H :    0.036861
Sum of atomic charges:   -0.0000000

LOEWDIN ATOMIC CHARGES
----------------------
   0 C :   -0.015885
   1 O :   -0.044042
   2 C :   -0.048705
   3 C :    0.065359
   4 H :    0.003586
   5 H :    0.002618
   6 H :   -0.007524
   7 H :    0.044592

  Mayer bond orders larger than 0.100000
B(  0-C ,  1-O ) :   2.1429 B(  0-C ,  2-C ) :   1.0380 B(  0-C ,  4-H ) :   0.8852
B(  2-C ,  3-C ) :   1.9700 B(  2-C ,  5-H ) :   0.9543 B(  3-C ,  6-H ) :   0.9275
B(  3-C ,  7-H ) :   0.9435

-----------------------------------------------------------------------------
         ABSORPTION SPECTRUM VIA TRANSITION ELECTRIC DIPOLE MOMENTS
-----------------------------------------------------------------------------
State   Energy    Wavelength  fosc         T2        TX        TY        TZ
        (cm-1)      (nm)                 (au**2)    (au)      (au)      (au)
-----------------------------------------------------------------------------
   1   26170.4    382.1   0.000364094   0.00458   0.05180  -0.01230   0.04178

FINAL SINGLE POINT ENERGY      -191.649584098638

DIPOLE MOMENT
-------------
                                X             Y             Z
Electronic contribution:     -1.47708      -1.81917       0.01904
Nuclear contribution   :      1.99122       2.74746      -0.00737
                        -----------------------------------------
Total Dipole Moment    :      0.51414       0.92829       0.01167
                        -----------------------------------------
Magnitude (a.u.)       :      1.06123
Magnitude (Debye)      :      2.69742

Rotational constants in cm-1:     0.753091     0.203427     0.160684
Rotational constants in MHz : 22577.103795  6098.597762  4817.177131

                             ****ORCA TERMINATED NORMALLY****
TOTAL RUN TIME: 0 days 0 hours 3 minutes 20 seconds 753 msec
