                         Program Version 5.0.3 -  RELEASE  -
|  1> ! B3LYP cc-pVDZ
|  2> !TightSCF
|  3> %scf
|  4>  ConvForced true
|  5>  convergence tight
|  6>  MaxIter 500
|  7> end
|  8>
|  9> %tddft
| 10>  nroots 1
| 11> end
| 12>
| 13> # 	814
| 14> * xyz 0 1
| 15> 		C   -1.253447  -0.329480   0.075581
| 16> 		O   -1.998023  -0.605141   0.939387
| 17> 		C    0.030513   0.446988   0.278553
| 18> 		C    1.161200   0.117704  -0.258279
| 19> 		H   -1.292103  -0.814874  -0.962109
| 20> 		H    0.016959   1.267945   0.957958
| 21> 		H    1.227596  -0.733474  -0.962627
| 22> 		H    2.070503   0.692891  -0.101198
| 23> *
| 24>
| 25>                          ****END OF INPUT****

CARTESIAN COORDINATES (ANGSTROEM)
---------------------------------
  C     -1.253447   -0.329480    0.075581
  O     -1.998023   -0.605141    0.939387
  C      0.030513    0.446988    0.278553
  C      1.161200    0.117704   -0.258279
  H     -1.292103   -0.814874   -0.962109
  H      0.016959    1.267945    0.957958
  H      1.227596   -0.733474   -0.962627
  H      2.070503    0.692891   -0.101198

 Total Charge           Charge          ....    0
 Multiplicity           Mult            ....    1
 Number of Electrons    NEL             ....   30
 Basis Dimension        Dim             ....   76

ORBITAL ENERGIES
----------------

  NO   OCC          E(Eh)            E(eV)
   0   2.0000     -19.147281      -521.0240
   1   2.0000     -10.281939      -279.7858
   2   2.0000     -10.205593      -277.7083
   3   2.0000     -10.197570      -277.4900
   4   2.0000      -1.073974       -29.2243
   5   2.0000      -0.804163       -21.8824
   6   2.0000      -0.639215       -17.3939
   7   2.0000      -0.566069       -15.4035
   8   2.0000      -0.480967       -13.0878
   9   2.0000      -0.475305       -12.9337
  10   2.0000      -0.438114       -11.9217
  11   2.0000      -0.407173       -11.0797
  12   2.0000      -0.381875       -10.3913
  13   2.0000      -0.296843        -8.0775
  14   2.0000      -0.257619        -7.0102
  15   0.0000      -0.050427        -1.3722
  16   0.0000       0.038370         1.0441
  17   0.0000       0.080230         2.1832
  18   0.0000       0.085652         2.3307
  19   0.0000       0.117000         3.1837

MULLIKEN ATOMIC CHARGES
-----------------------
   0 C :    0.160565
   1 O :   -0.147788
   2 C :   -0.074621
   3 C :    0.047318
   4 H :   -0.025634
   5 H :   -0.008952
   6 H :    0.018546
   7 H :    0.030565
Sum of atomic charges:   -0.0000000

LOEWDIN ATOMIC CHARGES
----------------------
   0 C :   -0.049294
   1 O :    0.046120
   2 C :   -0.062627
   3 C :   -0.014379
   4 H :   -0.010196
   5 H :    0.026727
   6 H :    0.029528
   7 H :    0.034121

  Mayer bond orders larger than 0.100000
B(  0-C ,  1-O ) :   2.2399 B(  0-C ,  2-C ) :   1.0053 B(  0-C ,  4-H ) :   0.8987
B(  2-C ,  3-C ) :   2.0163 B(  2-C ,  5-H ) :   0.9421 B(  3-C ,  6-H ) :   0.9363
B(  3-C ,  7-H ) :   0.9337

-----------------------------------------------------------------------------
         ABSORPTION SPECTRUM VIA TRANSITION ELECTRIC DIPOLE MOMENTS
-----------------------------------------------------------------------------
State   Energy    Wavelength  fosc         T2        TX        TY        TZ
        (cm-1)      (nm)                 (au**2)    (au)      (au)      (au)
-----------------------------------------------------------------------------
   1   32177.9    310.8   0.000427503   0.00437  -0.03729   0.03254   0.04387

FINAL SINGLE POINT ENERGY      -191.653146602644

DIPOLE MOMENT
-------------
                                X             Y             Z
Electronic contribution:     -3.17928      -0.51961       1.49069
Nuclear contribution   :      3.92927       0.81085      -2.00305
                        -----------------------------------------
Total Dipole Moment    :      0.74999       0.29125      -0.51236
                        -----------------------------------------
Magnitude (a.u.)       :      0.95385
Magnitude (Debye)      :      2.42449

Rotational constants in cm-1:     1.388771     0.157465     0.147733
Rotational constants in MHz : 41634.300684  4720.670560  4428.911763

                             ****ORCA TERMINATED NORMALLY****
TOTAL RUN TIME: 0 days 0 hours 3 minutes 12 seconds 113 msec
