                         Program Version 5.0.3 -  RELEASE  -
|  1> ! B3LYP cc-pVDZ
|  2> !TightSCF
|  3> %scf
|  4>  ConvForced true
|  5>  convergence tight
|  6>  MaxIter 500
|  7> end
|  8>
|  9> %tddft
| 10>  nroots 1
| 11> end
| 12>
| 13> # 	29679
| 14> * xyz 0 1
| 15> 		C   -0.573597  -0.457042  -0.021373
| 16> 		O   -0.594339  -1.653141   0.026003
| 17> 		C    0.634604   0.462033   0.057439
| 18> 		C    1.836246  -0.118172  -0.031796
| 19> 		H   -1.449497   0.079505  -0.272687
| 20> 		H    0.575252   1.541382  -0.105590
| 21> 		H    1.972188  -1.239607  -0.302241
| 22> 		H    2.722211   0.447880   0.233845
| 23> *
| 24>
| 25>                          ****END OF INPUT****

CARTESIAN COORDINATES (ANGSTROEM)
---------------------------------
  C     -0.573597   -0.457042   -0.021373
  O     -0.594339   -1.653141    0.026003
  C      0.634604    0.462033    0.057439
  C      1.836246   -0.118172   -0.031796
  H     -1.449497    0.079505   -0.272687
  H      0.575252    1.541382   -0.105590
  H      1.972188   -1.239607   -0.302241
  H      2.722211    0.447880    0.233845

 Total Charge           Charge          ....    0
 Multiplicity           Mult            ....    1
 Number of Electrons    NEL             ....   30
 Basis Dimension        Dim             ....   76

ORBITAL ENERGIES
----------------

  NO   OCC          E(Eh)            E(eV)
   0   2.0000     -19.139755      -520.8192
   1   2.0000     -10.270730      -279.4808
   2   2.0000     -10.216318      -278.0001
   3   2.0000     -10.204049      -277.6663
   4   2.0000      -1.053186       -28.6586
   5   2.0000      -0.791761       -21.5449
   6   2.0000      -0.650340       -17.6967
   7   2.0000      -0.544340       -14.8122
   8   2.0000      -0.506915       -13.7939
   9   2.0000      -0.444859       -12.1052
  10   2.0000      -0.423225       -11.5165
  11   2.0000      -0.401697       -10.9307
  12   2.0000      -0.381415       -10.3788
  13   2.0000      -0.283114        -7.7039
  14   2.0000      -0.253554        -6.8995
  15   0.0000      -0.068207        -1.8560
  16   0.0000       0.049539         1.3480
  17   0.0000       0.074373         2.0238
  18   0.0000       0.086585         2.3561
  19   0.0000       0.126087         3.4310

MULLIKEN ATOMIC CHARGES
-----------------------
   0 C :    0.217280
   1 O :   -0.181155
   2 C :   -0.136268
   3 C :    0.038084
   4 H :   -0.036666
   5 H :    0.007799
   6 H :    0.060175
   7 H :    0.030751
Sum of atomic charges:    0.0000000

LOEWDIN ATOMIC CHARGES
----------------------
   0 C :   -0.031493
   1 O :    0.011299
   2 C :   -0.089879
   3 C :    0.020463
   4 H :   -0.018621
   5 H :    0.033872
   6 H :    0.047166
   7 H :    0.027193

  Mayer bond orders larger than 0.100000
B(  0-C ,  1-O ) :   2.2118 B(  0-C ,  2-C ) :   1.0286 B(  0-C ,  4-H ) :   0.9253
B(  2-C ,  3-C ) :   1.9571 B(  2-C ,  5-H ) :   0.9415 B(  3-C ,  6-H ) :   0.9400
B(  3-C ,  7-H ) :   0.9432

-----------------------------------------------------------------------------
         ABSORPTION SPECTRUM VIA TRANSITION ELECTRIC DIPOLE MOMENTS
-----------------------------------------------------------------------------
State   Energy    Wavelength  fosc         T2        TX        TY        TZ
        (cm-1)      (nm)                 (au**2)    (au)      (au)      (au)
-----------------------------------------------------------------------------
   1   28251.6    354.0   0.000486991   0.00567  -0.06610  -0.02076   0.02956

FINAL SINGLE POINT ENERGY      -191.662954326053

DIPOLE MOMENT
-------------
                                X             Y             Z
Electronic contribution:     -2.02105      -1.68175       0.31420
Nuclear contribution   :      2.42407       2.56598      -0.41982
                        -----------------------------------------
Total Dipole Moment    :      0.40302       0.88423      -0.10562
                        -----------------------------------------
Magnitude (a.u.)       :      0.97747
Magnitude (Debye)      :      2.48452

Rotational constants in cm-1:     0.759474     0.205348     0.162581
Rotational constants in MHz : 22768.468636  6156.168577  4874.069656

                             ****ORCA TERMINATED NORMALLY****
TOTAL RUN TIME: 0 days 0 hours 3 minutes 22 seconds 170 msec
