                         Program Version 5.0.3 -  RELEASE  -
|  1> ! HF-3c
|  2> !TightSCF
|  3> %scf
|  4>  ConvForced true
|  5>  convergence tight
|  6>  MaxIter 500
|  7> end
|  8>
|  9> %tddft
| 10>  nroots 1
| 11> end
| 12>
| 13> # 	5106
| 14> * xyz 0 1
| 15> 		C   -1.177964  -0.299503  -0.020954
| 16> 		O   -1.412475  -1.350390  -0.582569
| 17> 		C    0.061248   0.523870  -0.193118
| 18> 		C    1.214695  -0.011153   0.168418
| 19> 		H   -1.835440   0.077032   0.765312
| 20> 		H   -0.135977   1.555004  -0.531403
| 21> 		H    1.370237  -1.096912   0.443892
| 22> 		H    1.942010   0.648833  -0.030149
| 23> *
| 24>
| 25>                          ****END OF INPUT****

CARTESIAN COORDINATES (ANGSTROEM)
---------------------------------
  C     -1.177964   -0.299503   -0.020954
  O     -1.412475   -1.350390   -0.582569
  C      0.061248    0.523870   -0.193118
  C      1.214695   -0.011153    0.168418
  H     -1.835440    0.077032    0.765312
  H     -0.135977    1.555004   -0.531403
  H      1.370237   -1.096912    0.443892
  H      1.942010    0.648833   -0.030149

 Total Charge           Charge          ....    0
 Multiplicity           Mult            ....    1
 Number of Electrons    NEL             ....   30
 Basis Dimension        Dim             ....   24

ORBITAL ENERGIES
----------------

  NO   OCC          E(Eh)            E(eV)
   0   2.0000     -20.371090      -554.3255
   1   2.0000     -11.293444      -307.3102
   2   2.0000     -11.192371      -304.5599
   3   2.0000     -11.183982      -304.3316
   4   2.0000      -1.400329       -38.1049
   5   2.0000      -1.088910       -29.6307
   6   2.0000      -0.893815       -24.3219
   7   2.0000      -0.753237       -20.4966
   8   2.0000      -0.698848       -19.0166
   9   2.0000      -0.622999       -16.9527
  10   2.0000      -0.609441       -16.5837
  11   2.0000      -0.555654       -15.1201
  12   2.0000      -0.506070       -13.7709
  13   2.0000      -0.411943       -11.2095
  14   2.0000      -0.404125       -10.9968
  15   0.0000       0.170383         4.6364
  16   0.0000       0.241843         6.5809
  17   0.0000       0.547153        14.8888
  18   0.0000       0.606620        16.5070
  19   0.0000       0.675047        18.3690

MULLIKEN ATOMIC CHARGES
-----------------------
   0 C :    0.166683
   1 O :   -0.346048
   2 C :   -0.154509
   3 C :   -0.259428
   4 H :    0.134505
   5 H :    0.150984
   6 H :    0.163063
   7 H :    0.144751
Sum of atomic charges:   -0.0000000

LOEWDIN ATOMIC CHARGES
----------------------
   0 C :    0.149892
   1 O :   -0.251655
   2 C :   -0.109430
   3 C :   -0.160956
   4 H :    0.070627
   5 H :    0.099399
   6 H :    0.113561
   7 H :    0.088562

  Mayer bond orders larger than 0.100000
B(  0-C ,  1-O ) :   1.9426 B(  0-C ,  2-C ) :   0.9909 B(  0-C ,  4-H ) :   0.9218
B(  2-C ,  3-C ) :   1.9872 B(  2-C ,  5-H ) :   0.9531 B(  3-C ,  6-H ) :   0.9588
B(  3-C ,  7-H ) :   0.9646

-----------------------------------------------------------------------------
         ABSORPTION SPECTRUM VIA TRANSITION ELECTRIC DIPOLE MOMENTS
-----------------------------------------------------------------------------
State   Energy    Wavelength  fosc         T2        TX        TY        TZ
        (cm-1)      (nm)                 (au**2)    (au)      (au)      (au)
-----------------------------------------------------------------------------
   1   34086.1    293.4   0.000002935   0.00003   0.00232  -0.00129  -0.00461

Dispersion correction           -0.025555928
FINAL SINGLE POINT ENERGY      -189.317167569373

DIPOLE MOMENT
-------------
                                X             Y             Z
Electronic contribution:     -2.25306      -1.48175      -0.78026
Nuclear contribution   :      2.58573       2.29034       1.21831
                        -----------------------------------------
Total Dipole Moment    :      0.33268       0.80860       0.43806
                        -----------------------------------------
Magnitude (a.u.)       :      0.97795
Magnitude (Debye)      :      2.48576

Rotational constants in cm-1:     0.835257     0.188948     0.164282
Rotational constants in MHz : 25040.373605  5664.513830  4925.058782

                             ****ORCA TERMINATED NORMALLY****
TOTAL RUN TIME: 0 days 0 hours 0 minutes 11 seconds 491 msec
