                         Program Version 5.0.3 -  RELEASE  -
|  1> ! B3LYP cc-pVDZ
|  2> !TightSCF
|  3> %scf
|  4>  ConvForced true
|  5>  convergence tight
|  6>  MaxIter 500
|  7> end
|  8>
|  9> %tddft
| 10>  nroots 1
| 11> end
| 12>
| 13> # 	24198
| 14> * xyz 0 1
| 15> 		C   -0.565687  -0.405052   0.048828
| 16> 		O   -0.580948  -1.660567  -0.003770
| 17> 		C    0.612779   0.405459  -0.048761
| 18> 		C    1.817821  -0.113069  -0.001466
| 19> 		H   -1.491115   0.184549  -0.139786
| 20> 		H    0.730622   1.469471   0.106603
| 21> 		H    1.995942  -1.209045  -0.117480
| 22> 		H    2.760650   0.512028   0.248519
| 23> *
| 24>
| 25>                          ****END OF INPUT****

CARTESIAN COORDINATES (ANGSTROEM)
---------------------------------
  C     -0.565687   -0.405052    0.048828
  O     -0.580948   -1.660567   -0.003770
  C      0.612779    0.405459   -0.048761
  C      1.817821   -0.113069   -0.001466
  H     -1.491115    0.184549   -0.139786
  H      0.730622    1.469471    0.106603
  H      1.995942   -1.209045   -0.117480
  H      2.760650    0.512028    0.248519

 Total Charge           Charge          ....    0
 Multiplicity           Mult            ....    1
 Number of Electrons    NEL             ....   30
 Basis Dimension        Dim             ....   76

ORBITAL ENERGIES
----------------

  NO   OCC          E(Eh)            E(eV)
   0   2.0000     -19.139432      -520.8104
   1   2.0000     -10.278137      -279.6823
   2   2.0000     -10.220290      -278.1082
   3   2.0000     -10.199485      -277.5421
   4   2.0000      -1.022189       -27.8152
   5   2.0000      -0.808554       -22.0019
   6   2.0000      -0.662103       -18.0167
   7   2.0000      -0.544693       -14.8218
   8   2.0000      -0.510521       -13.8920
   9   2.0000      -0.441884       -12.0243
  10   2.0000      -0.417336       -11.3563
  11   2.0000      -0.387342       -10.5401
  12   2.0000      -0.369852       -10.0642
  13   2.0000      -0.289936        -7.8896
  14   2.0000      -0.257626        -7.0104
  15   0.0000      -0.081132        -2.2077
  16   0.0000       0.056703         1.5430
  17   0.0000       0.057932         1.5764
  18   0.0000       0.091844         2.4992
  19   0.0000       0.120986         3.2922

MULLIKEN ATOMIC CHARGES
-----------------------
   0 C :    0.202768
   1 O :   -0.226637
   2 C :   -0.071348
   3 C :    0.019356
   4 H :   -0.005202
   5 H :   -0.010108
   6 H :    0.044527
   7 H :    0.046643
Sum of atomic charges:   -0.0000000

LOEWDIN ATOMIC CHARGES
----------------------
   0 C :   -0.012435
   1 O :   -0.043465
   2 C :   -0.099731
   3 C :    0.038254
   4 H :    0.001966
   5 H :    0.036548
   6 H :    0.034054
   7 H :    0.044808

  Mayer bond orders larger than 0.100000
B(  0-C ,  1-O ) :   2.1288 B(  0-C ,  2-C ) :   1.0766 B(  0-C ,  4-H ) :   0.9237
B(  1-O ,  3-C ) :   0.1053 B(  2-C ,  3-C ) :   1.9434 B(  2-C ,  5-H ) :   0.9357
B(  3-C ,  6-H ) :   0.9391 B(  3-C ,  7-H ) :   0.9422

-----------------------------------------------------------------------------
         ABSORPTION SPECTRUM VIA TRANSITION ELECTRIC DIPOLE MOMENTS
-----------------------------------------------------------------------------
State   Energy    Wavelength  fosc         T2        TX        TY        TZ
        (cm-1)      (nm)                 (au**2)    (au)      (au)      (au)
-----------------------------------------------------------------------------
   1   25530.5    391.7   0.000309892   0.00400   0.04918  -0.00679   0.03913

FINAL SINGLE POINT ENERGY      -191.671020532161

DIPOLE MOMENT
-------------
                                X             Y             Z
Electronic contribution:     -2.08614      -1.71844      -0.02308
Nuclear contribution   :      2.58912       2.68472       0.09030
                        -----------------------------------------
Total Dipole Moment    :      0.50299       0.96627       0.06722
                        -----------------------------------------
Magnitude (a.u.)       :      1.09142
Magnitude (Debye)      :      2.77417

Rotational constants in cm-1:     0.769470     0.209908     0.165452
Rotational constants in MHz : 23068.126637  6292.871148  4960.120002

                             ****ORCA TERMINATED NORMALLY****
TOTAL RUN TIME: 0 days 0 hours 3 minutes 18 seconds 443 msec
