                         Program Version 5.0.3 -  RELEASE  -
|  1> ! B3LYP cc-pVDZ
|  2> !TightSCF
|  3> %scf
|  4>  ConvForced true
|  5>  convergence tight
|  6>  MaxIter 500
|  7> end
|  8>
|  9> %tddft
| 10>  nroots 1
| 11> end
| 12>
| 13> # 	22423
| 14> * xyz 0 1
| 15> 		C   -0.596594  -0.431029  -0.023611
| 16> 		O   -0.567638  -1.647123  -0.003741
| 17> 		C    0.644758   0.425918   0.063403
| 18> 		C    1.845902  -0.114268   0.001934
| 19> 		H   -1.575786   0.169348  -0.113918
| 20> 		H    0.380594   1.557638  -0.074873
| 21> 		H    1.856492  -1.367514   0.178245
| 22> 		H    2.742626   0.466341  -0.455738
| 23> *
| 24>
| 25>                          ****END OF INPUT****

CARTESIAN COORDINATES (ANGSTROEM)
---------------------------------
  C     -0.596594   -0.431029   -0.023611
  O     -0.567638   -1.647123   -0.003741
  C      0.644758    0.425918    0.063403
  C      1.845902   -0.114268    0.001934
  H     -1.575786    0.169348   -0.113918
  H      0.380594    1.557638   -0.074873
  H      1.856492   -1.367514    0.178245
  H      2.742626    0.466341   -0.455738

 Total Charge           Charge          ....    0
 Multiplicity           Mult            ....    1
 Number of Electrons    NEL             ....   30
 Basis Dimension        Dim             ....   76

ORBITAL ENERGIES
----------------

  NO   OCC          E(Eh)            E(eV)
   0   2.0000     -19.142861      -520.9037
   1   2.0000     -10.282897      -279.8119
   2   2.0000     -10.229282      -278.3529
   3   2.0000     -10.210935      -277.8537
   4   2.0000      -1.045856       -28.4592
   5   2.0000      -0.790230       -21.5033
   6   2.0000      -0.644840       -17.5470
   7   2.0000      -0.521558       -14.1923
   8   2.0000      -0.493238       -13.4217
   9   2.0000      -0.441632       -12.0174
  10   2.0000      -0.424096       -11.5402
  11   2.0000      -0.398390       -10.8407
  12   2.0000      -0.361568        -9.8388
  13   2.0000      -0.285752        -7.7757
  14   2.0000      -0.259166        -7.0523
  15   0.0000      -0.070533        -1.9193
  16   0.0000       0.045243         1.2311
  17   0.0000       0.055864         1.5201
  18   0.0000       0.066642         1.8134
  19   0.0000       0.113006         3.0751

MULLIKEN ATOMIC CHARGES
-----------------------
   0 C :    0.169079
   1 O :   -0.193007
   2 C :   -0.113780
   3 C :   -0.016596
   4 H :   -0.004051
   5 H :    0.011953
   6 H :    0.082512
   7 H :    0.063890
Sum of atomic charges:    0.0000000

LOEWDIN ATOMIC CHARGES
----------------------
   0 C :   -0.030378
   1 O :   -0.008989
   2 C :   -0.105344
   3 C :   -0.013576
   4 H :    0.001780
   5 H :    0.037523
   6 H :    0.068133
   7 H :    0.050850

  Mayer bond orders larger than 0.100000
B(  0-C ,  1-O ) :   2.1787 B(  0-C ,  2-C ) :   1.0398 B(  0-C ,  4-H ) :   0.9062
B(  2-C ,  3-C ) :   1.9510 B(  2-C ,  5-H ) :   0.9367 B(  3-C ,  6-H ) :   0.9053
B(  3-C ,  7-H ) :   0.9363

-----------------------------------------------------------------------------
         ABSORPTION SPECTRUM VIA TRANSITION ELECTRIC DIPOLE MOMENTS
-----------------------------------------------------------------------------
State   Energy    Wavelength  fosc         T2        TX        TY        TZ
        (cm-1)      (nm)                 (au**2)    (au)      (au)      (au)
-----------------------------------------------------------------------------
   1   28578.3    349.9   0.000335006   0.00386   0.04985   0.00355  -0.03690

FINAL SINGLE POINT ENERGY      -191.650513139046

DIPOLE MOMENT
-------------
                                X             Y             Z
Electronic contribution:     -1.71749      -1.70848       0.31995
Nuclear contribution   :      2.03603       2.56169      -0.43558
                        -----------------------------------------
Total Dipole Moment    :      0.31854       0.85321      -0.11564
                        -----------------------------------------
Magnitude (a.u.)       :      0.91804
Magnitude (Debye)      :      2.33347

Rotational constants in cm-1:     0.724720     0.208630     0.162982
Rotational constants in MHz : 21726.549007  6254.558712  4886.091964

                             ****ORCA TERMINATED NORMALLY****
TOTAL RUN TIME: 0 days 0 hours 3 minutes 27 seconds 814 msec
