                         Program Version 5.0.3 -  RELEASE  -
|  1> ! B3LYP cc-pVDZ
|  2> !TightSCF
|  3> %scf
|  4>  ConvForced true
|  5>  convergence tight
|  6>  MaxIter 500
|  7> end
|  8>
|  9> %tddft
| 10>  nroots 1
| 11> end
| 12>
| 13> # 	3917
| 14> * xyz 0 1
| 15> 		C   -1.148480  -0.312419   0.137842
| 16> 		O   -2.133121  -0.448778   0.775639
| 17> 		C    0.022379   0.408168   0.450974
| 18> 		C    1.235807   0.177088  -0.265396
| 19> 		H   -1.061309  -0.751453  -0.946457
| 20> 		H   -0.209861   0.817219   1.240624
| 21> 		H    1.194272  -0.725105  -1.145873
| 22> 		H    2.108993   0.809470  -0.151354
| 23> *
| 24>
| 25>                          ****END OF INPUT****

CARTESIAN COORDINATES (ANGSTROEM)
---------------------------------
  C     -1.148480   -0.312419    0.137842
  O     -2.133121   -0.448778    0.775639
  C      0.022379    0.408168    0.450974
  C      1.235807    0.177088   -0.265396
  H     -1.061309   -0.751453   -0.946457
  H     -0.209861    0.817219    1.240624
  H      1.194272   -0.725105   -1.145873
  H      2.108993    0.809470   -0.151354

 Total Charge           Charge          ....    0
 Multiplicity           Mult            ....    1
 Number of Electrons    NEL             ....   30
 Basis Dimension        Dim             ....   76

ORBITAL ENERGIES
----------------

  NO   OCC          E(Eh)            E(eV)
   0   2.0000     -19.139447      -520.8108
   1   2.0000     -10.267052      -279.3807
   2   2.0000     -10.254757      -279.0461
   3   2.0000     -10.202528      -277.6249
   4   2.0000      -1.064055       -28.9544
   5   2.0000      -0.805453       -21.9175
   6   2.0000      -0.663506       -18.0549
   7   2.0000      -0.575586       -15.6625
   8   2.0000      -0.481808       -13.1107
   9   2.0000      -0.454345       -12.3633
  10   2.0000      -0.427952       -11.6452
  11   2.0000      -0.405642       -11.0381
  12   2.0000      -0.399237       -10.8638
  13   2.0000      -0.286476        -7.7954
  14   2.0000      -0.251945        -6.8558
  15   0.0000      -0.083855        -2.2818
  16   0.0000       0.040293         1.0964
  17   0.0000       0.059721         1.6251
  18   0.0000       0.093486         2.5439
  19   0.0000       0.122027         3.3205

MULLIKEN ATOMIC CHARGES
-----------------------
   0 C :    0.114275
   1 O :   -0.166366
   2 C :    0.104555
   3 C :   -0.024194
   4 H :   -0.060916
   5 H :   -0.106565
   6 H :    0.080505
   7 H :    0.058706
Sum of atomic charges:    0.0000000

LOEWDIN ATOMIC CHARGES
----------------------
   0 C :   -0.074270
   1 O :    0.030526
   2 C :   -0.021296
   3 C :    0.022941
   4 H :   -0.023482
   5 H :   -0.030372
   6 H :    0.065537
   7 H :    0.030416

  Mayer bond orders larger than 0.100000
B(  0-C ,  1-O ) :   2.1926 B(  0-C ,  2-C ) :   1.1256 B(  0-C ,  4-H ) :   0.8950
B(  1-O ,  3-C ) :   0.1116 B(  2-C ,  3-C ) :   1.8558 B(  2-C ,  5-H ) :   0.9378
B(  3-C ,  6-H ) :   0.9297 B(  3-C ,  7-H ) :   0.9468

-----------------------------------------------------------------------------
         ABSORPTION SPECTRUM VIA TRANSITION ELECTRIC DIPOLE MOMENTS
-----------------------------------------------------------------------------
State   Energy    Wavelength  fosc         T2        TX        TY        TZ
        (cm-1)      (nm)                 (au**2)    (au)      (au)      (au)
-----------------------------------------------------------------------------
   1   25379.5    394.0   0.000181539   0.00235  -0.02700   0.03877   0.01110

FINAL SINGLE POINT ENERGY      -191.627146596184

DIPOLE MOMENT
-------------
                                X             Y             Z
Electronic contribution:     -2.83828      -0.13132       1.58774
Nuclear contribution   :      3.94210       0.38632      -1.95659
                        -----------------------------------------
Total Dipole Moment    :      1.10382       0.25500      -0.36885
                        -----------------------------------------
Magnitude (a.u.)       :      1.19143
Magnitude (Debye)      :      3.02837

Rotational constants in cm-1:     1.613069     0.154693     0.142303
Rotational constants in MHz : 48358.581822  4637.576198  4266.142927

                             ****ORCA TERMINATED NORMALLY****
TOTAL RUN TIME: 0 days 0 hours 3 minutes 18 seconds 149 msec
