                         Program Version 5.0.3 -  RELEASE  -
|  1> ! HF-3c
|  2> !TightSCF
|  3> %scf
|  4>  ConvForced true
|  5>  convergence tight
|  6>  MaxIter 500
|  7> end
|  8>
|  9> %tddft
| 10>  nroots 1
| 11> end
| 12>
| 13> # 	5280
| 14> * xyz 0 1
| 15> 		C   -1.185687  -0.308005  -0.004025
| 16> 		O   -1.123678  -1.430943   0.083833
| 17> 		C    0.035360   0.525666   0.086227
| 18> 		C    1.182726  -0.069339   0.018683
| 19> 		H   -2.214293   0.327515  -0.286521
| 20> 		H   -0.091724   1.600588   0.189949
| 21> 		H    1.218517  -1.160866  -0.122361
| 22> 		H    2.156036   0.461596   0.011250
| 23> *
| 24>
| 25>                          ****END OF INPUT****

CARTESIAN COORDINATES (ANGSTROEM)
---------------------------------
  C     -1.185687   -0.308005   -0.004025
  O     -1.123678   -1.430943    0.083833
  C      0.035360    0.525666    0.086227
  C      1.182726   -0.069339    0.018683
  H     -2.214293    0.327515   -0.286521
  H     -0.091724    1.600588    0.189949
  H      1.218517   -1.160866   -0.122361
  H      2.156036    0.461596    0.011250

 Total Charge           Charge          ....    0
 Multiplicity           Mult            ....    1
 Number of Electrons    NEL             ....   30
 Basis Dimension        Dim             ....   24

ORBITAL ENERGIES
----------------

  NO   OCC          E(Eh)            E(eV)
   0   2.0000     -20.389079      -554.8151
   1   2.0000     -11.314508      -307.8834
   2   2.0000     -11.185362      -304.3692
   3   2.0000     -11.179744      -304.2163
   4   2.0000      -1.469809       -39.9955
   5   2.0000      -1.085631       -29.5415
   6   2.0000      -0.871752       -23.7216
   7   2.0000      -0.728197       -19.8153
   8   2.0000      -0.716324       -19.4922
   9   2.0000      -0.627385       -17.0720
  10   2.0000      -0.606660       -16.5080
  11   2.0000      -0.576030       -15.6746
  12   2.0000      -0.527333       -14.3495
  13   2.0000      -0.407485       -11.0882
  14   2.0000      -0.395905       -10.7731
  15   0.0000       0.159951         4.3525
  16   0.0000       0.329482         8.9657
  17   0.0000       0.490460        13.3461
  18   0.0000       0.613865        16.7041
  19   0.0000       0.653667        17.7872

MULLIKEN ATOMIC CHARGES
-----------------------
   0 C :    0.215328
   1 O :   -0.376853
   2 C :   -0.188428
   3 C :   -0.219996
   4 H :    0.124583
   5 H :    0.140888
   6 H :    0.158858
   7 H :    0.145619
Sum of atomic charges:    0.0000000

LOEWDIN ATOMIC CHARGES
----------------------
   0 C :    0.158666
   1 O :   -0.250564
   2 C :   -0.147029
   3 C :   -0.122614
   4 H :    0.069998
   5 H :    0.089591
   6 H :    0.105447
   7 H :    0.096505

  Mayer bond orders larger than 0.100000
B(  0-C ,  1-O ) :   1.9322 B(  0-C ,  2-C ) :   0.9903 B(  0-C ,  4-H ) :   0.8942
B(  2-C ,  3-C ) :   1.9681 B(  2-C ,  5-H ) :   0.9592 B(  3-C ,  6-H ) :   0.9542
B(  3-C ,  7-H ) :   0.9626

-----------------------------------------------------------------------------
         ABSORPTION SPECTRUM VIA TRANSITION ELECTRIC DIPOLE MOMENTS
-----------------------------------------------------------------------------
State   Energy    Wavelength  fosc         T2        TX        TY        TZ
        (cm-1)      (nm)                 (au**2)    (au)      (au)      (au)
-----------------------------------------------------------------------------
   1   38232.8    261.6   0.000067346   0.00058   0.01832  -0.00193   0.01551

Dispersion correction           -0.026374406
FINAL SINGLE POINT ENERGY      -189.296839514394

DIPOLE MOMENT
-------------
                                X             Y             Z
Electronic contribution:     -1.87876      -1.62463       0.23144
Nuclear contribution   :      2.09543       2.46720      -0.35110
                        -----------------------------------------
Total Dipole Moment    :      0.21667       0.84256      -0.11965
                        -----------------------------------------
Magnitude (a.u.)       :      0.87817
Magnitude (Debye)      :      2.23212

Rotational constants in cm-1:     0.768517     0.230244     0.178068
Rotational constants in MHz : 23039.551213  6902.541635  5338.337995

                             ****ORCA TERMINATED NORMALLY****
TOTAL RUN TIME: 0 days 0 hours 0 minutes 16 seconds 53 msec
