                         Program Version 5.0.3 -  RELEASE  -
|  1> ! HF-3c
|  2> !TightSCF
|  3> %scf
|  4>  ConvForced true
|  5>  convergence tight
|  6>  MaxIter 500
|  7> end
|  8>
|  9> %tddft
| 10>  nroots 1
| 11> end
| 12>
| 13> # 	4734
| 14> * xyz 0 1
| 15> 		C   -1.142542  -0.342852  -0.104675
| 16> 		O   -1.773334  -0.970303  -0.899855
| 17> 		C    0.050610   0.399973  -0.277807
| 18> 		C    1.220240   0.117317   0.272843
| 19> 		H   -1.641006  -0.302459   1.048191
| 20> 		H   -0.090363   1.421276  -0.896124
| 21> 		H    1.288623  -0.984692   0.756338
| 22> 		H    2.106292   0.691245   0.136612
| 23> *
| 24>
| 25>                          ****END OF INPUT****

CARTESIAN COORDINATES (ANGSTROEM)
---------------------------------
  C     -1.142542   -0.342852   -0.104675
  O     -1.773334   -0.970303   -0.899855
  C      0.050610    0.399973   -0.277807
  C      1.220240    0.117317    0.272843
  H     -1.641006   -0.302459    1.048191
  H     -0.090363    1.421276   -0.896124
  H      1.288623   -0.984692    0.756338
  H      2.106292    0.691245    0.136612

 Total Charge           Charge          ....    0
 Multiplicity           Mult            ....    1
 Number of Electrons    NEL             ....   30
 Basis Dimension        Dim             ....   24

ORBITAL ENERGIES
----------------

  NO   OCC          E(Eh)            E(eV)
   0   2.0000     -20.371525      -554.3374
   1   2.0000     -11.299953      -307.4874
   2   2.0000     -11.193497      -304.5905
   3   2.0000     -11.182695      -304.2966
   4   2.0000      -1.413592       -38.4658
   5   2.0000      -1.084470       -29.5099
   6   2.0000      -0.882852       -24.0236
   7   2.0000      -0.725894       -19.7526
   8   2.0000      -0.660935       -17.9850
   9   2.0000      -0.649061       -17.6619
  10   2.0000      -0.599585       -16.3155
  11   2.0000      -0.533497       -14.5172
  12   2.0000      -0.491785       -13.3821
  13   2.0000      -0.411511       -11.1978
  14   2.0000      -0.385045       -10.4776
  15   0.0000       0.174047         4.7361
  16   0.0000       0.237017         6.4496
  17   0.0000       0.503659        13.7053
  18   0.0000       0.521948        14.2029
  19   0.0000       0.610126        16.6024

MULLIKEN ATOMIC CHARGES
-----------------------
   0 C :    0.181567
   1 O :   -0.353133
   2 C :   -0.169331
   3 C :   -0.230201
   4 H :    0.126568
   5 H :    0.157917
   6 H :    0.142186
   7 H :    0.144427
Sum of atomic charges:   -0.0000000

LOEWDIN ATOMIC CHARGES
----------------------
   0 C :    0.147980
   1 O :   -0.252944
   2 C :   -0.130643
   3 C :   -0.146957
   4 H :    0.075096
   5 H :    0.113829
   6 H :    0.101357
   7 H :    0.092282

  Mayer bond orders larger than 0.100000
B(  0-C ,  1-O ) :   1.9337 B(  0-C ,  2-C ) :   1.0238 B(  0-C ,  4-H ) :   0.8939
B(  2-C ,  3-C ) :   1.9795 B(  2-C ,  5-H ) :   0.9322 B(  3-C ,  6-H ) :   0.9581
B(  3-C ,  7-H ) :   0.9641

-----------------------------------------------------------------------------
         ABSORPTION SPECTRUM VIA TRANSITION ELECTRIC DIPOLE MOMENTS
-----------------------------------------------------------------------------
State   Energy    Wavelength  fosc         T2        TX        TY        TZ
        (cm-1)      (nm)                 (au**2)    (au)      (au)      (au)
-----------------------------------------------------------------------------
   1   34770.9    287.6   0.000011826   0.00011  -0.00869   0.00434   0.00420

Dispersion correction           -0.025013861
FINAL SINGLE POINT ENERGY      -189.285215075131

DIPOLE MOMENT
-------------
                                X             Y             Z
Electronic contribution:     -2.56972      -1.05523      -1.34179
Nuclear contribution   :      3.22479       1.60649       1.95227
                        -----------------------------------------
Total Dipole Moment    :      0.65507       0.55126       0.61048
                        -----------------------------------------
Magnitude (a.u.)       :      1.05152
Magnitude (Debye)      :      2.67275

Rotational constants in cm-1:     1.191324     0.159379     0.154844
Rotational constants in MHz : 35714.988296  4778.072621  4642.106551

                             ****ORCA TERMINATED NORMALLY****
TOTAL RUN TIME: 0 days 0 hours 0 minutes 16 seconds 59 msec
