                         Program Version 5.0.3 -  RELEASE  -
|  1> ! B3LYP cc-pVDZ
|  2> !TightSCF
|  3> %scf
|  4>  ConvForced true
|  5>  convergence tight
|  6>  MaxIter 500
|  7> end
|  8>
|  9> %tddft
| 10>  nroots 1
| 11> end
| 12>
| 13> # 	29837
| 14> * xyz 0 1
| 15> 		C   -0.588377  -0.425073  -0.002911
| 16> 		O   -0.578394  -1.631543  -0.005894
| 17> 		C    0.631469   0.417870  -0.032293
| 18> 		C    1.857638  -0.125979   0.029933
| 19> 		H   -1.382231   0.197350   0.206719
| 20> 		H    0.250836   1.410923   0.015420
| 21> 		H    1.966219  -1.319127  -0.014389
| 22> 		H    2.628210   0.466578  -0.056710
| 23> *
| 24>
| 25>                          ****END OF INPUT****

CARTESIAN COORDINATES (ANGSTROEM)
---------------------------------
  C     -0.588377   -0.425073   -0.002911
  O     -0.578394   -1.631543   -0.005894
  C      0.631469    0.417870   -0.032293
  C      1.857638   -0.125979    0.029933
  H     -1.382231    0.197350    0.206719
  H      0.250836    1.410923    0.015420
  H      1.966219   -1.319127   -0.014389
  H      2.628210    0.466578   -0.056710

 Total Charge           Charge          ....    0
 Multiplicity           Mult            ....    1
 Number of Electrons    NEL             ....   30
 Basis Dimension        Dim             ....   76

ORBITAL ENERGIES
----------------

  NO   OCC          E(Eh)            E(eV)
   0   2.0000     -19.137289      -520.7521
   1   2.0000     -10.262748      -279.2636
   2   2.0000     -10.211696      -277.8744
   3   2.0000     -10.197933      -277.4999
   4   2.0000      -1.045878       -28.4598
   5   2.0000      -0.795106       -21.6359
   6   2.0000      -0.678054       -18.4508
   7   2.0000      -0.547076       -14.8867
   8   2.0000      -0.504705       -13.7337
   9   2.0000      -0.445149       -12.1131
  10   2.0000      -0.433413       -11.7938
  11   2.0000      -0.396614       -10.7924
  12   2.0000      -0.379562       -10.3284
  13   2.0000      -0.286219        -7.7884
  14   2.0000      -0.252904        -6.8819
  15   0.0000      -0.071280        -1.9396
  16   0.0000       0.059623         1.6224
  17   0.0000       0.067389         1.8337
  18   0.0000       0.089798         2.4435
  19   0.0000       0.133502         3.6328

MULLIKEN ATOMIC CHARGES
-----------------------
   0 C :    0.210516
   1 O :   -0.192328
   2 C :   -0.120994
   3 C :    0.116149
   4 H :   -0.044196
   5 H :   -0.031171
   6 H :    0.070074
   7 H :   -0.008050
Sum of atomic charges:   -0.0000000

LOEWDIN ATOMIC CHARGES
----------------------
   0 C :   -0.033593
   1 O :    0.004491
   2 C :   -0.068983
   3 C :    0.037163
   4 H :   -0.017635
   5 H :    0.020242
   6 H :    0.063617
   7 H :   -0.005303

  Mayer bond orders larger than 0.100000
B(  0-C ,  1-O ) :   2.2001 B(  0-C ,  2-C ) :   1.0905 B(  0-C ,  4-H ) :   0.9222
B(  2-C ,  3-C ) :   1.9499 B(  2-C ,  5-H ) :   0.9531 B(  3-C ,  6-H ) :   0.9247
B(  3-C ,  7-H ) :   0.9351

-----------------------------------------------------------------------------
         ABSORPTION SPECTRUM VIA TRANSITION ELECTRIC DIPOLE MOMENTS
-----------------------------------------------------------------------------
State   Energy    Wavelength  fosc         T2        TX        TY        TZ
        (cm-1)      (nm)                 (au**2)    (au)      (au)      (au)
-----------------------------------------------------------------------------
   1   26968.1    370.8   0.000158714   0.00194   0.03192   0.01001   0.02861

FINAL SINGLE POINT ENERGY      -191.651837743450

DIPOLE MOMENT
-------------
                                X             Y             Z
Electronic contribution:     -1.76197      -1.61184      -0.13174
Nuclear contribution   :      2.09350       2.49530       0.14198
                        -----------------------------------------
Total Dipole Moment    :      0.33153       0.88346       0.01024
                        -----------------------------------------
Magnitude (a.u.)       :      0.94367
Magnitude (Debye)      :      2.39863

Rotational constants in cm-1:     0.749535     0.212926     0.166051
Rotational constants in MHz : 22470.494532  6383.361326  4978.087971

                             ****ORCA TERMINATED NORMALLY****
TOTAL RUN TIME: 0 days 0 hours 3 minutes 23 seconds 647 msec
