                         Program Version 5.0.3 -  RELEASE  -
|  1> ! B3LYP cc-pVDZ
|  2> !TightSCF
|  3> %scf
|  4>  ConvForced true
|  5>  convergence tight
|  6>  MaxIter 500
|  7> end
|  8>
|  9> %tddft
| 10>  nroots 1
| 11> end
| 12>
| 13> # 	5474
| 14> * xyz 0 1
| 15> 		C   -1.218025  -0.387041   0.028141
| 16> 		O   -2.067337  -0.542386   0.793777
| 17> 		C   -0.006397   0.415133   0.274418
| 18> 		C    1.228719   0.119287  -0.185955
| 19> 		H   -1.325422  -0.946135  -0.878949
| 20> 		H   -0.015146   1.397425   1.010381
| 21> 		H    1.140678  -0.783376  -0.928855
| 22> 		H    2.180825   0.674824  -0.136395
| 23> *
| 24>
| 25>                          ****END OF INPUT****

CARTESIAN COORDINATES (ANGSTROEM)
---------------------------------
  C     -1.218025   -0.387041    0.028141
  O     -2.067337   -0.542386    0.793777
  C     -0.006397    0.415133    0.274418
  C      1.228719    0.119287   -0.185955
  H     -1.325422   -0.946135   -0.878949
  H     -0.015146    1.397425    1.010381
  H      1.140678   -0.783376   -0.928855
  H      2.180825    0.674824   -0.136395

 Total Charge           Charge          ....    0
 Multiplicity           Mult            ....    1
 Number of Electrons    NEL             ....   30
 Basis Dimension        Dim             ....   76

ORBITAL ENERGIES
----------------

  NO   OCC          E(Eh)            E(eV)
   0   2.0000     -19.137840      -520.7671
   1   2.0000     -10.272106      -279.5182
   2   2.0000     -10.223165      -278.1865
   3   2.0000     -10.217816      -278.0409
   4   2.0000      -1.082627       -29.4598
   5   2.0000      -0.792539       -21.5661
   6   2.0000      -0.641579       -17.4583
   7   2.0000      -0.563295       -15.3280
   8   2.0000      -0.481967       -13.1150
   9   2.0000      -0.473946       -12.8967
  10   2.0000      -0.436453       -11.8765
  11   2.0000      -0.412186       -11.2162
  12   2.0000      -0.355148        -9.6641
  13   2.0000      -0.290772        -7.9123
  14   2.0000      -0.256645        -6.9837
  15   0.0000      -0.057776        -1.5722
  16   0.0000       0.037682         1.0254
  17   0.0000       0.068923         1.8755
  18   0.0000       0.075407         2.0519
  19   0.0000       0.122534         3.3343

MULLIKEN ATOMIC CHARGES
-----------------------
   0 C :    0.198931
   1 O :   -0.141125
   2 C :   -0.141727
   3 C :    0.011212
   4 H :   -0.044078
   5 H :    0.036080
   6 H :    0.031538
   7 H :    0.049169
Sum of atomic charges:   -0.0000000

LOEWDIN ATOMIC CHARGES
----------------------
   0 C :   -0.075059
   1 O :    0.061862
   2 C :   -0.075387
   3 C :   -0.022457
   4 H :   -0.013083
   5 H :    0.050871
   6 H :    0.037478
   7 H :    0.035774

  Mayer bond orders larger than 0.100000
B(  0-C ,  1-O ) :   2.2434 B(  0-C ,  2-C ) :   1.0128 B(  0-C ,  4-H ) :   0.9254
B(  2-C ,  3-C ) :   1.9508 B(  2-C ,  5-H ) :   0.9336 B(  3-C ,  6-H ) :   0.9344
B(  3-C ,  7-H ) :   0.9441

-----------------------------------------------------------------------------
         ABSORPTION SPECTRUM VIA TRANSITION ELECTRIC DIPOLE MOMENTS
-----------------------------------------------------------------------------
State   Energy    Wavelength  fosc         T2        TX        TY        TZ
        (cm-1)      (nm)                 (au**2)    (au)      (au)      (au)
-----------------------------------------------------------------------------
   1   31027.7    322.3   0.000600152   0.00637   0.07861  -0.00027  -0.01374

FINAL SINGLE POINT ENERGY      -191.637066225173

DIPOLE MOMENT
-------------
                                X             Y             Z
Electronic contribution:     -3.09059      -0.52938       1.24179
Nuclear contribution   :      3.91290       0.75449      -1.74862
                        -----------------------------------------
Total Dipole Moment    :      0.82231       0.22511      -0.50683
                        -----------------------------------------
Magnitude (a.u.)       :      0.99184
Magnitude (Debye)      :      2.52105

Rotational constants in cm-1:     1.445569     0.156104     0.144935
Rotational constants in MHz : 43337.059764  4679.873944  4345.039743

                             ****ORCA TERMINATED NORMALLY****
TOTAL RUN TIME: 0 days 0 hours 3 minutes 9 seconds 724 msec
