                         Program Version 5.0.3 -  RELEASE  -
|  1> ! HF-3c
|  2> !TightSCF
|  3> %scf
|  4>  ConvForced true
|  5>  convergence tight
|  6>  MaxIter 500
|  7> end
|  8>
|  9> %tddft
| 10>  nroots 1
| 11> end
| 12>
| 13> # 	6826
| 14> * xyz 0 1
| 15> 		C   -1.179782  -0.313964  -0.032028
| 16> 		O   -1.509105  -1.160058   0.857865
| 17> 		C   -0.041234   0.508779   0.185446
| 18> 		C    1.206547  -0.000463  -0.165959
| 19> 		H   -1.770096  -0.107032  -0.944816
| 20> 		H   -0.030590   1.496691   0.766694
| 21> 		H    1.253474  -1.005694  -0.742823
| 22> 		H    2.113902   0.600245   0.030592
| 23> *
| 24>
| 25>                          ****END OF INPUT****

CARTESIAN COORDINATES (ANGSTROEM)
---------------------------------
  C     -1.179782   -0.313964   -0.032028
  O     -1.509105   -1.160058    0.857865
  C     -0.041234    0.508779    0.185446
  C      1.206547   -0.000463   -0.165959
  H     -1.770096   -0.107032   -0.944816
  H     -0.030590    1.496691    0.766694
  H      1.253474   -1.005694   -0.742823
  H      2.113902    0.600245    0.030592

 Total Charge           Charge          ....    0
 Multiplicity           Mult            ....    1
 Number of Electrons    NEL             ....   30
 Basis Dimension        Dim             ....   24

ORBITAL ENERGIES
----------------

  NO   OCC          E(Eh)            E(eV)
   0   2.0000     -20.358579      -553.9851
   1   2.0000     -11.288496      -307.1756
   2   2.0000     -11.179567      -304.2115
   3   2.0000     -11.170776      -303.9723
   4   2.0000      -1.364564       -37.1317
   5   2.0000      -1.063217       -28.9316
   6   2.0000      -0.881846       -23.9962
   7   2.0000      -0.747744       -20.3471
   8   2.0000      -0.672179       -18.2909
   9   2.0000      -0.613083       -16.6828
  10   2.0000      -0.585228       -15.9249
  11   2.0000      -0.533380       -14.5140
  12   2.0000      -0.465258       -12.6603
  13   2.0000      -0.421289       -11.4639
  14   2.0000      -0.376494       -10.2449
  15   0.0000       0.167642         4.5618
  16   0.0000       0.198204         5.3934
  17   0.0000       0.570237        15.5169
  18   0.0000       0.591467        16.0946
  19   0.0000       0.622376        16.9357

MULLIKEN ATOMIC CHARGES
-----------------------
   0 C :    0.140119
   1 O :   -0.326443
   2 C :   -0.173785
   3 C :   -0.219529
   4 H :    0.146118
   5 H :    0.158008
   6 H :    0.137689
   7 H :    0.137823
Sum of atomic charges:   -0.0000000

LOEWDIN ATOMIC CHARGES
----------------------
   0 C :    0.142401
   1 O :   -0.250951
   2 C :   -0.133013
   3 C :   -0.136453
   4 H :    0.083432
   5 H :    0.110198
   6 H :    0.094170
   7 H :    0.090217

  Mayer bond orders larger than 0.100000
B(  0-C ,  1-O ) :   1.9264 B(  0-C ,  2-C ) :   1.0292 B(  0-C ,  4-H ) :   0.9225
B(  2-C ,  3-C ) :   1.9701 B(  2-C ,  5-H ) :   0.9427 B(  3-C ,  6-H ) :   0.9660
B(  3-C ,  7-H ) :   0.9663

-----------------------------------------------------------------------------
         ABSORPTION SPECTRUM VIA TRANSITION ELECTRIC DIPOLE MOMENTS
-----------------------------------------------------------------------------
State   Energy    Wavelength  fosc         T2        TX        TY        TZ
        (cm-1)      (nm)                 (au**2)    (au)      (au)      (au)
-----------------------------------------------------------------------------
   1   30488.6    328.0   0.000062717   0.00068  -0.01878  -0.00286  -0.01779

Dispersion correction           -0.025141281
FINAL SINGLE POINT ENERGY      -189.317157149371

DIPOLE MOMENT
-------------
                                X             Y             Z
Electronic contribution:     -2.53913      -1.24853       1.02028
Nuclear contribution   :      2.97555       1.92988      -1.67451
                        -----------------------------------------
Total Dipole Moment    :      0.43643       0.68135      -0.65422
                        -----------------------------------------
Magnitude (a.u.)       :      1.04054
Magnitude (Debye)      :      2.64484

Rotational constants in cm-1:     0.831822     0.179160     0.166726
Rotational constants in MHz : 24937.384957  5371.068977  4998.309936

                             ****ORCA TERMINATED NORMALLY****
TOTAL RUN TIME: 0 days 0 hours 0 minutes 9 seconds 943 msec
