                         Program Version 5.0.3 -  RELEASE  -
|  1> ! B3LYP cc-pVDZ
|  2> !TightSCF
|  3> %scf
|  4>  ConvForced true
|  5>  convergence tight
|  6>  MaxIter 500
|  7> end
|  8>
|  9> %tddft
| 10>  nroots 1
| 11> end
| 12>
| 13> # 	2790
| 14> * xyz 0 1
| 15> 		C   -1.224310  -0.281527  -0.012936
| 16> 		O   -1.624491  -1.015858   0.925129
| 17> 		C    0.016787   0.536322   0.185390
| 18> 		C    1.162469   0.086813  -0.103633
| 19> 		H   -1.677217  -0.400877  -0.935204
| 20> 		H   -0.056260   1.408151   0.607949
| 21> 		H    1.240304  -0.955156  -0.519054
| 22> 		H    2.080639   0.712987  -0.095077
| 23> *
| 24>
| 25>                          ****END OF INPUT****

CARTESIAN COORDINATES (ANGSTROEM)
---------------------------------
  C     -1.224310   -0.281527   -0.012936
  O     -1.624491   -1.015858    0.925129
  C      0.016787    0.536322    0.185390
  C      1.162469    0.086813   -0.103633
  H     -1.677217   -0.400877   -0.935204
  H     -0.056260    1.408151    0.607949
  H      1.240304   -0.955156   -0.519054
  H      2.080639    0.712987   -0.095077

 Total Charge           Charge          ....    0
 Multiplicity           Mult            ....    1
 Number of Electrons    NEL             ....   30
 Basis Dimension        Dim             ....   76

ORBITAL ENERGIES
----------------

  NO   OCC          E(Eh)            E(eV)
   0   2.0000     -19.142955      -520.9063
   1   2.0000     -10.278385      -279.6891
   2   2.0000     -10.197604      -277.4909
   3   2.0000     -10.186978      -277.2018
   4   2.0000      -1.026571       -27.9344
   5   2.0000      -0.811728       -22.0882
   6   2.0000      -0.649849       -17.6833
   7   2.0000      -0.579673       -15.7737
   8   2.0000      -0.507902       -13.8207
   9   2.0000      -0.460723       -12.5369
  10   2.0000      -0.431886       -11.7522
  11   2.0000      -0.380872       -10.3641
  12   2.0000      -0.364672        -9.9232
  13   2.0000      -0.299910        -8.1610
  14   2.0000      -0.252680        -6.8758
  15   0.0000      -0.046840        -1.2746
  16   0.0000       0.006545         0.1781
  17   0.0000       0.083383         2.2690
  18   0.0000       0.101852         2.7715
  19   0.0000       0.106546         2.8993

MULLIKEN ATOMIC CHARGES
-----------------------
   0 C :    0.188755
   1 O :   -0.221114
   2 C :    0.019893
   3 C :    0.020905
   4 H :   -0.007618
   5 H :   -0.047652
   6 H :    0.017534
   7 H :    0.029297
Sum of atomic charges:    0.0000000

LOEWDIN ATOMIC CHARGES
----------------------
   0 C :    0.036965
   1 O :   -0.030384
   2 C :   -0.044915
   3 C :   -0.026358
   4 H :   -0.009337
   5 H :    0.003070
   6 H :    0.033270
   7 H :    0.037689

  Mayer bond orders larger than 0.100000
B(  0-C ,  1-O ) :   2.1771 B(  0-C ,  2-C ) :   0.9744 B(  0-C ,  4-H ) :   0.9432
B(  2-C ,  3-C ) :   2.0704 B(  2-C ,  5-H ) :   0.9380 B(  3-C ,  6-H ) :   0.9349
B(  3-C ,  7-H ) :   0.9362

-----------------------------------------------------------------------------
         ABSORPTION SPECTRUM VIA TRANSITION ELECTRIC DIPOLE MOMENTS
-----------------------------------------------------------------------------
State   Energy    Wavelength  fosc         T2        TX        TY        TZ
        (cm-1)      (nm)                 (au**2)    (au)      (au)      (au)
-----------------------------------------------------------------------------
   1   29490.7    339.1   0.000137087   0.00153   0.00847  -0.01798  -0.03370

FINAL SINGLE POINT ENERGY      -191.632101837811

DIPOLE MOMENT
-------------
                                X             Y             Z
Electronic contribution:     -2.70780      -0.86104       1.18697
Nuclear contribution   :      3.14067       1.46741      -1.85592
                        -----------------------------------------
Total Dipole Moment    :      0.43287       0.60636      -0.66895
                        -----------------------------------------
Magnitude (a.u.)       :      1.00127
Magnitude (Debye)      :      2.54504

Rotational constants in cm-1:     0.989093     0.172615     0.165294
Rotational constants in MHz : 29652.249990  5174.853290  4955.399530

                             ****ORCA TERMINATED NORMALLY****
TOTAL RUN TIME: 0 days 0 hours 3 minutes 23 seconds 285 msec
