                         Program Version 5.0.3 -  RELEASE  -
|  1> ! B3LYP cc-pVDZ
|  2> !TightSCF
|  3> %scf
|  4>  ConvForced true
|  5>  convergence tight
|  6>  MaxIter 500
|  7> end
|  8>
|  9> %tddft
| 10>  nroots 1
| 11> end
| 12>
| 13> # 	2561
| 14> * xyz 0 1
| 15> 		C   -1.190143  -0.359637   0.025710
| 16> 		O   -1.205802  -1.527991   0.130074
| 17> 		C    0.054477   0.541092   0.084691
| 18> 		C    1.296072   0.014963  -0.000406
| 19> 		H   -2.332458   0.257591  -0.046558
| 20> 		H   -0.058236   1.556906  -0.138425
| 21> 		H    1.351176  -1.157945  -0.048100
| 22> 		H    2.069950   0.688616  -0.013447
| 23> *
| 24>
| 25>                          ****END OF INPUT****

CARTESIAN COORDINATES (ANGSTROEM)
---------------------------------
  C     -1.190143   -0.359637    0.025710
  O     -1.205802   -1.527991    0.130074
  C      0.054477    0.541092    0.084691
  C      1.296072    0.014963   -0.000406
  H     -2.332458    0.257591   -0.046558
  H     -0.058236    1.556906   -0.138425
  H      1.351176   -1.157945   -0.048100
  H      2.069950    0.688616   -0.013447

 Total Charge           Charge          ....    0
 Multiplicity           Mult            ....    1
 Number of Electrons    NEL             ....   30
 Basis Dimension        Dim             ....   76

ORBITAL ENERGIES
----------------

  NO   OCC          E(Eh)            E(eV)
   0   2.0000     -19.149421      -521.0822
   1   2.0000     -10.291211      -280.0381
   2   2.0000     -10.217273      -278.0261
   3   2.0000     -10.206328      -277.7283
   4   2.0000      -1.074772       -29.2460
   5   2.0000      -0.793400       -21.5895
   6   2.0000      -0.640511       -17.4292
   7   2.0000      -0.530962       -14.4482
   8   2.0000      -0.507739       -13.8163
   9   2.0000      -0.447463       -12.1761
  10   2.0000      -0.426859       -11.6154
  11   2.0000      -0.413502       -11.2520
  12   2.0000      -0.386964       -10.5298
  13   2.0000      -0.290637        -7.9086
  14   2.0000      -0.255823        -6.9613
  15   0.0000      -0.066210        -1.8017
  16   0.0000       0.052442         1.4270
  17   0.0000       0.060991         1.6596
  18   0.0000       0.078839         2.1453
  19   0.0000       0.109145         2.9700

MULLIKEN ATOMIC CHARGES
-----------------------
   0 C :    0.116791
   1 O :   -0.141061
   2 C :   -0.088090
   3 C :    0.075757
   4 H :   -0.025309
   5 H :   -0.014407
   6 H :    0.062391
   7 H :    0.013927
Sum of atomic charges:    0.0000000

LOEWDIN ATOMIC CHARGES
----------------------
   0 C :   -0.058409
   1 O :    0.036892
   2 C :   -0.077730
   3 C :    0.027428
   4 H :   -0.014504
   5 H :    0.016934
   6 H :    0.054384
   7 H :    0.015005

  Mayer bond orders larger than 0.100000
B(  0-C ,  1-O ) :   2.2384 B(  0-C ,  2-C ) :   0.9940 B(  0-C ,  4-H ) :   0.8664
B(  2-C ,  3-C ) :   1.9737 B(  2-C ,  5-H ) :   0.9467 B(  3-C ,  6-H ) :   0.9314
B(  3-C ,  7-H ) :   0.9362

-----------------------------------------------------------------------------
         ABSORPTION SPECTRUM VIA TRANSITION ELECTRIC DIPOLE MOMENTS
-----------------------------------------------------------------------------
State   Energy    Wavelength  fosc         T2        TX        TY        TZ
        (cm-1)      (nm)                 (au**2)    (au)      (au)      (au)
-----------------------------------------------------------------------------
   1   29549.5    338.4   0.001314100   0.01464  -0.11003  -0.00802   0.04969

FINAL SINGLE POINT ENERGY      -191.645816151599

DIPOLE MOMENT
-------------
                                X             Y             Z
Electronic contribution:     -1.53825      -1.86887       0.30959
Nuclear contribution   :      2.04602       2.63254      -0.44129
                        -----------------------------------------
Total Dipole Moment    :      0.50777       0.76367      -0.13170
                        -----------------------------------------
Magnitude (a.u.)       :      0.92649
Magnitude (Debye)      :      2.35494

Rotational constants in cm-1:     0.776407     0.198087     0.158189
Rotational constants in MHz : 23276.109533  5938.489707  4742.399915

                             ****ORCA TERMINATED NORMALLY****
TOTAL RUN TIME: 0 days 0 hours 3 minutes 15 seconds 955 msec
