                         Program Version 5.0.3 -  RELEASE  -
|  1> ! B3LYP cc-pVDZ
|  2> !TightSCF
|  3> %scf
|  4>  ConvForced true
|  5>  convergence tight
|  6>  MaxIter 500
|  7> end
|  8>
|  9> %tddft
| 10>  nroots 1
| 11> end
| 12>
| 13> # 	10382
| 14> * xyz 0 1
| 15> 		C   -1.163202  -0.357215  -0.007593
| 16> 		O   -1.225005  -1.570319   0.263257
| 17> 		C    0.053626   0.539451   0.121905
| 18> 		C    1.239926  -0.016095  -0.079413
| 19> 		H   -2.097879   0.307558  -0.449901
| 20> 		H   -0.106312   1.550006   0.318494
| 21> 		H    1.198152  -1.082613  -0.072030
| 22> 		H    2.092652   0.590807  -0.003346
| 23> *
| 24>
| 25>                          ****END OF INPUT****

CARTESIAN COORDINATES (ANGSTROEM)
---------------------------------
  C     -1.163202   -0.357215   -0.007593
  O     -1.225005   -1.570319    0.263257
  C      0.053626    0.539451    0.121905
  C      1.239926   -0.016095   -0.079413
  H     -2.097879    0.307558   -0.449901
  H     -0.106312    1.550006    0.318494
  H      1.198152   -1.082613   -0.072030
  H      2.092652    0.590807   -0.003346

 Total Charge           Charge          ....    0
 Multiplicity           Mult            ....    1
 Number of Electrons    NEL             ....   30
 Basis Dimension        Dim             ....   76

ORBITAL ENERGIES
----------------

  NO   OCC          E(Eh)            E(eV)
   0   2.0000     -19.150381      -521.1084
   1   2.0000     -10.292970      -280.0860
   2   2.0000     -10.204436      -277.6768
   3   2.0000     -10.203524      -277.6520
   4   2.0000      -1.033981       -28.1361
   5   2.0000      -0.803705       -21.8699
   6   2.0000      -0.652399       -17.7527
   7   2.0000      -0.545009       -14.8304
   8   2.0000      -0.506912       -13.7938
   9   2.0000      -0.444506       -12.0956
  10   2.0000      -0.425910       -11.5896
  11   2.0000      -0.396801       -10.7975
  12   2.0000      -0.382863       -10.4182
  13   2.0000      -0.291569        -7.9340
  14   2.0000      -0.259887        -7.0719
  15   0.0000      -0.066195        -1.8013
  16   0.0000       0.031794         0.8652
  17   0.0000       0.067397         1.8340
  18   0.0000       0.087878         2.3913
  19   0.0000       0.120718         3.2849

MULLIKEN ATOMIC CHARGES
-----------------------
   0 C :    0.147846
   1 O :   -0.208035
   2 C :   -0.085156
   3 C :    0.123456
   4 H :    0.001696
   5 H :   -0.023111
   6 H :    0.027227
   7 H :    0.016078
Sum of atomic charges:    0.0000000

LOEWDIN ATOMIC CHARGES
----------------------
   0 C :   -0.006486
   1 O :   -0.031486
   2 C :   -0.061227
   3 C :    0.026293
   4 H :    0.002622
   5 H :    0.015707
   6 H :    0.031597
   7 H :    0.022980

  Mayer bond orders larger than 0.100000
B(  0-C ,  1-O ) :   2.1533 B(  0-C ,  2-C ) :   1.0258 B(  0-C ,  4-H ) :   0.8863
B(  2-C ,  3-C ) :   1.9863 B(  2-C ,  5-H ) :   0.9524 B(  3-C ,  6-H ) :   0.9240
B(  3-C ,  7-H ) :   0.9436

-----------------------------------------------------------------------------
         ABSORPTION SPECTRUM VIA TRANSITION ELECTRIC DIPOLE MOMENTS
-----------------------------------------------------------------------------
State   Energy    Wavelength  fosc         T2        TX        TY        TZ
        (cm-1)      (nm)                 (au**2)    (au)      (au)      (au)
-----------------------------------------------------------------------------
   1   29280.1    341.5   0.000233029   0.00262  -0.03978   0.00706   0.03142

FINAL SINGLE POINT ENERGY      -191.657403161398

DIPOLE MOMENT
-------------
                                X             Y             Z
Electronic contribution:     -1.70201      -1.79159       0.36704
Nuclear contribution   :      2.13954       2.71979      -0.48730
                        -----------------------------------------
Total Dipole Moment    :      0.43754       0.92820      -0.12026
                        -----------------------------------------
Magnitude (a.u.)       :      1.03317
Magnitude (Debye)      :      2.62612

Rotational constants in cm-1:     0.760227     0.200340     0.161431
Rotational constants in MHz : 22791.020991  6006.046285  4839.573460

                             ****ORCA TERMINATED NORMALLY****
TOTAL RUN TIME: 0 days 0 hours 3 minutes 19 seconds 798 msec
