                         Program Version 5.0.3 -  RELEASE  -
|  1> ! HF-3c
|  2> !TightSCF
|  3> %scf
|  4>  ConvForced true
|  5>  convergence tight
|  6>  MaxIter 500
|  7> end
|  8>
|  9> %tddft
| 10>  nroots 1
| 11> end
| 12>
| 13> # 	22201
| 14> * xyz 0 1
| 15> 		C   -0.537089  -0.477771  -0.017980
| 16> 		O   -0.608088  -1.642595  -0.000637
| 17> 		C    0.614636   0.453947   0.004369
| 18> 		C    1.875690  -0.128535   0.033153
| 19> 		H   -1.546930   0.183816   0.076943
| 20> 		H    0.403698   1.528330  -0.017017
| 21> 		H    1.723717  -1.229620  -0.048119
| 22> 		H    2.768327   0.628777  -0.249020
| 23> *
| 24>
| 25>                          ****END OF INPUT****

CARTESIAN COORDINATES (ANGSTROEM)
---------------------------------
  C     -0.537089   -0.477771   -0.017980
  O     -0.608088   -1.642595   -0.000637
  C      0.614636    0.453947    0.004369
  C      1.875690   -0.128535    0.033153
  H     -1.546930    0.183816    0.076943
  H      0.403698    1.528330   -0.017017
  H      1.723717   -1.229620   -0.048119
  H      2.768327    0.628777   -0.249020

 Total Charge           Charge          ....    0
 Multiplicity           Mult            ....    1
 Number of Electrons    NEL             ....   30
 Basis Dimension        Dim             ....   24

ORBITAL ENERGIES
----------------

  NO   OCC          E(Eh)            E(eV)
   0   2.0000     -20.370752      -554.3164
   1   2.0000     -11.296870      -307.4034
   2   2.0000     -11.184274      -304.3396
   3   2.0000     -11.171410      -303.9895
   4   2.0000      -1.428878       -38.8817
   5   2.0000      -1.063368       -28.9357
   6   2.0000      -0.867142       -23.5961
   7   2.0000      -0.716935       -19.5088
   8   2.0000      -0.695224       -18.9180
   9   2.0000      -0.606997       -16.5172
  10   2.0000      -0.568550       -15.4710
  11   2.0000      -0.554168       -15.0797
  12   2.0000      -0.533086       -14.5060
  13   2.0000      -0.390319       -10.6211
  14   2.0000      -0.376544       -10.2463
  15   0.0000       0.130759         3.5581
  16   0.0000       0.313373         8.5273
  17   0.0000       0.489285        13.3141
  18   0.0000       0.550040        14.9673
  19   0.0000       0.606717        16.5096

MULLIKEN ATOMIC CHARGES
-----------------------
   0 C :    0.193767
   1 O :   -0.379819
   2 C :   -0.185209
   3 C :   -0.206487
   4 H :    0.108632
   5 H :    0.137325
   6 H :    0.170258
   7 H :    0.161533
Sum of atomic charges:    0.0000000

LOEWDIN ATOMIC CHARGES
----------------------
   0 C :    0.154993
   1 O :   -0.268807
   2 C :   -0.149602
   3 C :   -0.113907
   4 H :    0.054119
   5 H :    0.087260
   6 H :    0.117280
   7 H :    0.118664

  Mayer bond orders larger than 0.100000
B(  0-C ,  1-O ) :   1.9080 B(  0-C ,  2-C ) :   1.0218 B(  0-C ,  4-H ) :   0.9054
B(  2-C ,  3-C ) :   1.9221 B(  2-C ,  5-H ) :   0.9637 B(  3-C ,  6-H ) :   0.9504
B(  3-C ,  7-H ) :   0.9566

-----------------------------------------------------------------------------
         ABSORPTION SPECTRUM VIA TRANSITION ELECTRIC DIPOLE MOMENTS
-----------------------------------------------------------------------------
State   Energy    Wavelength  fosc         T2        TX        TY        TZ
        (cm-1)      (nm)                 (au**2)    (au)      (au)      (au)
-----------------------------------------------------------------------------
   1   34486.9    290.0   0.000094690   0.00090   0.00177   0.00479  -0.02963

Dispersion correction           -0.025877546
FINAL SINGLE POINT ENERGY      -189.293503482672

DIPOLE MOMENT
-------------
                                X             Y             Z
Electronic contribution:     -1.50546      -1.86134       0.12827
Nuclear contribution   :      1.98319       2.83201      -0.22158
                        -----------------------------------------
Total Dipole Moment    :      0.47773       0.97066      -0.09331
                        -----------------------------------------
Magnitude (a.u.)       :      1.08587
Magnitude (Debye)      :      2.76007

Rotational constants in cm-1:     0.769743     0.204512     0.161856
Rotational constants in MHz : 23076.317944  6131.108875  4852.312900

                             ****ORCA TERMINATED NORMALLY****
TOTAL RUN TIME: 0 days 0 hours 0 minutes 11 seconds 711 msec
