                         Program Version 5.0.3 -  RELEASE  -
|  1> ! B3LYP cc-pVDZ
|  2> !TightSCF
|  3> %scf
|  4>  ConvForced true
|  5>  convergence tight
|  6>  MaxIter 500
|  7> end
|  8>
|  9> %tddft
| 10>  nroots 1
| 11> end
| 12>
| 13> # 	2421
| 14> * xyz 0 1
| 15> 		C   -1.196478  -0.305619   0.009976
| 16> 		O   -1.214461  -1.471306   0.183055
| 17> 		C   -0.008614   0.539328   0.089736
| 18> 		C    1.207445  -0.031511  -0.039434
| 19> 		H   -2.157365   0.185757  -0.406342
| 20> 		H   -0.068560   1.548877   0.315234
| 21> 		H    1.431602  -1.087141  -0.129351
| 22> 		H    2.083833   0.652116  -0.033342
| 23> *
| 24>
| 25>                          ****END OF INPUT****

CARTESIAN COORDINATES (ANGSTROEM)
---------------------------------
  C     -1.196478   -0.305619    0.009976
  O     -1.214461   -1.471306    0.183055
  C     -0.008614    0.539328    0.089736
  C      1.207445   -0.031511   -0.039434
  H     -2.157365    0.185757   -0.406342
  H     -0.068560    1.548877    0.315234
  H      1.431602   -1.087141   -0.129351
  H      2.083833    0.652116   -0.033342

 Total Charge           Charge          ....    0
 Multiplicity           Mult            ....    1
 Number of Electrons    NEL             ....   30
 Basis Dimension        Dim             ....   76

ORBITAL ENERGIES
----------------

  NO   OCC          E(Eh)            E(eV)
   0   2.0000     -19.135599      -520.7061
   1   2.0000     -10.272436      -279.5272
   2   2.0000     -10.214939      -277.9626
   3   2.0000     -10.200320      -277.5648
   4   2.0000      -1.063643       -28.9432
   5   2.0000      -0.796408       -21.6714
   6   2.0000      -0.652328       -17.7507
   7   2.0000      -0.546125       -14.8608
   8   2.0000      -0.511121       -13.9083
   9   2.0000      -0.451042       -12.2735
  10   2.0000      -0.431282       -11.7358
  11   2.0000      -0.396265       -10.7829
  12   2.0000      -0.390122       -10.6158
  13   2.0000      -0.287079        -7.8118
  14   2.0000      -0.251883        -6.8541
  15   0.0000      -0.062503        -1.7008
  16   0.0000       0.047132         1.2825
  17   0.0000       0.077307         2.1036
  18   0.0000       0.093357         2.5404
  19   0.0000       0.117559         3.1990

MULLIKEN ATOMIC CHARGES
-----------------------
   0 C :    0.159015
   1 O :   -0.162137
   2 C :   -0.066251
   3 C :    0.051647
   4 H :   -0.029858
   5 H :   -0.022240
   6 H :    0.037123
   7 H :    0.032702
Sum of atomic charges:    0.0000000

LOEWDIN ATOMIC CHARGES
----------------------
   0 C :   -0.061138
   1 O :    0.025792
   2 C :   -0.070622
   3 C :    0.031939
   4 H :   -0.009771
   5 H :    0.018177
   6 H :    0.030100
   7 H :    0.035522

  Mayer bond orders larger than 0.100000
B(  0-C ,  1-O ) :   2.2375 B(  0-C ,  2-C ) :   1.0339 B(  0-C ,  4-H ) :   0.9078
B(  2-C ,  3-C ) :   1.9713 B(  2-C ,  5-H ) :   0.9441 B(  3-C ,  6-H ) :   0.9474
B(  3-C ,  7-H ) :   0.9439

-----------------------------------------------------------------------------
         ABSORPTION SPECTRUM VIA TRANSITION ELECTRIC DIPOLE MOMENTS
-----------------------------------------------------------------------------
State   Energy    Wavelength  fosc         T2        TX        TY        TZ
        (cm-1)      (nm)                 (au**2)    (au)      (au)      (au)
-----------------------------------------------------------------------------
   1   28976.7    345.1   0.000075809   0.00086   0.00178   0.00262   0.02918

FINAL SINGLE POINT ENERGY      -191.667101797813

DIPOLE MOMENT
-------------
                                X             Y             Z
Electronic contribution:     -1.95438      -1.70767       0.37404
Nuclear contribution   :      2.40828       2.52812      -0.46367
                        -----------------------------------------
Total Dipole Moment    :      0.45391       0.82045      -0.08963
                        -----------------------------------------
Magnitude (a.u.)       :      0.94191
Magnitude (Debye)      :      2.39416

Rotational constants in cm-1:     0.774253     0.212083     0.168439
Rotational constants in MHz : 23211.520654  6358.080483  5049.669759

                             ****ORCA TERMINATED NORMALLY****
TOTAL RUN TIME: 0 days 0 hours 3 minutes 21 seconds 733 msec
