                         Program Version 5.0.3 -  RELEASE  -
|  1> ! B3LYP cc-pVDZ
|  2> !TightSCF
|  3> %scf
|  4>  ConvForced true
|  5>  convergence tight
|  6>  MaxIter 500
|  7> end
|  8>
|  9> %tddft
| 10>  nroots 1
| 11> end
| 12>
| 13> # 	22066
| 14> * xyz 0 1
| 15> 		C   -0.575519  -0.458838  -0.012641
| 16> 		O   -0.604783  -1.644778   0.010869
| 17> 		C    0.610493   0.414239   0.030004
| 18> 		C    1.871420  -0.103800  -0.009222
| 19> 		H   -1.367030   0.342657  -0.193001
| 20> 		H    0.418835   1.474626   0.057045
| 21> 		H    2.085923  -1.154150  -0.031952
| 22> 		H    2.696225   0.496889  -0.101060
| 23> *
| 24>
| 25>                          ****END OF INPUT****

CARTESIAN COORDINATES (ANGSTROEM)
---------------------------------
  C     -0.575519   -0.458838   -0.012641
  O     -0.604783   -1.644778    0.010869
  C      0.610493    0.414239    0.030004
  C      1.871420   -0.103800   -0.009222
  H     -1.367030    0.342657   -0.193001
  H      0.418835    1.474626    0.057045
  H      2.085923   -1.154150   -0.031952
  H      2.696225    0.496889   -0.101060

 Total Charge           Charge          ....    0
 Multiplicity           Mult            ....    1
 Number of Electrons    NEL             ....   30
 Basis Dimension        Dim             ....   76

ORBITAL ENERGIES
----------------

  NO   OCC          E(Eh)            E(eV)
   0   2.0000     -19.144792      -520.9563
   1   2.0000     -10.275362      -279.6068
   2   2.0000     -10.209488      -277.8143
   3   2.0000     -10.202120      -277.6138
   4   2.0000      -1.061514       -28.8853
   5   2.0000      -0.793690       -21.5974
   6   2.0000      -0.670928       -18.2569
   7   2.0000      -0.542242       -14.7551
   8   2.0000      -0.505970       -13.7681
   9   2.0000      -0.455708       -12.4004
  10   2.0000      -0.421450       -11.4682
  11   2.0000      -0.406151       -11.0519
  12   2.0000      -0.393529       -10.7085
  13   2.0000      -0.286036        -7.7834
  14   2.0000      -0.254813        -6.9338
  15   0.0000      -0.072096        -1.9618
  16   0.0000       0.061040         1.6610
  17   0.0000       0.070597         1.9210
  18   0.0000       0.092376         2.5137
  19   0.0000       0.131393         3.5754

MULLIKEN ATOMIC CHARGES
-----------------------
   0 C :    0.187654
   1 O :   -0.164746
   2 C :   -0.139829
   3 C :    0.117274
   4 H :   -0.032304
   5 H :   -0.010885
   6 H :    0.031934
   7 H :    0.010901
Sum of atomic charges:    0.0000000

LOEWDIN ATOMIC CHARGES
----------------------
   0 C :   -0.062158
   1 O :    0.027334
   2 C :   -0.077204
   3 C :    0.051006
   4 H :   -0.009730
   5 H :    0.026395
   6 H :    0.030855
   7 H :    0.013501

  Mayer bond orders larger than 0.100000
B(  0-C ,  1-O ) :   2.2360 B(  0-C ,  2-C ) :   1.0613 B(  0-C ,  4-H ) :   0.8991
B(  2-C ,  3-C ) :   1.9499 B(  2-C ,  5-H ) :   0.9485 B(  3-C ,  6-H ) :   0.9464
B(  3-C ,  7-H ) :   0.9473

-----------------------------------------------------------------------------
         ABSORPTION SPECTRUM VIA TRANSITION ELECTRIC DIPOLE MOMENTS
-----------------------------------------------------------------------------
State   Energy    Wavelength  fosc         T2        TX        TY        TZ
        (cm-1)      (nm)                 (au**2)    (au)      (au)      (au)
-----------------------------------------------------------------------------
   1   27735.0    360.6   0.000131296   0.00156  -0.02915  -0.01429   0.02246

FINAL SINGLE POINT ENERGY      -191.667009938066

DIPOLE MOMENT
-------------
                                X             Y             Z
Electronic contribution:     -1.93024      -2.02925       0.21251
Nuclear contribution   :      2.43978       2.87353      -0.25222
                        -----------------------------------------
Total Dipole Moment    :      0.50954       0.84428      -0.03971
                        -----------------------------------------
Magnitude (a.u.)       :      0.98692
Magnitude (Debye)      :      2.50856

Rotational constants in cm-1:     0.766355     0.205465     0.162236
Rotational constants in MHz : 22974.748548  6159.687430  4863.719655

                             ****ORCA TERMINATED NORMALLY****
TOTAL RUN TIME: 0 days 0 hours 3 minutes 28 seconds 530 msec
