                         Program Version 5.0.3 -  RELEASE  -
|  1> ! B3LYP cc-pVDZ
|  2> !TightSCF
|  3> %scf
|  4>  ConvForced true
|  5>  convergence tight
|  6>  MaxIter 500
|  7> end
|  8>
|  9> %tddft
| 10>  nroots 1
| 11> end
| 12>
| 13> # 	19538
| 14> * xyz 0 1
| 15> 		C   -1.258517  -0.334048   0.045137
| 16> 		O   -2.216752  -0.235388   0.708140
| 17> 		C    0.059129   0.423552   0.317031
| 18> 		C    1.207696   0.046926  -0.277101
| 19> 		H   -1.100242  -0.937537  -0.755872
| 20> 		H   -0.046109   1.063682   1.241924
| 21> 		H    1.228616  -0.761997  -1.035099
| 22> 		H    2.139427   0.684626  -0.273878
| 23> *
| 24>
| 25>                          ****END OF INPUT****

CARTESIAN COORDINATES (ANGSTROEM)
---------------------------------
  C     -1.258517   -0.334048    0.045137
  O     -2.216752   -0.235388    0.708140
  C      0.059129    0.423552    0.317031
  C      1.207696    0.046926   -0.277101
  H     -1.100242   -0.937537   -0.755872
  H     -0.046109    1.063682    1.241924
  H      1.228616   -0.761997   -1.035099
  H      2.139427    0.684626   -0.273878

 Total Charge           Charge          ....    0
 Multiplicity           Mult            ....    1
 Number of Electrons    NEL             ....   30
 Basis Dimension        Dim             ....   76

ORBITAL ENERGIES
----------------

  NO   OCC          E(Eh)            E(eV)
   0   2.0000     -19.144316      -520.9433
   1   2.0000     -10.269530      -279.4481
   2   2.0000     -10.221267      -278.1348
   3   2.0000     -10.208499      -277.7874
   4   2.0000      -1.072824       -29.1930
   5   2.0000      -0.790287       -21.5048
   6   2.0000      -0.644322       -17.5329
   7   2.0000      -0.576814       -15.6959
   8   2.0000      -0.476131       -12.9562
   9   2.0000      -0.463963       -12.6251
  10   2.0000      -0.431873       -11.7519
  11   2.0000      -0.411182       -11.1888
  12   2.0000      -0.382827       -10.4173
  13   2.0000      -0.290530        -7.9057
  14   2.0000      -0.254226        -6.9178
  15   0.0000      -0.061488        -1.6732
  16   0.0000       0.043836         1.1928
  17   0.0000       0.071529         1.9464
  18   0.0000       0.084248         2.2925
  19   0.0000       0.129798         3.5320

MULLIKEN ATOMIC CHARGES
-----------------------
   0 C :    0.226175
   1 O :   -0.158625
   2 C :   -0.123357
   3 C :    0.010004
   4 H :   -0.059394
   5 H :    0.017780
   6 H :    0.035264
   7 H :    0.052155
Sum of atomic charges:    0.0000000

LOEWDIN ATOMIC CHARGES
----------------------
   0 C :   -0.043128
   1 O :    0.047967
   2 C :   -0.063521
   3 C :   -0.020482
   4 H :   -0.028109
   5 H :    0.035493
   6 H :    0.029933
   7 H :    0.041846

  Mayer bond orders larger than 0.100000
B(  0-C ,  1-O ) :   2.2350 B(  0-C ,  2-C ) :   1.0428 B(  0-C ,  4-H ) :   0.9209
B(  2-C ,  3-C ) :   1.9376 B(  2-C ,  5-H ) :   0.9436 B(  3-C ,  6-H ) :   0.9386
B(  3-C ,  7-H ) :   0.9441

-----------------------------------------------------------------------------
         ABSORPTION SPECTRUM VIA TRANSITION ELECTRIC DIPOLE MOMENTS
-----------------------------------------------------------------------------
State   Energy    Wavelength  fosc         T2        TX        TY        TZ
        (cm-1)      (nm)                 (au**2)    (au)      (au)      (au)
-----------------------------------------------------------------------------
   1   30031.6    333.0   0.000810035   0.00888  -0.09165   0.01221   0.01821

FINAL SINGLE POINT ENERGY      -191.653064186917

DIPOLE MOMENT
-------------
                                X             Y             Z
Electronic contribution:     -3.38883      -0.19962       1.06916
Nuclear contribution   :      4.27766       0.18193      -1.53584
                        -----------------------------------------
Total Dipole Moment    :      0.88883      -0.01770      -0.46668
                        -----------------------------------------
Magnitude (a.u.)       :      1.00405
Magnitude (Debye)      :      2.55209

Rotational constants in cm-1:     1.558868     0.151855     0.139125
Rotational constants in MHz : 46733.685929  4552.483922  4170.848484

                             ****ORCA TERMINATED NORMALLY****
TOTAL RUN TIME: 0 days 0 hours 3 minutes 16 seconds 508 msec
