                         Program Version 5.0.3 -  RELEASE  -
|  1> ! B3LYP cc-pVDZ
|  2> !TightSCF
|  3> %scf
|  4>  ConvForced true
|  5>  convergence tight
|  6>  MaxIter 500
|  7> end
|  8>
|  9> %tddft
| 10>  nroots 1
| 11> end
| 12>
| 13> # 	26751
| 14> * xyz 0 1
| 15> 		C   -0.523003  -0.447481   0.008180
| 16> 		O   -0.592288  -1.635852   0.003597
| 17> 		C    0.617132   0.399241  -0.015448
| 18> 		C    1.807825  -0.111014   0.008014
| 19> 		H   -1.401706   0.266801  -0.018926
| 20> 		H    0.445004   1.688270  -0.001149
| 21> 		H    1.817689  -1.303155  -0.160032
| 22> 		H    2.867550   0.474582   0.123282
| 23> *
| 24>
| 25>                          ****END OF INPUT****

CARTESIAN COORDINATES (ANGSTROEM)
---------------------------------
  C     -0.523003   -0.447481    0.008180
  O     -0.592288   -1.635852    0.003597
  C      0.617132    0.399241   -0.015448
  C      1.807825   -0.111014    0.008014
  H     -1.401706    0.266801   -0.018926
  H      0.445004    1.688270   -0.001149
  H      1.817689   -1.303155   -0.160032
  H      2.867550    0.474582    0.123282

 Total Charge           Charge          ....    0
 Multiplicity           Mult            ....    1
 Number of Electrons    NEL             ....   30
 Basis Dimension        Dim             ....   76

ORBITAL ENERGIES
----------------

  NO   OCC          E(Eh)            E(eV)
   0   2.0000     -19.143156      -520.9118
   1   2.0000     -10.273312      -279.5510
   2   2.0000     -10.230602      -278.3888
   3   2.0000     -10.212603      -277.8991
   4   2.0000      -1.060965       -28.8703
   5   2.0000      -0.808571       -22.0023
   6   2.0000      -0.660217       -17.9654
   7   2.0000      -0.513963       -13.9857
   8   2.0000      -0.498063       -13.5530
   9   2.0000      -0.452911       -12.3243
  10   2.0000      -0.415872       -11.3165
  11   2.0000      -0.410663       -11.1747
  12   2.0000      -0.355555        -9.6751
  13   2.0000      -0.297123        -8.0851
  14   2.0000      -0.258974        -7.0470
  15   0.0000      -0.069928        -1.9028
  16   0.0000       0.029800         0.8109
  17   0.0000       0.065527         1.7831
  18   0.0000       0.078633         2.1397
  19   0.0000       0.117466         3.1964

MULLIKEN ATOMIC CHARGES
-----------------------
   0 C :    0.205269
   1 O :   -0.174222
   2 C :   -0.166251
   3 C :   -0.000450
   4 H :   -0.034313
   5 H :    0.034647
   6 H :    0.069686
   7 H :    0.065634
Sum of atomic charges:   -0.0000000

LOEWDIN ATOMIC CHARGES
----------------------
   0 C :   -0.066675
   1 O :    0.020886
   2 C :   -0.117711
   3 C :    0.003018
   4 H :   -0.008643
   5 H :    0.055190
   6 H :    0.058317
   7 H :    0.055618

  Mayer bond orders larger than 0.100000
B(  0-C ,  1-O ) :   2.2143 B(  0-C ,  2-C ) :   1.0728 B(  0-C ,  4-H ) :   0.9049
B(  2-C ,  3-C ) :   1.9408 B(  2-C ,  5-H ) :   0.9253 B(  3-C ,  6-H ) :   0.9075
B(  3-C ,  7-H ) :   0.9351

-----------------------------------------------------------------------------
         ABSORPTION SPECTRUM VIA TRANSITION ELECTRIC DIPOLE MOMENTS
-----------------------------------------------------------------------------
State   Energy    Wavelength  fosc         T2        TX        TY        TZ
        (cm-1)      (nm)                 (au**2)    (au)      (au)      (au)
-----------------------------------------------------------------------------
   1   28742.5    347.9   0.000303358   0.00347  -0.02944   0.01279  -0.04944

FINAL SINGLE POINT ENERGY      -191.633847861986

DIPOLE MOMENT
-------------
                                X             Y             Z
Electronic contribution:     -1.81093      -2.01725       0.04508
Nuclear contribution   :      2.33835       2.84365      -0.05388
                        -----------------------------------------
Total Dipole Moment    :      0.52742       0.82640      -0.00880
                        -----------------------------------------
Magnitude (a.u.)       :      0.98040
Magnitude (Debye)      :      2.49198

Rotational constants in cm-1:     0.779412     0.213473     0.167730
Rotational constants in MHz : 23366.176075  6399.773851  5028.408151

                             ****ORCA TERMINATED NORMALLY****
TOTAL RUN TIME: 0 days 0 hours 3 minutes 25 seconds 719 msec
