                         Program Version 5.0.3 -  RELEASE  -
|  1> ! B3LYP cc-pVDZ
|  2> !TightSCF
|  3> %scf
|  4>  ConvForced true
|  5>  convergence tight
|  6>  MaxIter 500
|  7> end
|  8>
|  9> %tddft
| 10>  nroots 1
| 11> end
| 12>
| 13> # 	19815
| 14> * xyz 0 1
| 15> 		C   -1.259338  -0.367998  -0.067232
| 16> 		O   -1.883852  -0.719514  -0.961426
| 17> 		C    0.002203   0.492910  -0.244682
| 18> 		C    1.212191  -0.001429   0.202688
| 19> 		H   -1.529440  -0.737877   0.871893
| 20> 		H   -0.112988   1.597107  -0.709014
| 21> 		H    1.307501  -0.916294   0.746370
| 22> 		H    2.212879   0.665407   0.164167
| 23> *
| 24>
| 25>                          ****END OF INPUT****

CARTESIAN COORDINATES (ANGSTROEM)
---------------------------------
  C     -1.259338   -0.367998   -0.067232
  O     -1.883852   -0.719514   -0.961426
  C      0.002203    0.492910   -0.244682
  C      1.212191   -0.001429    0.202688
  H     -1.529440   -0.737877    0.871893
  H     -0.112988    1.597107   -0.709014
  H      1.307501   -0.916294    0.746370
  H      2.212879    0.665407    0.164167

 Total Charge           Charge          ....    0
 Multiplicity           Mult            ....    1
 Number of Electrons    NEL             ....   30
 Basis Dimension        Dim             ....   76

ORBITAL ENERGIES
----------------

  NO   OCC          E(Eh)            E(eV)
   0   2.0000     -19.140381      -520.8362
   1   2.0000     -10.271886      -279.5122
   2   2.0000     -10.219967      -278.0994
   3   2.0000     -10.217874      -278.0425
   4   2.0000      -1.088526       -29.6203
   5   2.0000      -0.774735       -21.0816
   6   2.0000      -0.631544       -17.1852
   7   2.0000      -0.568792       -15.4776
   8   2.0000      -0.487635       -13.2692
   9   2.0000      -0.458061       -12.4645
  10   2.0000      -0.439638       -11.9632
  11   2.0000      -0.397357       -10.8126
  12   2.0000      -0.379768       -10.3340
  13   2.0000      -0.279148        -7.5960
  14   2.0000      -0.252602        -6.8737
  15   0.0000      -0.042040        -1.1440
  16   0.0000       0.008504         0.2314
  17   0.0000       0.072167         1.9638
  18   0.0000       0.081770         2.2251
  19   0.0000       0.115799         3.1510

MULLIKEN ATOMIC CHARGES
-----------------------
   0 C :    0.194913
   1 O :   -0.130861
   2 C :   -0.137339
   3 C :   -0.018773
   4 H :   -0.038403
   5 H :    0.052326
   6 H :    0.023497
   7 H :    0.054641
Sum of atomic charges:   -0.0000000

LOEWDIN ATOMIC CHARGES
----------------------
   0 C :   -0.059684
   1 O :    0.071813
   2 C :   -0.068845
   3 C :   -0.043272
   4 H :   -0.019518
   5 H :    0.054017
   6 H :    0.016928
   7 H :    0.048562

  Mayer bond orders larger than 0.100000
B(  0-C ,  1-O ) :   2.2754 B(  0-C ,  2-C ) :   0.9585 B(  0-C ,  4-H ) :   0.9290
B(  2-C ,  3-C ) :   1.9912 B(  2-C ,  5-H ) :   0.9344 B(  3-C ,  6-H ) :   0.9503
B(  3-C ,  7-H ) :   0.9467

-----------------------------------------------------------------------------
         ABSORPTION SPECTRUM VIA TRANSITION ELECTRIC DIPOLE MOMENTS
-----------------------------------------------------------------------------
State   Energy    Wavelength  fosc         T2        TX        TY        TZ
        (cm-1)      (nm)                 (au**2)    (au)      (au)      (au)
-----------------------------------------------------------------------------
   1   33312.1    300.2   0.000394149   0.00390  -0.04926   0.00216  -0.03826

FINAL SINGLE POINT ENERGY      -191.619678152634

DIPOLE MOMENT
-------------
                                X             Y             Z
Electronic contribution:     -3.14697      -0.89894      -1.42071
Nuclear contribution   :      3.66845       1.19279       2.04194
                        -----------------------------------------
Total Dipole Moment    :      0.52148       0.29385       0.62123
                        -----------------------------------------
Magnitude (a.u.)       :      0.86268
Magnitude (Debye)      :      2.19275

Rotational constants in cm-1:     1.132454     0.157700     0.150346
Rotational constants in MHz : 33950.108719  4727.714479  4507.254192

                             ****ORCA TERMINATED NORMALLY****
TOTAL RUN TIME: 0 days 0 hours 3 minutes 15 seconds 759 msec
