                         Program Version 5.0.3 -  RELEASE  -
|  1> ! HF-3c
|  2> !TightSCF
|  3> %scf
|  4>  ConvForced true
|  5>  convergence tight
|  6>  MaxIter 500
|  7> end
|  8>
|  9> %tddft
| 10>  nroots 1
| 11> end
| 12>
| 13> # 	27151
| 14> * xyz 0 1
| 15> 		C   -0.628679  -0.418962  -0.036543
| 16> 		O   -0.538134  -1.626809   0.025469
| 17> 		C    0.662819   0.440972   0.011754
| 18> 		C    1.804000  -0.158042   0.016508
| 19> 		H   -1.614755   0.052258  -0.176160
| 20> 		H    0.517623   1.444324   0.237572
| 21> 		H    1.930561  -1.339875  -0.167406
| 22> 		H    2.777523   0.540691  -0.194317
| 23> *
| 24>
| 25>                          ****END OF INPUT****

CARTESIAN COORDINATES (ANGSTROEM)
---------------------------------
  C     -0.628679   -0.418962   -0.036543
  O     -0.538134   -1.626809    0.025469
  C      0.662819    0.440972    0.011754
  C      1.804000   -0.158042    0.016508
  H     -1.614755    0.052258   -0.176160
  H      0.517623    1.444324    0.237572
  H      1.930561   -1.339875   -0.167406
  H      2.777523    0.540691   -0.194317

 Total Charge           Charge          ....    0
 Multiplicity           Mult            ....    1
 Number of Electrons    NEL             ....   30
 Basis Dimension        Dim             ....   24

ORBITAL ENERGIES
----------------

  NO   OCC          E(Eh)            E(eV)
   0   2.0000     -20.358084      -553.9716
   1   2.0000     -11.288226      -307.1682
   2   2.0000     -11.181830      -304.2731
   3   2.0000     -11.179549      -304.2110
   4   2.0000      -1.397041       -38.0154
   5   2.0000      -1.072615       -29.1873
   6   2.0000      -0.862305       -23.4645
   7   2.0000      -0.736660       -20.0455
   8   2.0000      -0.695123       -18.9153
   9   2.0000      -0.600499       -16.3404
  10   2.0000      -0.580135       -15.7863
  11   2.0000      -0.532682       -14.4950
  12   2.0000      -0.504338       -13.7237
  13   2.0000      -0.410913       -11.1815
  14   2.0000      -0.392372       -10.6770
  15   0.0000       0.152241         4.1427
  16   0.0000       0.299552         8.1512
  17   0.0000       0.475593        12.9416
  18   0.0000       0.537717        14.6320
  19   0.0000       0.632754        17.2181

MULLIKEN ATOMIC CHARGES
-----------------------
   0 C :    0.168694
   1 O :   -0.360525
   2 C :   -0.199970
   3 C :   -0.196424
   4 H :    0.139535
   5 H :    0.140171
   6 H :    0.164383
   7 H :    0.144136
Sum of atomic charges:    0.0000000

LOEWDIN ATOMIC CHARGES
----------------------
   0 C :    0.149552
   1 O :   -0.265426
   2 C :   -0.151360
   3 C :   -0.116855
   4 H :    0.076317
   5 H :    0.085539
   6 H :    0.118394
   7 H :    0.103839

  Mayer bond orders larger than 0.100000
B(  0-C ,  1-O ) :   1.9254 B(  0-C ,  2-C ) :   0.9841 B(  0-C ,  4-H ) :   0.9278
B(  2-C ,  3-C ) :   1.9752 B(  2-C ,  5-H ) :   0.9597 B(  3-C ,  6-H ) :   0.9481
B(  3-C ,  7-H ) :   0.9546

-----------------------------------------------------------------------------
         ABSORPTION SPECTRUM VIA TRANSITION ELECTRIC DIPOLE MOMENTS
-----------------------------------------------------------------------------
State   Energy    Wavelength  fosc         T2        TX        TY        TZ
        (cm-1)      (nm)                 (au**2)    (au)      (au)      (au)
-----------------------------------------------------------------------------
   1   33535.3    298.2   0.000206322   0.00203   0.04362   0.00278   0.01072

Dispersion correction           -0.025583763
FINAL SINGLE POINT ENERGY      -189.312516868775

DIPOLE MOMENT
-------------
                                X             Y             Z
Electronic contribution:     -1.95252      -1.59292       0.17940
Nuclear contribution   :      2.23009       2.44181      -0.28172
                        -----------------------------------------
Total Dipole Moment    :      0.27757       0.84889      -0.10233
                        -----------------------------------------
Magnitude (a.u.)       :      0.89896
Magnitude (Debye)      :      2.28497

Rotational constants in cm-1:     0.735768     0.214067     0.166431
Rotational constants in MHz : 22057.769315  6417.575126  4989.464081

                             ****ORCA TERMINATED NORMALLY****
TOTAL RUN TIME: 0 days 0 hours 0 minutes 11 seconds 756 msec
