                         Program Version 5.0.3 -  RELEASE  -
|  1> ! HF-3c
|  2> !TightSCF
|  3> %scf
|  4>  ConvForced true
|  5>  convergence tight
|  6>  MaxIter 500
|  7> end
|  8>
|  9> %tddft
| 10>  nroots 1
| 11> end
| 12>
| 13> # 	7213
| 14> * xyz 0 1
| 15> 		C   -1.214417  -0.341810   0.062012
| 16> 		O   -1.935670  -0.713917   0.908135
| 17> 		C   -0.012000   0.476247   0.287706
| 18> 		C    1.169908   0.038738  -0.299787
| 19> 		H   -1.509999  -0.681337  -1.000983
| 20> 		H    0.030765   1.311116   1.109740
| 21> 		H    1.298861  -0.687923  -0.967004
| 22> 		H    2.110818   0.539816  -0.049193
| 23> *
| 24>
| 25>                          ****END OF INPUT****

CARTESIAN COORDINATES (ANGSTROEM)
---------------------------------
  C     -1.214417   -0.341810    0.062012
  O     -1.935670   -0.713917    0.908135
  C     -0.012000    0.476247    0.287706
  C      1.169908    0.038738   -0.299787
  H     -1.509999   -0.681337   -1.000983
  H      0.030765    1.311116    1.109740
  H      1.298861   -0.687923   -0.967004
  H      2.110818    0.539816   -0.049193

 Total Charge           Charge          ....    0
 Multiplicity           Mult            ....    1
 Number of Electrons    NEL             ....   30
 Basis Dimension        Dim             ....   24

ORBITAL ENERGIES
----------------

  NO   OCC          E(Eh)            E(eV)
   0   2.0000     -20.371978      -554.3497
   1   2.0000     -11.304486      -307.6107
   2   2.0000     -11.194642      -304.6217
   3   2.0000     -11.186043      -304.3877
   4   2.0000      -1.430678       -38.9307
   5   2.0000      -1.068055       -29.0633
   6   2.0000      -0.879396       -23.9296
   7   2.0000      -0.769511       -20.9395
   8   2.0000      -0.681446       -18.5431
   9   2.0000      -0.638771       -17.3818
  10   2.0000      -0.591057       -16.0835
  11   2.0000      -0.554954       -15.1011
  12   2.0000      -0.528660       -14.3856
  13   2.0000      -0.405252       -11.0275
  14   2.0000      -0.386185       -10.5086
  15   0.0000       0.145777         3.9668
  16   0.0000       0.267266         7.2727
  17   0.0000       0.518815        14.1177
  18   0.0000       0.578066        15.7300
  19   0.0000       0.675554        18.3828

MULLIKEN ATOMIC CHARGES
-----------------------
   0 C :    0.173583
   1 O :   -0.359967
   2 C :   -0.147292
   3 C :   -0.245619
   4 H :    0.136361
   5 H :    0.163718
   6 H :    0.137906
   7 H :    0.141311
Sum of atomic charges:   -0.0000000

LOEWDIN ATOMIC CHARGES
----------------------
   0 C :    0.142342
   1 O :   -0.253172
   2 C :   -0.109950
   3 C :   -0.143723
   4 H :    0.075426
   5 H :    0.115493
   6 H :    0.081349
   7 H :    0.092236

  Mayer bond orders larger than 0.100000
B(  0-C ,  1-O ) :   1.9185 B(  0-C ,  2-C ) :   1.0135 B(  0-C ,  4-H ) :   0.9140
B(  2-C ,  3-C ) :   1.9555 B(  2-C ,  5-H ) :   0.9487 B(  3-C ,  6-H ) :   0.9711
B(  3-C ,  7-H ) :   0.9672

-----------------------------------------------------------------------------
         ABSORPTION SPECTRUM VIA TRANSITION ELECTRIC DIPOLE MOMENTS
-----------------------------------------------------------------------------
State   Energy    Wavelength  fosc         T2        TX        TY        TZ
        (cm-1)      (nm)                 (au**2)    (au)      (au)      (au)
-----------------------------------------------------------------------------
   1   35584.9    281.0   0.000102125   0.00094   0.03054   0.00167  -0.00300

Dispersion correction           -0.024915362
FINAL SINGLE POINT ENERGY      -189.300926187974

DIPOLE MOMENT
-------------
                                X             Y             Z
Electronic contribution:     -2.98914      -0.67569       1.21261
Nuclear contribution   :      3.77842       1.03649      -1.79311
                        -----------------------------------------
Total Dipole Moment    :      0.78928       0.36079      -0.58049
                        -----------------------------------------
Magnitude (a.u.)       :      1.04408
Magnitude (Debye)      :      2.65384

Rotational constants in cm-1:     1.213476     0.160039     0.150456
Rotational constants in MHz : 36379.083892  4797.846533  4510.559557

                             ****ORCA TERMINATED NORMALLY****
TOTAL RUN TIME: 0 days 0 hours 0 minutes 11 seconds 295 msec
