                         Program Version 5.0.3 -  RELEASE  -
|  1> ! HF-3c
|  2> !TightSCF
|  3> %scf
|  4>  ConvForced true
|  5>  convergence tight
|  6>  MaxIter 500
|  7> end
|  8>
|  9> %tddft
| 10>  nroots 1
| 11> end
| 12>
| 13> # 	15729
| 14> * xyz 0 1
| 15> 		C   -1.270627  -0.294320  -0.034361
| 16> 		O   -1.576692  -1.210008   0.745798
| 17> 		C   -0.040346   0.525648   0.172204
| 18> 		C    1.152018   0.075374  -0.170049
| 19> 		H   -1.801862  -0.085731  -0.876602
| 20> 		H   -0.087425   1.513911   0.596685
| 21> 		H    1.377670  -0.962146  -0.431438
| 22> 		H    2.207714   0.466449  -0.007571
| 23> *
| 24>
| 25>                          ****END OF INPUT****

CARTESIAN COORDINATES (ANGSTROEM)
---------------------------------
  C     -1.270627   -0.294320   -0.034361
  O     -1.576692   -1.210008    0.745798
  C     -0.040346    0.525648    0.172204
  C      1.152018    0.075374   -0.170049
  H     -1.801862   -0.085731   -0.876602
  H     -0.087425    1.513911    0.596685
  H      1.377670   -0.962146   -0.431438
  H      2.207714    0.466449   -0.007571

 Total Charge           Charge          ....    0
 Multiplicity           Mult            ....    1
 Number of Electrons    NEL             ....   30
 Basis Dimension        Dim             ....   24

ORBITAL ENERGIES
----------------

  NO   OCC          E(Eh)            E(eV)
   0   2.0000     -20.378857      -554.5369
   1   2.0000     -11.302755      -307.5636
   2   2.0000     -11.192990      -304.5767
   3   2.0000     -11.177395      -304.1524
   4   2.0000      -1.391035       -37.8520
   5   2.0000      -1.077605       -29.3231
   6   2.0000      -0.895376       -24.3644
   7   2.0000      -0.780129       -21.2284
   8   2.0000      -0.690441       -18.7879
   9   2.0000      -0.636223       -17.3125
  10   2.0000      -0.607983       -16.5441
  11   2.0000      -0.520408       -14.1610
  12   2.0000      -0.494829       -13.4650
  13   2.0000      -0.424935       -11.5631
  14   2.0000      -0.404682       -11.0120
  15   0.0000       0.169464         4.6113
  16   0.0000       0.219181         5.9642
  17   0.0000       0.523068        14.2334
  18   0.0000       0.627892        17.0858
  19   0.0000       0.682900        18.5826

MULLIKEN ATOMIC CHARGES
-----------------------
   0 C :    0.151299
   1 O :   -0.322874
   2 C :   -0.177322
   3 C :   -0.229209
   4 H :    0.146647
   5 H :    0.154604
   6 H :    0.133632
   7 H :    0.143223
Sum of atomic charges:    0.0000000

LOEWDIN ATOMIC CHARGES
----------------------
   0 C :    0.150595
   1 O :   -0.236789
   2 C :   -0.128511
   3 C :   -0.141876
   4 H :    0.074919
   5 H :    0.100944
   6 H :    0.084472
   7 H :    0.096245

  Mayer bond orders larger than 0.100000
B(  0-C ,  1-O ) :   1.9486 B(  0-C ,  2-C ) :   0.9901 B(  0-C ,  4-H ) :   0.9316
B(  2-C ,  3-C ) :   2.0002 B(  2-C ,  5-H ) :   0.9472 B(  3-C ,  6-H ) :   0.9659
B(  3-C ,  7-H ) :   0.9624

-----------------------------------------------------------------------------
         ABSORPTION SPECTRUM VIA TRANSITION ELECTRIC DIPOLE MOMENTS
-----------------------------------------------------------------------------
State   Energy    Wavelength  fosc         T2        TX        TY        TZ
        (cm-1)      (nm)                 (au**2)    (au)      (au)      (au)
-----------------------------------------------------------------------------
   1   32150.7    311.0   0.000032638   0.00033   0.01612  -0.00776  -0.00377

Dispersion correction           -0.025056488
FINAL SINGLE POINT ENERGY      -189.320355888477

DIPOLE MOMENT
-------------
                                X             Y             Z
Electronic contribution:     -2.81234      -1.20565       0.84996
Nuclear contribution   :      3.27648       1.84714      -1.39059
                        -----------------------------------------
Total Dipole Moment    :      0.46414       0.64149      -0.54062
                        -----------------------------------------
Magnitude (a.u.)       :      0.95875
Magnitude (Debye)      :      2.43696

Rotational constants in cm-1:     0.897465     0.175517     0.160291
Rotational constants in MHz : 26905.322185  5261.865985  4805.405525

                             ****ORCA TERMINATED NORMALLY****
TOTAL RUN TIME: 0 days 0 hours 0 minutes 12 seconds 124 msec
