                         Program Version 5.0.3 -  RELEASE  -
|  1> ! HF-3c
|  2> !TightSCF
|  3> %scf
|  4>  ConvForced true
|  5>  convergence tight
|  6>  MaxIter 500
|  7> end
|  8>
|  9> %tddft
| 10>  nroots 1
| 11> end
| 12>
| 13> # 	20046
| 14> * xyz 0 1
| 15> 		C   -0.612672  -0.399103   0.017075
| 16> 		O   -0.568457  -1.635063  -0.003392
| 17> 		C    0.610632   0.385359  -0.082205
| 18> 		C    1.865071  -0.124519   0.047899
| 19> 		H   -1.511833   0.110143   0.256115
| 20> 		H    0.421912   1.428332   0.068727
| 21> 		H    2.045787  -1.135928  -0.239661
| 22> 		H    2.793546   0.466131   0.186412
| 23> *
| 24>
| 25>                          ****END OF INPUT****

CARTESIAN COORDINATES (ANGSTROEM)
---------------------------------
  C     -0.612672   -0.399103    0.017075
  O     -0.568457   -1.635063   -0.003392
  C      0.610632    0.385359   -0.082205
  C      1.865071   -0.124519    0.047899
  H     -1.511833    0.110143    0.256115
  H      0.421912    1.428332    0.068727
  H      2.045787   -1.135928   -0.239661
  H      2.793546    0.466131    0.186412

 Total Charge           Charge          ....    0
 Multiplicity           Mult            ....    1
 Number of Electrons    NEL             ....   30
 Basis Dimension        Dim             ....   24

ORBITAL ENERGIES
----------------

  NO   OCC          E(Eh)            E(eV)
   0   2.0000     -20.354576      -553.8762
   1   2.0000     -11.291174      -307.2485
   2   2.0000     -11.194935      -304.6297
   3   2.0000     -11.188206      -304.4466
   4   2.0000      -1.382656       -37.6240
   5   2.0000      -1.071982       -29.1701
   6   2.0000      -0.905231       -24.6326
   7   2.0000      -0.759287       -20.6612
   8   2.0000      -0.698804       -19.0154
   9   2.0000      -0.615694       -16.7539
  10   2.0000      -0.591785       -16.1033
  11   2.0000      -0.537017       -14.6130
  12   2.0000      -0.523442       -14.2436
  13   2.0000      -0.419647       -11.4192
  14   2.0000      -0.380729       -10.3602
  15   0.0000       0.117935         3.2092
  16   0.0000       0.290974         7.9178
  17   0.0000       0.547100        14.8874
  18   0.0000       0.672881        18.3100
  19   0.0000       0.685304        18.6481

MULLIKEN ATOMIC CHARGES
-----------------------
   0 C :    0.142235
   1 O :   -0.343490
   2 C :   -0.175871
   3 C :   -0.206950
   4 H :    0.143511
   5 H :    0.136373
   6 H :    0.155410
   7 H :    0.148784
Sum of atomic charges:   -0.0000000

LOEWDIN ATOMIC CHARGES
----------------------
   0 C :    0.136166
   1 O :   -0.258576
   2 C :   -0.131580
   3 C :   -0.106033
   4 H :    0.076746
   5 H :    0.084440
   6 H :    0.099726
   7 H :    0.099111

  Mayer bond orders larger than 0.100000
B(  0-C ,  1-O ) :   1.8885 B(  0-C ,  2-C ) :   1.0498 B(  0-C ,  4-H ) :   0.9330
B(  2-C ,  3-C ) :   1.9245 B(  2-C ,  5-H ) :   0.9612 B(  3-C ,  6-H ) :   0.9618
B(  3-C ,  7-H ) :   0.9644

-----------------------------------------------------------------------------
         ABSORPTION SPECTRUM VIA TRANSITION ELECTRIC DIPOLE MOMENTS
-----------------------------------------------------------------------------
State   Energy    Wavelength  fosc         T2        TX        TY        TZ
        (cm-1)      (nm)                 (au**2)    (au)      (au)      (au)
-----------------------------------------------------------------------------
   1   30102.0    332.2   0.000057284   0.00063  -0.02461  -0.00188  -0.00418

Dispersion correction           -0.025662746
FINAL SINGLE POINT ENERGY      -189.342960617145

DIPOLE MOMENT
-------------
                                X             Y             Z
Electronic contribution:     -2.02753      -1.67527      -0.17698
Nuclear contribution   :      2.36267       2.60145       0.25391
                        -----------------------------------------
Total Dipole Moment    :      0.33514       0.92619       0.07693
                        -----------------------------------------
Magnitude (a.u.)       :      0.98796
Magnitude (Debye)      :      2.51118

Rotational constants in cm-1:     0.748386     0.209062     0.164292
Rotational constants in MHz : 22436.055876  6267.531734  4925.362447

                             ****ORCA TERMINATED NORMALLY****
TOTAL RUN TIME: 0 days 0 hours 0 minutes 10 seconds 815 msec
