                         Program Version 5.0.3 -  RELEASE  -
|  1> ! HF-3c
|  2> !TightSCF
|  3> %scf
|  4>  ConvForced true
|  5>  convergence tight
|  6>  MaxIter 500
|  7> end
|  8>
|  9> %tddft
| 10>  nroots 1
| 11> end
| 12>
| 13> # 	13599
| 14> * xyz 0 1
| 15> 		C   -1.136240  -0.377402   0.127878
| 16> 		O   -2.114797  -0.244331   0.913123
| 17> 		C    0.134227   0.314997   0.395605
| 18> 		C    1.232562   0.092301  -0.276555
| 19> 		H   -1.450083  -1.029902  -1.193515
| 20> 		H    0.056264   1.086493   1.281950
| 21> 		H    1.130600  -0.514375  -1.215655
| 22> 		H    2.110089   0.687381  -0.039163
| 23> *
| 24>
| 25>                          ****END OF INPUT****

CARTESIAN COORDINATES (ANGSTROEM)
---------------------------------
  C     -1.136240   -0.377402    0.127878
  O     -2.114797   -0.244331    0.913123
  C      0.134227    0.314997    0.395605
  C      1.232562    0.092301   -0.276555
  H     -1.450083   -1.029902   -1.193515
  H      0.056264    1.086493    1.281950
  H      1.130600   -0.514375   -1.215655
  H      2.110089    0.687381   -0.039163

 Total Charge           Charge          ....    0
 Multiplicity           Mult            ....    1
 Number of Electrons    NEL             ....   30
 Basis Dimension        Dim             ....   24

ORBITAL ENERGIES
----------------

  NO   OCC          E(Eh)            E(eV)
   0   2.0000     -20.336632      -553.3879
   1   2.0000     -11.269545      -306.6599
   2   2.0000     -11.194909      -304.6290
   3   2.0000     -11.191278      -304.5302
   4   2.0000      -1.353758       -36.8376
   5   2.0000      -1.086650       -29.5693
   6   2.0000      -0.860105       -23.4047
   7   2.0000      -0.718314       -19.5463
   8   2.0000      -0.644853       -17.5473
   9   2.0000      -0.620582       -16.8869
  10   2.0000      -0.537838       -14.6353
  11   2.0000      -0.528864       -14.3911
  12   2.0000      -0.503044       -13.6885
  13   2.0000      -0.395554       -10.7636
  14   2.0000      -0.374082       -10.1793
  15   0.0000       0.133197         3.6245
  16   0.0000       0.284708         7.7473
  17   0.0000       0.344078         9.3628
  18   0.0000       0.528770        14.3886
  19   0.0000       0.610024        16.5996

MULLIKEN ATOMIC CHARGES
-----------------------
   0 C :    0.177252
   1 O :   -0.361554
   2 C :   -0.165337
   3 C :   -0.237336
   4 H :    0.125826
   5 H :    0.162282
   6 H :    0.148580
   7 H :    0.150288
Sum of atomic charges:   -0.0000000

LOEWDIN ATOMIC CHARGES
----------------------
   0 C :    0.135770
   1 O :   -0.279248
   2 C :   -0.120823
   3 C :   -0.142863
   4 H :    0.093916
   5 H :    0.113345
   6 H :    0.100876
   7 H :    0.099027

  Mayer bond orders larger than 0.100000
B(  0-C ,  1-O ) :   1.9019 B(  0-C ,  2-C ) :   1.0326 B(  0-C ,  4-H ) :   0.8781
B(  2-C ,  3-C ) :   1.9528 B(  2-C ,  5-H ) :   0.9424 B(  3-C ,  6-H ) :   0.9583
B(  3-C ,  7-H ) :   0.9612

-----------------------------------------------------------------------------
         ABSORPTION SPECTRUM VIA TRANSITION ELECTRIC DIPOLE MOMENTS
-----------------------------------------------------------------------------
State   Energy    Wavelength  fosc         T2        TX        TY        TZ
        (cm-1)      (nm)                 (au**2)    (au)      (au)      (au)
-----------------------------------------------------------------------------
   1   29605.4    337.8   0.000313052   0.00348   0.03472   0.00448   0.04749

Dispersion correction           -0.026322991
FINAL SINGLE POINT ENERGY      -189.275195845400

DIPOLE MOMENT
-------------
                                X             Y             Z
Electronic contribution:     -2.70888      -0.39218       1.46861
Nuclear contribution   :      3.66391       0.43479      -2.18279
                        -----------------------------------------
Total Dipole Moment    :      0.95504       0.04261      -0.71418
                        -----------------------------------------
Magnitude (a.u.)       :      1.19330
Magnitude (Debye)      :      3.03313

Rotational constants in cm-1:     1.350369     0.154860     0.139487
Rotational constants in MHz : 40483.036120  4642.598850  4181.717785

                             ****ORCA TERMINATED NORMALLY****
TOTAL RUN TIME: 0 days 0 hours 0 minutes 13 seconds 360 msec
