                         Program Version 5.0.3 -  RELEASE  -
|  1> ! HF-3c
|  2> !TightSCF
|  3> %scf
|  4>  ConvForced true
|  5>  convergence tight
|  6>  MaxIter 500
|  7> end
|  8>
|  9> %tddft
| 10>  nroots 1
| 11> end
| 12>
| 13> # 	21515
| 14> * xyz 0 1
| 15> 		C   -0.632627  -0.390778   0.015942
| 16> 		O   -0.508806  -1.590299  -0.024354
| 17> 		C    0.659398   0.389176  -0.009149
| 18> 		C    1.779146  -0.188791   0.018492
| 19> 		H   -1.680339   0.083014   0.179677
| 20> 		H    0.526473   1.471950  -0.120075
| 21> 		H    1.989932  -1.258964   0.204803
| 22> 		H    2.676823   0.497967  -0.201107
| 23> *
| 24>
| 25>                          ****END OF INPUT****

CARTESIAN COORDINATES (ANGSTROEM)
---------------------------------
  C     -0.632627   -0.390778    0.015942
  O     -0.508806   -1.590299   -0.024354
  C      0.659398    0.389176   -0.009149
  C      1.779146   -0.188791    0.018492
  H     -1.680339    0.083014    0.179677
  H      0.526473    1.471950   -0.120075
  H      1.989932   -1.258964    0.204803
  H      2.676823    0.497967   -0.201107

 Total Charge           Charge          ....    0
 Multiplicity           Mult            ....    1
 Number of Electrons    NEL             ....   30
 Basis Dimension        Dim             ....   24

ORBITAL ENERGIES
----------------

  NO   OCC          E(Eh)            E(eV)
   0   2.0000     -20.356482      -553.9280
   1   2.0000     -11.287647      -307.1525
   2   2.0000     -11.186435      -304.3984
   3   2.0000     -11.185760      -304.3800
   4   2.0000      -1.402914       -38.1752
   5   2.0000      -1.087477       -29.5918
   6   2.0000      -0.869085       -23.6490
   7   2.0000      -0.733336       -19.9551
   8   2.0000      -0.701936       -19.1007
   9   2.0000      -0.616437       -16.7741
  10   2.0000      -0.586410       -15.9570
  11   2.0000      -0.537852       -14.6357
  12   2.0000      -0.514969       -14.0130
  13   2.0000      -0.409083       -11.1317
  14   2.0000      -0.402047       -10.9403
  15   0.0000       0.153090         4.1658
  16   0.0000       0.323151         8.7934
  17   0.0000       0.487885        13.2760
  18   0.0000       0.611202        16.6316
  19   0.0000       0.624306        16.9882

MULLIKEN ATOMIC CHARGES
-----------------------
   0 C :    0.168220
   1 O :   -0.358224
   2 C :   -0.180985
   3 C :   -0.221983
   4 H :    0.143038
   5 H :    0.140013
   6 H :    0.164373
   7 H :    0.145548
Sum of atomic charges:   -0.0000000

LOEWDIN ATOMIC CHARGES
----------------------
   0 C :    0.142564
   1 O :   -0.261930
   2 C :   -0.134891
   3 C :   -0.130214
   4 H :    0.084463
   5 H :    0.089016
   6 H :    0.110607
   7 H :    0.100385

  Mayer bond orders larger than 0.100000
B(  0-C ,  1-O ) :   1.9185 B(  0-C ,  2-C ) :   0.9985 B(  0-C ,  4-H ) :   0.9213
B(  2-C ,  3-C ) :   1.9806 B(  2-C ,  5-H ) :   0.9556 B(  3-C ,  6-H ) :   0.9540
B(  3-C ,  7-H ) :   0.9561

-----------------------------------------------------------------------------
         ABSORPTION SPECTRUM VIA TRANSITION ELECTRIC DIPOLE MOMENTS
-----------------------------------------------------------------------------
State   Energy    Wavelength  fosc         T2        TX        TY        TZ
        (cm-1)      (nm)                 (au**2)    (au)      (au)      (au)
-----------------------------------------------------------------------------
   1   32853.3    304.4   0.000198723   0.00199   0.04313  -0.00228  -0.01123

Dispersion correction           -0.025932133
FINAL SINGLE POINT ENERGY      -189.329441475628

DIPOLE MOMENT
-------------
                                X             Y             Z
Electronic contribution:     -1.96641      -1.63441      -0.02784
Nuclear contribution   :      2.13964       2.53103       0.06051
                        -----------------------------------------
Total Dipole Moment    :      0.17323       0.89662       0.03267
                        -----------------------------------------
Magnitude (a.u.)       :      0.91379
Magnitude (Debye)      :      2.32266

Rotational constants in cm-1:     0.745501     0.225824     0.173850
Rotational constants in MHz : 22349.567516  6770.031618  5211.878318

                             ****ORCA TERMINATED NORMALLY****
TOTAL RUN TIME: 0 days 0 hours 0 minutes 12 seconds 153 msec
