                         Program Version 5.0.3 -  RELEASE  -
|  1> ! HF-3c
|  2> !TightSCF
|  3> %scf
|  4>  ConvForced true
|  5>  convergence tight
|  6>  MaxIter 500
|  7> end
|  8>
|  9> %tddft
| 10>  nroots 1
| 11> end
| 12>
| 13> # 	1719
| 14> * xyz 0 1
| 15> 		C   -1.162214  -0.446715  -0.082654
| 16> 		O   -2.222127  -0.411429  -0.690027
| 17> 		C   -0.073067   0.494880  -0.279885
| 18> 		C    1.150150   0.136175   0.364070
| 19> 		H   -0.966294  -1.031912   0.744334
| 20> 		H   -0.137603   1.149949  -1.197303
| 21> 		H    1.380148  -0.598710   1.043102
| 22> 		H    2.041403   0.693283   0.079753
| 23> *
| 24>
| 25>                          ****END OF INPUT****

CARTESIAN COORDINATES (ANGSTROEM)
---------------------------------
  C     -1.162214   -0.446715   -0.082654
  O     -2.222127   -0.411429   -0.690027
  C     -0.073067    0.494880   -0.279885
  C      1.150150    0.136175    0.364070
  H     -0.966294   -1.031912    0.744334
  H     -0.137603    1.149949   -1.197303
  H      1.380148   -0.598710    1.043102
  H      2.041403    0.693283    0.079753

 Total Charge           Charge          ....    0
 Multiplicity           Mult            ....    1
 Number of Electrons    NEL             ....   30
 Basis Dimension        Dim             ....   24

ORBITAL ENERGIES
----------------

  NO   OCC          E(Eh)            E(eV)
   0   2.0000     -20.358884      -553.9934
   1   2.0000     -11.292245      -307.2776
   2   2.0000     -11.197361      -304.6957
   3   2.0000     -11.191033      -304.5235
   4   2.0000      -1.390185       -37.8289
   5   2.0000      -1.072450       -29.1829
   6   2.0000      -0.895837       -24.3770
   7   2.0000      -0.792972       -21.5779
   8   2.0000      -0.667919       -18.1750
   9   2.0000      -0.636851       -17.3296
  10   2.0000      -0.567719       -15.4484
  11   2.0000      -0.557396       -15.1675
  12   2.0000      -0.536753       -14.6058
  13   2.0000      -0.413408       -11.2494
  14   2.0000      -0.373146       -10.1538
  15   0.0000       0.108478         2.9518
  16   0.0000       0.281705         7.6656
  17   0.0000       0.551454        15.0058
  18   0.0000       0.639264        17.3953
  19   0.0000       0.664500        18.0820

MULLIKEN ATOMIC CHARGES
-----------------------
   0 C :    0.144822
   1 O :   -0.349375
   2 C :   -0.152323
   3 C :   -0.224314
   4 H :    0.134933
   5 H :    0.160391
   6 H :    0.144586
   7 H :    0.141280
Sum of atomic charges:    0.0000000

LOEWDIN ATOMIC CHARGES
----------------------
   0 C :    0.137169
   1 O :   -0.259739
   2 C :   -0.114813
   3 C :   -0.117459
   4 H :    0.066328
   5 H :    0.108441
   6 H :    0.088918
   7 H :    0.091154

  Mayer bond orders larger than 0.100000
B(  0-C ,  1-O ) :   1.8818 B(  0-C ,  2-C ) :   1.0576 B(  0-C ,  4-H ) :   0.9305
B(  2-C ,  3-C ) :   1.9042 B(  2-C ,  5-H ) :   0.9555 B(  3-C ,  6-H ) :   0.9694
B(  3-C ,  7-H ) :   0.9696

-----------------------------------------------------------------------------
         ABSORPTION SPECTRUM VIA TRANSITION ELECTRIC DIPOLE MOMENTS
-----------------------------------------------------------------------------
State   Energy    Wavelength  fosc         T2        TX        TY        TZ
        (cm-1)      (nm)                 (au**2)    (au)      (au)      (au)
-----------------------------------------------------------------------------
   1   31312.4    319.4   0.000171993   0.00181  -0.03373  -0.02549   0.00457

Dispersion correction           -0.025539882
FINAL SINGLE POINT ENERGY      -189.318407386533

DIPOLE MOMENT
-------------
                                X             Y             Z
Electronic contribution:     -3.25965      -0.42732      -0.87869
Nuclear contribution   :      4.44230       0.47253       1.31352
                        -----------------------------------------
Total Dipole Moment    :      1.18265       0.04521       0.43484
                        -----------------------------------------
Magnitude (a.u.)       :      1.26087
Magnitude (Debye)      :      3.20488

Rotational constants in cm-1:     1.504945     0.154517     0.140850
Rotational constants in MHz : 45117.127463  4632.310168  4222.567888

                             ****ORCA TERMINATED NORMALLY****
TOTAL RUN TIME: 0 days 0 hours 0 minutes 9 seconds 426 msec
