                         Program Version 5.0.3 -  RELEASE  -
|  1> ! B3LYP cc-pVDZ
|  2> !TightSCF
|  3> %scf
|  4>  ConvForced true
|  5>  convergence tight
|  6>  MaxIter 500
|  7> end
|  8>
|  9> %tddft
| 10>  nroots 1
| 11> end
| 12>
| 13> # 	26708
| 14> * xyz 0 1
| 15> 		C   -0.595760  -0.456814   0.041562
| 16> 		O   -0.585124  -1.623054  -0.020575
| 17> 		C    0.661144   0.420092  -0.024444
| 18> 		C    1.818702  -0.122927   0.012992
| 19> 		H   -1.545743  -0.002351   0.091668
| 20> 		H    0.557892   1.599608  -0.202254
| 21> 		H    2.041597  -1.249915  -0.058247
| 22> 		H    2.786078   0.567482   0.134141
| 23> *
| 24>
| 25>                          ****END OF INPUT****

CARTESIAN COORDINATES (ANGSTROEM)
---------------------------------
  C     -0.595760   -0.456814    0.041562
  O     -0.585124   -1.623054   -0.020575
  C      0.661144    0.420092   -0.024444
  C      1.818702   -0.122927    0.012992
  H     -1.545743   -0.002351    0.091668
  H      0.557892    1.599608   -0.202254
  H      2.041597   -1.249915   -0.058247
  H      2.786078    0.567482    0.134141

 Total Charge           Charge          ....    0
 Multiplicity           Mult            ....    1
 Number of Electrons    NEL             ....   30
 Basis Dimension        Dim             ....   76

ORBITAL ENERGIES
----------------

  NO   OCC          E(Eh)            E(eV)
   0   2.0000     -19.138302      -520.7797
   1   2.0000     -10.270357      -279.4706
   2   2.0000     -10.213604      -277.9263
   3   2.0000     -10.205628      -277.7093
   4   2.0000      -1.072454       -29.1830
   5   2.0000      -0.793866       -21.6022
   6   2.0000      -0.639720       -17.4077
   7   2.0000      -0.538158       -14.6440
   8   2.0000      -0.502131       -13.6637
   9   2.0000      -0.449205       -12.2235
  10   2.0000      -0.424538       -11.5523
  11   2.0000      -0.411094       -11.1864
  12   2.0000      -0.364295        -9.9130
  13   2.0000      -0.292776        -7.9669
  14   2.0000      -0.253598        -6.9008
  15   0.0000      -0.053810        -1.4642
  16   0.0000       0.045883         1.2485
  17   0.0000       0.071236         1.9384
  18   0.0000       0.084746         2.3061
  19   0.0000       0.116641         3.1740

MULLIKEN ATOMIC CHARGES
-----------------------
   0 C :    0.210454
   1 O :   -0.153867
   2 C :   -0.155888
   3 C :    0.016888
   4 H :   -0.040080
   5 H :    0.023213
   6 H :    0.053685
   7 H :    0.045595
Sum of atomic charges:    0.0000000

LOEWDIN ATOMIC CHARGES
----------------------
   0 C :   -0.043203
   1 O :    0.039999
   2 C :   -0.106770
   3 C :   -0.012673
   4 H :   -0.017475
   5 H :    0.047008
   6 H :    0.044727
   7 H :    0.048387

  Mayer bond orders larger than 0.100000
B(  0-C ,  1-O ) :   2.2533 B(  0-C ,  2-C ) :   0.9884 B(  0-C ,  4-H ) :   0.9285
B(  2-C ,  3-C ) :   1.9992 B(  2-C ,  5-H ) :   0.9273 B(  3-C ,  6-H ) :   0.9300
B(  3-C ,  7-H ) :   0.9329

-----------------------------------------------------------------------------
         ABSORPTION SPECTRUM VIA TRANSITION ELECTRIC DIPOLE MOMENTS
-----------------------------------------------------------------------------
State   Energy    Wavelength  fosc         T2        TX        TY        TZ
        (cm-1)      (nm)                 (au**2)    (au)      (au)      (au)
-----------------------------------------------------------------------------
   1   30803.3    324.6   0.000100864   0.00108   0.01217   0.00963  -0.02894

FINAL SINGLE POINT ENERGY      -191.640871877579

DIPOLE MOMENT
-------------
                                X             Y             Z
Electronic contribution:     -2.16538      -1.86578       0.04048
Nuclear contribution   :      2.44205       2.64615      -0.03268
                        -----------------------------------------
Total Dipole Moment    :      0.27667       0.78037       0.00780
                        -----------------------------------------
Magnitude (a.u.)       :      0.82800
Magnitude (Debye)      :      2.10461

Rotational constants in cm-1:     0.791972     0.206529     0.164155
Rotational constants in MHz : 23742.712378  6191.586843  4921.251490

                             ****ORCA TERMINATED NORMALLY****
TOTAL RUN TIME: 0 days 0 hours 3 minutes 14 seconds 40 msec
