                         Program Version 5.0.3 -  RELEASE  -
|  1> ! B3LYP cc-pVDZ
|  2> !TightSCF
|  3> %scf
|  4>  ConvForced true
|  5>  convergence tight
|  6>  MaxIter 500
|  7> end
|  8>
|  9> %tddft
| 10>  nroots 1
| 11> end
| 12>
| 13> # 	17480
| 14> * xyz 0 1
| 15> 		C   -1.166135  -0.306945   0.009571
| 16> 		O   -1.180454  -1.529890  -0.030623
| 17> 		C    0.034697   0.652615  -0.034084
| 18> 		C    1.256279   0.019053   0.001416
| 19> 		H   -2.143719   0.220660   0.289581
| 20> 		H   -0.235094   1.769217  -0.148712
| 21> 		H    1.097123  -1.201089   0.145373
| 22> 		H    2.357733   0.428194  -0.159074
| 23> *
| 24>
| 25>                          ****END OF INPUT****

CARTESIAN COORDINATES (ANGSTROEM)
---------------------------------
  C     -1.166135   -0.306945    0.009571
  O     -1.180454   -1.529890   -0.030623
  C      0.034697    0.652615   -0.034084
  C      1.256279    0.019053    0.001416
  H     -2.143719    0.220660    0.289581
  H     -0.235094    1.769217   -0.148712
  H      1.097123   -1.201089    0.145373
  H      2.357733    0.428194   -0.159074

 Total Charge           Charge          ....    0
 Multiplicity           Mult            ....    1
 Number of Electrons    NEL             ....   30
 Basis Dimension        Dim             ....   76

ORBITAL ENERGIES
----------------

  NO   OCC          E(Eh)            E(eV)
   0   2.0000     -19.145236      -520.9684
   1   2.0000     -10.283948      -279.8404
   2   2.0000     -10.238658      -278.6080
   3   2.0000     -10.223658      -278.1999
   4   2.0000      -1.042628       -28.3713
   5   2.0000      -0.780272       -21.2323
   6   2.0000      -0.637696       -17.3526
   7   2.0000      -0.528881       -14.3916
   8   2.0000      -0.492451       -13.4003
   9   2.0000      -0.440250       -11.9798
  10   2.0000      -0.423734       -11.5304
  11   2.0000      -0.391625       -10.6567
  12   2.0000      -0.362154        -9.8547
  13   2.0000      -0.285120        -7.7585
  14   2.0000      -0.258327        -7.0294
  15   0.0000      -0.072467        -1.9719
  16   0.0000       0.042746         1.1632
  17   0.0000       0.060200         1.6381
  18   0.0000       0.066829         1.8185
  19   0.0000       0.109201         2.9715

MULLIKEN ATOMIC CHARGES
-----------------------
   0 C :    0.177231
   1 O :   -0.198809
   2 C :   -0.124102
   3 C :   -0.024459
   4 H :   -0.006248
   5 H :    0.025467
   6 H :    0.082175
   7 H :    0.068745
Sum of atomic charges:    0.0000000

LOEWDIN ATOMIC CHARGES
----------------------
   0 C :   -0.023350
   1 O :   -0.016049
   2 C :   -0.098816
   3 C :   -0.009436
   4 H :   -0.002744
   5 H :    0.040009
   6 H :    0.062231
   7 H :    0.048155

  Mayer bond orders larger than 0.100000
B(  0-C ,  1-O ) :   2.1568 B(  0-C ,  2-C ) :   1.0236 B(  0-C ,  4-H ) :   0.9137
B(  2-C ,  3-C ) :   1.9124 B(  2-C ,  5-H ) :   0.9497 B(  3-C ,  6-H ) :   0.9057
B(  3-C ,  7-H ) :   0.9463

-----------------------------------------------------------------------------
         ABSORPTION SPECTRUM VIA TRANSITION ELECTRIC DIPOLE MOMENTS
-----------------------------------------------------------------------------
State   Energy    Wavelength  fosc         T2        TX        TY        TZ
        (cm-1)      (nm)                 (au**2)    (au)      (au)      (au)
-----------------------------------------------------------------------------
   1   28103.7    355.8   0.000242184   0.00284  -0.02744  -0.00155   0.04562

FINAL SINGLE POINT ENERGY      -191.653943642112

DIPOLE MOMENT
-------------
                                X             Y             Z
Electronic contribution:     -1.69417      -1.50843      -0.15288
Nuclear contribution   :      2.08755       2.38713       0.16181
                        -----------------------------------------
Total Dipole Moment    :      0.39338       0.87870       0.00893
                        -----------------------------------------
Magnitude (a.u.)       :      0.96278
Magnitude (Debye)      :      2.44720

Rotational constants in cm-1:     0.696385     0.203855     0.158202
Rotational constants in MHz : 20877.091935  6111.421325  4742.766111

                             ****ORCA TERMINATED NORMALLY****
TOTAL RUN TIME: 0 days 0 hours 3 minutes 21 seconds 592 msec
