                         Program Version 5.0.3 -  RELEASE  -
|  1> ! B3LYP cc-pVDZ
|  2> !TightSCF
|  3> %scf
|  4>  ConvForced true
|  5>  convergence tight
|  6>  MaxIter 500
|  7> end
|  8>
|  9> %tddft
| 10>  nroots 1
| 11> end
| 12>
| 13> # 	21705
| 14> * xyz 0 1
| 15> 		C   -0.644270  -0.420906  -0.033163
| 16> 		O   -0.540630  -1.674179   0.020277
| 17> 		C    0.609622   0.474375   0.022313
| 18> 		C    1.878391  -0.132432   0.016862
| 19> 		H   -1.654308  -0.000282  -0.095697
| 20> 		H    0.611541   1.675825   0.039689
| 21> 		H    1.813694  -1.288731  -0.245176
| 22> 		H    2.816621   0.357823  -0.090036
| 23> *
| 24>
| 25>                          ****END OF INPUT****

CARTESIAN COORDINATES (ANGSTROEM)
---------------------------------
  C     -0.644270   -0.420906   -0.033163
  O     -0.540630   -1.674179    0.020277
  C      0.609622    0.474375    0.022313
  C      1.878391   -0.132432    0.016862
  H     -1.654308   -0.000282   -0.095697
  H      0.611541    1.675825    0.039689
  H      1.813694   -1.288731   -0.245176
  H      2.816621    0.357823   -0.090036

 Total Charge           Charge          ....    0
 Multiplicity           Mult            ....    1
 Number of Electrons    NEL             ....   30
 Basis Dimension        Dim             ....   76

ORBITAL ENERGIES
----------------

  NO   OCC          E(Eh)            E(eV)
   0   2.0000     -19.141880      -520.8770
   1   2.0000     -10.287774      -279.9446
   2   2.0000     -10.228703      -278.3372
   3   2.0000     -10.223569      -278.1975
   4   2.0000      -1.023722       -27.8569
   5   2.0000      -0.770506       -20.9665
   6   2.0000      -0.646869       -17.6022
   7   2.0000      -0.545786       -14.8516
   8   2.0000      -0.491446       -13.3729
   9   2.0000      -0.432244       -11.7620
  10   2.0000      -0.424391       -11.5483
  11   2.0000      -0.384573       -10.4648
  12   2.0000      -0.361521        -9.8375
  13   2.0000      -0.276803        -7.5322
  14   2.0000      -0.260612        -7.0916
  15   0.0000      -0.079939        -2.1753
  16   0.0000       0.036271         0.9870
  17   0.0000       0.063646         1.7319
  18   0.0000       0.088219         2.4006
  19   0.0000       0.101099         2.7511

MULLIKEN ATOMIC CHARGES
-----------------------
   0 C :    0.213514
   1 O :   -0.228493
   2 C :   -0.163273
   3 C :    0.032746
   4 H :    0.008913
   5 H :    0.030226
   6 H :    0.070498
   7 H :    0.035868
Sum of atomic charges:   -0.0000000

LOEWDIN ATOMIC CHARGES
----------------------
   0 C :    0.006205
   1 O :   -0.048250
   2 C :   -0.091804
   3 C :    0.014045
   4 H :    0.003830
   5 H :    0.043372
   6 H :    0.052603
   7 H :    0.019999

  Mayer bond orders larger than 0.100000
B(  0-C ,  1-O ) :   2.1123 B(  0-C ,  2-C ) :   1.0070 B(  0-C ,  4-H ) :   0.9354
B(  2-C ,  3-C ) :   1.9283 B(  2-C ,  5-H ) :   0.9391 B(  3-C ,  6-H ) :   0.9300
B(  3-C ,  7-H ) :   0.9495

-----------------------------------------------------------------------------
         ABSORPTION SPECTRUM VIA TRANSITION ELECTRIC DIPOLE MOMENTS
-----------------------------------------------------------------------------
State   Energy    Wavelength  fosc         T2        TX        TY        TZ
        (cm-1)      (nm)                 (au**2)    (au)      (au)      (au)
-----------------------------------------------------------------------------
   1   26646.1    375.3   0.000075764   0.00094  -0.02093   0.00850  -0.02063

FINAL SINGLE POINT ENERGY      -191.662409612185

DIPOLE MOMENT
-------------
                                X             Y             Z
Electronic contribution:     -1.92759      -1.56275       0.25096
Nuclear contribution   :      2.20784       2.48710      -0.36689
                        -----------------------------------------
Total Dipole Moment    :      0.28025       0.92434      -0.11593
                        -----------------------------------------
Magnitude (a.u.)       :      0.97282
Magnitude (Debye)      :      2.47272

Rotational constants in cm-1:     0.676370     0.204198     0.157163
Rotational constants in MHz : 20277.067932  6121.694198  4711.632208

                             ****ORCA TERMINATED NORMALLY****
TOTAL RUN TIME: 0 days 0 hours 3 minutes 24 seconds 239 msec
