                         Program Version 5.0.3 -  RELEASE  -
|  1> ! B3LYP cc-pVDZ
|  2> !TightSCF
|  3> %scf
|  4>  ConvForced true
|  5>  convergence tight
|  6>  MaxIter 500
|  7> end
|  8>
|  9> %tddft
| 10>  nroots 1
| 11> end
| 12>
| 13> # 	1794
| 14> * xyz 0 1
| 15> 		C   -1.228815  -0.376301   0.037523
| 16> 		O   -1.755270  -0.926971   1.004122
| 17> 		C    0.025233   0.451619   0.212287
| 18> 		C    1.188965  -0.007405  -0.274696
| 19> 		H   -1.675720  -0.425285  -0.961115
| 20> 		H    0.116076   1.475234   0.751788
| 21> 		H    1.356750  -0.749413  -0.711056
| 22> 		H    1.933850   0.567867  -0.133386
| 23> *
| 24>
| 25>                          ****END OF INPUT****

CARTESIAN COORDINATES (ANGSTROEM)
---------------------------------
  C     -1.228815   -0.376301    0.037523
  O     -1.755270   -0.926971    1.004122
  C      0.025233    0.451619    0.212287
  C      1.188965   -0.007405   -0.274696
  H     -1.675720   -0.425285   -0.961115
  H      0.116076    1.475234    0.751788
  H      1.356750   -0.749413   -0.711056
  H      1.933850    0.567867   -0.133386

 Total Charge           Charge          ....    0
 Multiplicity           Mult            ....    1
 Number of Electrons    NEL             ....   30
 Basis Dimension        Dim             ....   76

ORBITAL ENERGIES
----------------

  NO   OCC          E(Eh)            E(eV)
   0   2.0000     -19.145310      -520.9704
   1   2.0000     -10.284942      -279.8675
   2   2.0000     -10.213409      -277.9210
   3   2.0000     -10.170523      -276.7540
   4   2.0000      -1.040398       -28.3107
   5   2.0000      -0.801865       -21.8198
   6   2.0000      -0.663780       -18.0624
   7   2.0000      -0.577621       -15.7179
   8   2.0000      -0.506177       -13.7738
   9   2.0000      -0.461092       -12.5469
  10   2.0000      -0.436763       -11.8849
  11   2.0000      -0.404385       -11.0039
  12   2.0000      -0.369570       -10.0565
  13   2.0000      -0.285825        -7.7777
  14   2.0000      -0.256956        -6.9921
  15   0.0000      -0.049175        -1.3381
  16   0.0000      -0.001878        -0.0511
  17   0.0000       0.080958         2.2030
  18   0.0000       0.095327         2.5940
  19   0.0000       0.124561         3.3895

MULLIKEN ATOMIC CHARGES
-----------------------
   0 C :    0.195438
   1 O :   -0.196778
   2 C :   -0.164927
   3 C :    0.268003
   4 H :    0.006136
   5 H :    0.035410
   6 H :   -0.108125
   7 H :   -0.035158
Sum of atomic charges:    0.0000000

LOEWDIN ATOMIC CHARGES
----------------------
   0 C :   -0.003373
   1 O :   -0.007924
   2 C :   -0.036688
   3 C :    0.038781
   4 H :   -0.000680
   5 H :    0.054949
   6 H :   -0.047424
   7 H :    0.002358

  Mayer bond orders larger than 0.100000
B(  0-C ,  1-O ) :   2.1955 B(  0-C ,  2-C ) :   0.9705 B(  0-C ,  4-H ) :   0.9235
B(  2-C ,  3-C ) :   2.0456 B(  2-C ,  5-H ) :   0.9298 B(  3-C ,  6-H ) :   0.9462
B(  3-C ,  7-H ) :   0.9363

-----------------------------------------------------------------------------
         ABSORPTION SPECTRUM VIA TRANSITION ELECTRIC DIPOLE MOMENTS
-----------------------------------------------------------------------------
State   Energy    Wavelength  fosc         T2        TX        TY        TZ
        (cm-1)      (nm)                 (au**2)    (au)      (au)      (au)
-----------------------------------------------------------------------------
   1   30828.1    324.4   0.001508783   0.01611  -0.12124  -0.03613   0.01037

FINAL SINGLE POINT ENERGY      -191.586151447507

DIPOLE MOMENT
-------------
                                X             Y             Z
Electronic contribution:     -2.81000      -1.20373       1.29379
Nuclear contribution   :      3.37968       1.68398      -1.96187
                        -----------------------------------------
Total Dipole Moment    :      0.56967       0.48026      -0.66808
                        -----------------------------------------
Magnitude (a.u.)       :      1.00075
Magnitude (Debye)      :      2.54370

Rotational constants in cm-1:     1.076008     0.159853     0.157140
Rotational constants in MHz : 32257.898627  4792.271433  4710.951081

                             ****ORCA TERMINATED NORMALLY****
TOTAL RUN TIME: 0 days 0 hours 3 minutes 23 seconds 355 msec
