                         Program Version 5.0.3 -  RELEASE  -
|  1> ! B3LYP cc-pVDZ
|  2> !TightSCF
|  3> %scf
|  4>  ConvForced true
|  5>  convergence tight
|  6>  MaxIter 500
|  7> end
|  8>
|  9> %tddft
| 10>  nroots 1
| 11> end
| 12>
| 13> # 	20030
| 14> * xyz 0 1
| 15> 		C   -0.577075  -0.465155  -0.014001
| 16> 		O   -0.573652  -1.646119   0.000317
| 17> 		C    0.640582   0.461939  -0.032411
| 18> 		C    1.813176  -0.137957   0.027570
| 19> 		H   -1.467124   0.272565   0.204922
| 20> 		H    0.607993   1.510190   0.084044
| 21> 		H    1.842458  -1.265644  -0.011268
| 22> 		H    2.755081   0.544547  -0.060684
| 23> *
| 24>
| 25>                          ****END OF INPUT****

CARTESIAN COORDINATES (ANGSTROEM)
---------------------------------
  C     -0.577075   -0.465155   -0.014001
  O     -0.573652   -1.646119    0.000317
  C      0.640582    0.461939   -0.032411
  C      1.813176   -0.137957    0.027570
  H     -1.467124    0.272565    0.204922
  H      0.607993    1.510190    0.084044
  H      1.842458   -1.265644   -0.011268
  H      2.755081    0.544547   -0.060684

 Total Charge           Charge          ....    0
 Multiplicity           Mult            ....    1
 Number of Electrons    NEL             ....   30
 Basis Dimension        Dim             ....   76

ORBITAL ENERGIES
----------------

  NO   OCC          E(Eh)            E(eV)
   0   2.0000     -19.151726      -521.1450
   1   2.0000     -10.285684      -279.8877
   2   2.0000     -10.213842      -277.9328
   3   2.0000     -10.195730      -277.4399
   4   2.0000      -1.071004       -29.1435
   5   2.0000      -0.795454       -21.6454
   6   2.0000      -0.640189       -17.4204
   7   2.0000      -0.538723       -14.6594
   8   2.0000      -0.501072       -13.6349
   9   2.0000      -0.456045       -12.4096
  10   2.0000      -0.415789       -11.3142
  11   2.0000      -0.408099       -11.1049
  12   2.0000      -0.381945       -10.3932
  13   2.0000      -0.292070        -7.9476
  14   2.0000      -0.257794        -7.0149
  15   0.0000      -0.062500        -1.7007
  16   0.0000       0.055691         1.5154
  17   0.0000       0.063735         1.7343
  18   0.0000       0.082082         2.2336
  19   0.0000       0.123821         3.3693

MULLIKEN ATOMIC CHARGES
-----------------------
   0 C :    0.174706
   1 O :   -0.156056
   2 C :   -0.098859
   3 C :    0.025497
   4 H :   -0.018872
   5 H :   -0.018900
   6 H :    0.049697
   7 H :    0.042787
Sum of atomic charges:    0.0000000

LOEWDIN ATOMIC CHARGES
----------------------
   0 C :   -0.044750
   1 O :    0.033727
   2 C :   -0.091972
   3 C :    0.007747
   4 H :   -0.009660
   5 H :    0.020747
   6 H :    0.039364
   7 H :    0.044797

  Mayer bond orders larger than 0.100000
B(  0-C ,  1-O ) :   2.2318 B(  0-C ,  2-C ) :   1.0072 B(  0-C ,  4-H ) :   0.8968
B(  2-C ,  3-C ) :   1.9798 B(  2-C ,  5-H ) :   0.9466 B(  3-C ,  6-H ) :   0.9253
B(  3-C ,  7-H ) :   0.9383

-----------------------------------------------------------------------------
         ABSORPTION SPECTRUM VIA TRANSITION ELECTRIC DIPOLE MOMENTS
-----------------------------------------------------------------------------
State   Energy    Wavelength  fosc         T2        TX        TY        TZ
        (cm-1)      (nm)                 (au**2)    (au)      (au)      (au)
-----------------------------------------------------------------------------
   1   30220.4    330.9   0.000346982   0.00378   0.03031   0.01751   0.05055

FINAL SINGLE POINT ENERGY      -191.652641724398

DIPOLE MOMENT
-------------
                                X             Y             Z
Electronic contribution:     -1.97254      -1.96227      -0.19501
Nuclear contribution   :      2.34758       2.78350       0.20377
                        -----------------------------------------
Total Dipole Moment    :      0.37504       0.82124       0.00876
                        -----------------------------------------
Magnitude (a.u.)       :      0.90286
Magnitude (Debye)      :      2.29490

Rotational constants in cm-1:     0.760485     0.210422     0.165068
Rotational constants in MHz : 22798.764612  6308.298968  4948.606241

                             ****ORCA TERMINATED NORMALLY****
TOTAL RUN TIME: 0 days 0 hours 3 minutes 18 seconds 769 msec
