                         Program Version 5.0.3 -  RELEASE  -
|  1> ! B3LYP cc-pVDZ
|  2> !TightSCF
|  3> %scf
|  4>  ConvForced true
|  5>  convergence tight
|  6>  MaxIter 500
|  7> end
|  8>
|  9> %tddft
| 10>  nroots 1
| 11> end
| 12>
| 13> # 	28865
| 14> * xyz 0 1
| 15> 		C   -0.593043  -0.428594   0.032096
| 16> 		O   -0.592340  -1.662690  -0.007396
| 17> 		C    0.631683   0.422859  -0.030944
| 18> 		C    1.879029  -0.107745   0.007877
| 19> 		H   -1.570801   0.174222   0.029110
| 20> 		H    0.462896   1.420098  -0.086329
| 21> 		H    1.900430  -1.145508  -0.152528
| 22> 		H    2.708128   0.539902   0.229686
| 23> *
| 24>
| 25>                          ****END OF INPUT****

CARTESIAN COORDINATES (ANGSTROEM)
---------------------------------
  C     -0.593043   -0.428594    0.032096
  O     -0.592340   -1.662690   -0.007396
  C      0.631683    0.422859   -0.030944
  C      1.879029   -0.107745    0.007877
  H     -1.570801    0.174222    0.029110
  H      0.462896    1.420098   -0.086329
  H      1.900430   -1.145508   -0.152528
  H      2.708128    0.539902    0.229686

 Total Charge           Charge          ....    0
 Multiplicity           Mult            ....    1
 Number of Electrons    NEL             ....   30
 Basis Dimension        Dim             ....   76

ORBITAL ENERGIES
----------------

  NO   OCC          E(Eh)            E(eV)
   0   2.0000     -19.139993      -520.8257
   1   2.0000     -10.279842      -279.7287
   2   2.0000     -10.211851      -277.8786
   3   2.0000     -10.199988      -277.5558
   4   2.0000      -1.032789       -28.1036
   5   2.0000      -0.796431       -21.6720
   6   2.0000      -0.660322       -17.9683
   7   2.0000      -0.546156       -14.8617
   8   2.0000      -0.510747       -13.8981
   9   2.0000      -0.444057       -12.0834
  10   2.0000      -0.423631       -11.5276
  11   2.0000      -0.399391       -10.8680
  12   2.0000      -0.387055       -10.5323
  13   2.0000      -0.282426        -7.6852
  14   2.0000      -0.256097        -6.9688
  15   0.0000      -0.076580        -2.0838
  16   0.0000       0.051564         1.4031
  17   0.0000       0.072821         1.9816
  18   0.0000       0.092929         2.5287
  19   0.0000       0.130465         3.5501

MULLIKEN ATOMIC CHARGES
-----------------------
   0 C :    0.168583
   1 O :   -0.210129
   2 C :   -0.085783
   3 C :    0.124252
   4 H :   -0.007685
   5 H :   -0.045057
   6 H :    0.022627
   7 H :    0.033192
Sum of atomic charges:   -0.0000000

LOEWDIN ATOMIC CHARGES
----------------------
   0 C :   -0.020072
   1 O :   -0.028878
   2 C :   -0.062594
   3 C :    0.049210
   4 H :    0.000833
   5 H :    0.004560
   6 H :    0.024534
   7 H :    0.032407

  Mayer bond orders larger than 0.100000
B(  0-C ,  1-O ) :   2.1536 B(  0-C ,  2-C ) :   1.0687 B(  0-C ,  4-H ) :   0.9091
B(  2-C ,  3-C ) :   1.9569 B(  2-C ,  5-H ) :   0.9527 B(  3-C ,  6-H ) :   0.9271
B(  3-C ,  7-H ) :   0.9439

-----------------------------------------------------------------------------
         ABSORPTION SPECTRUM VIA TRANSITION ELECTRIC DIPOLE MOMENTS
-----------------------------------------------------------------------------
State   Energy    Wavelength  fosc         T2        TX        TY        TZ
        (cm-1)      (nm)                 (au**2)    (au)      (au)      (au)
-----------------------------------------------------------------------------
   1   26705.2    374.5   0.000088700   0.00109  -0.01127   0.00816  -0.03000

FINAL SINGLE POINT ENERGY      -191.674719581252

DIPOLE MOMENT
-------------
                                X             Y             Z
Electronic contribution:     -1.70238      -1.76761       0.00254
Nuclear contribution   :      2.12736       2.71523       0.01791
                        -----------------------------------------
Total Dipole Moment    :      0.42498       0.94762       0.02045
                        -----------------------------------------
Magnitude (a.u.)       :      1.03875
Magnitude (Debye)      :      2.64030

Rotational constants in cm-1:     0.759723     0.203028     0.160550
Rotational constants in MHz : 22775.931214  6086.628623  4813.162899

                             ****ORCA TERMINATED NORMALLY****
TOTAL RUN TIME: 0 days 0 hours 3 minutes 22 seconds 662 msec
