                         Program Version 5.0.3 -  RELEASE  -
|  1> ! B3LYP cc-pVDZ
|  2> !TightSCF
|  3> %scf
|  4>  ConvForced true
|  5>  convergence tight
|  6>  MaxIter 500
|  7> end
|  8>
|  9> %tddft
| 10>  nroots 1
| 11> end
| 12>
| 13> # 	26828
| 14> * xyz 0 1
| 15> 		C   -0.603536  -0.436041  -0.020281
| 16> 		O   -0.574100  -1.631729   0.012136
| 17> 		C    0.643112   0.433396   0.028811
| 18> 		C    1.860690  -0.135918  -0.014255
| 19> 		H   -1.595131   0.001572  -0.154869
| 20> 		H    0.452002   1.424952   0.104303
| 21> 		H    1.807430  -1.150836   0.041999
| 22> 		H    2.746619   0.495463  -0.115614
| 23> *
| 24>
| 25>                          ****END OF INPUT****

CARTESIAN COORDINATES (ANGSTROEM)
---------------------------------
  C     -0.603536   -0.436041   -0.020281
  O     -0.574100   -1.631729    0.012136
  C      0.643112    0.433396    0.028811
  C      1.860690   -0.135918   -0.014255
  H     -1.595131    0.001572   -0.154869
  H      0.452002    1.424952    0.104303
  H      1.807430   -1.150836    0.041999
  H      2.746619    0.495463   -0.115614

 Total Charge           Charge          ....    0
 Multiplicity           Mult            ....    1
 Number of Electrons    NEL             ....   30
 Basis Dimension        Dim             ....   76

ORBITAL ENERGIES
----------------

  NO   OCC          E(Eh)            E(eV)
   0   2.0000     -19.135630      -520.7070
   1   2.0000     -10.271524      -279.5024
   2   2.0000     -10.204624      -277.6819
   3   2.0000     -10.197687      -277.4932
   4   2.0000      -1.053596       -28.6698
   5   2.0000      -0.793868       -21.6022
   6   2.0000      -0.652955       -17.7678
   7   2.0000      -0.550760       -14.9869
   8   2.0000      -0.516950       -14.0669
   9   2.0000      -0.445089       -12.1115
  10   2.0000      -0.428804       -11.6684
  11   2.0000      -0.402264       -10.9462
  12   2.0000      -0.391538       -10.6543
  13   2.0000      -0.284891        -7.7523
  14   2.0000      -0.253214        -6.8903
  15   0.0000      -0.064723        -1.7612
  16   0.0000       0.055458         1.5091
  17   0.0000       0.078018         2.1230
  18   0.0000       0.100826         2.7436
  19   0.0000       0.129241         3.5168

MULLIKEN ATOMIC CHARGES
-----------------------
   0 C :    0.175903
   1 O :   -0.184387
   2 C :   -0.099048
   3 C :    0.144304
   4 H :   -0.022327
   5 H :   -0.049518
   6 H :    0.000105
   7 H :    0.034967
Sum of atomic charges:    0.0000000

LOEWDIN ATOMIC CHARGES
----------------------
   0 C :   -0.032128
   1 O :    0.004920
   2 C :   -0.057252
   3 C :    0.041490
   4 H :   -0.006660
   5 H :    0.001237
   6 H :    0.011436
   7 H :    0.036958

  Mayer bond orders larger than 0.100000
B(  0-C ,  1-O ) :   2.1886 B(  0-C ,  2-C ) :   1.0295 B(  0-C ,  4-H ) :   0.9266
B(  2-C ,  3-C ) :   1.9802 B(  2-C ,  5-H ) :   0.9577 B(  3-C ,  6-H ) :   0.9152
B(  3-C ,  7-H ) :   0.9459

-----------------------------------------------------------------------------
         ABSORPTION SPECTRUM VIA TRANSITION ELECTRIC DIPOLE MOMENTS
-----------------------------------------------------------------------------
State   Energy    Wavelength  fosc         T2        TX        TY        TZ
        (cm-1)      (nm)                 (au**2)    (au)      (au)      (au)
-----------------------------------------------------------------------------
   1   28500.8    350.9   0.000073729   0.00085  -0.00950  -0.00087  -0.02758

FINAL SINGLE POINT ENERGY      -191.663991305745

DIPOLE MOMENT
-------------
                                X             Y             Z
Electronic contribution:     -1.73973      -1.62992       0.09045
Nuclear contribution   :      2.04396       2.51327      -0.11634
                        -----------------------------------------
Total Dipole Moment    :      0.30423       0.88335      -0.02589
                        -----------------------------------------
Magnitude (a.u.)       :      0.93463
Magnitude (Debye)      :      2.37564

Rotational constants in cm-1:     0.778964     0.207715     0.164211
Rotational constants in MHz : 23352.758538  6227.126468  4922.912087

                             ****ORCA TERMINATED NORMALLY****
TOTAL RUN TIME: 0 days 0 hours 3 minutes 22 seconds 191 msec
