                         Program Version 5.0.3 -  RELEASE  -
|  1> ! HF-3c
|  2> !TightSCF
|  3> %scf
|  4>  ConvForced true
|  5>  convergence tight
|  6>  MaxIter 500
|  7> end
|  8>
|  9> %tddft
| 10>  nroots 1
| 11> end
| 12>
| 13> # 	13283
| 14> * xyz 0 1
| 15> 		C   -1.182168  -0.285072   0.070721
| 16> 		O   -1.335855  -1.387700   0.457131
| 17> 		C    0.013241   0.463314   0.192362
| 18> 		C    1.217121   0.032543  -0.016065
| 19> 		H   -2.007931   0.101152  -0.603500
| 20> 		H   -0.243639   1.557224   0.287802
| 21> 		H    1.519212  -1.039867  -0.288423
| 22> 		H    2.070779   0.566239  -0.123955
| 23> *
| 24>
| 25>                          ****END OF INPUT****

CARTESIAN COORDINATES (ANGSTROEM)
---------------------------------
  C     -1.182168   -0.285072    0.070721
  O     -1.335855   -1.387700    0.457131
  C      0.013241    0.463314    0.192362
  C      1.217121    0.032543   -0.016065
  H     -2.007931    0.101152   -0.603500
  H     -0.243639    1.557224    0.287802
  H      1.519212   -1.039867   -0.288423
  H      2.070779    0.566239   -0.123955

 Total Charge           Charge          ....    0
 Multiplicity           Mult            ....    1
 Number of Electrons    NEL             ....   30
 Basis Dimension        Dim             ....   24

ORBITAL ENERGIES
----------------

  NO   OCC          E(Eh)            E(eV)
   0   2.0000     -20.369563      -554.2840
   1   2.0000     -11.302554      -307.5581
   2   2.0000     -11.200838      -304.7903
   3   2.0000     -11.196941      -304.6842
   4   2.0000      -1.426265       -38.8106
   5   2.0000      -1.096036       -29.8247
   6   2.0000      -0.908801       -24.7297
   7   2.0000      -0.756148       -20.5758
   8   2.0000      -0.700221       -19.0540
   9   2.0000      -0.654245       -17.8029
  10   2.0000      -0.608830       -16.5671
  11   2.0000      -0.544542       -14.8177
  12   2.0000      -0.510346       -13.8872
  13   2.0000      -0.413798       -11.2600
  14   2.0000      -0.407494       -11.0885
  15   0.0000       0.152619         4.1530
  16   0.0000       0.287277         7.8172
  17   0.0000       0.508562        13.8387
  18   0.0000       0.634719        17.2716
  19   0.0000       0.686986        18.6938

MULLIKEN ATOMIC CHARGES
-----------------------
   0 C :    0.168169
   1 O :   -0.351793
   2 C :   -0.175168
   3 C :   -0.225971
   4 H :    0.137554
   5 H :    0.149651
   6 H :    0.153719
   7 H :    0.143839
Sum of atomic charges:    0.0000000

LOEWDIN ATOMIC CHARGES
----------------------
   0 C :    0.139755
   1 O :   -0.248678
   2 C :   -0.130130
   3 C :   -0.128519
   4 H :    0.075545
   5 H :    0.100280
   6 H :    0.104944
   7 H :    0.086804

  Mayer bond orders larger than 0.100000
B(  0-C ,  1-O ) :   1.9105 B(  0-C ,  2-C ) :   1.0309 B(  0-C ,  4-H ) :   0.9158
B(  2-C ,  3-C ) :   1.9642 B(  2-C ,  5-H ) :   0.9448 B(  3-C ,  6-H ) :   0.9569
B(  3-C ,  7-H ) :   0.9651

-----------------------------------------------------------------------------
         ABSORPTION SPECTRUM VIA TRANSITION ELECTRIC DIPOLE MOMENTS
-----------------------------------------------------------------------------
State   Energy    Wavelength  fosc         T2        TX        TY        TZ
        (cm-1)      (nm)                 (au**2)    (au)      (au)      (au)
-----------------------------------------------------------------------------
   1   34227.3    292.2   0.000035084   0.00034  -0.01113  -0.01085   0.00979

Dispersion correction           -0.025637225
FINAL SINGLE POINT ENERGY      -189.307208175381

DIPOLE MOMENT
-------------
                                X             Y             Z
Electronic contribution:     -2.16633      -1.50353       0.88133
Nuclear contribution   :      2.54258       2.33255      -1.31784
                        -----------------------------------------
Total Dipole Moment    :      0.37625       0.82902      -0.43650
                        -----------------------------------------
Magnitude (a.u.)       :      1.00964
Magnitude (Debye)      :      2.56631

Rotational constants in cm-1:     0.870291     0.199843     0.167809
Rotational constants in MHz : 26090.681862  5991.151268  5030.786284

                             ****ORCA TERMINATED NORMALLY****
TOTAL RUN TIME: 0 days 0 hours 0 minutes 10 seconds 61 msec
