                         Program Version 5.0.3 -  RELEASE  -
|  1> ! B3LYP cc-pVDZ
|  2> !TightSCF
|  3> %scf
|  4>  ConvForced true
|  5>  convergence tight
|  6>  MaxIter 500
|  7> end
|  8>
|  9> %tddft
| 10>  nroots 1
| 11> end
| 12>
| 13> # 	12047
| 14> * xyz 0 1
| 15> 		C   -1.205793  -0.356581   0.037476
| 16> 		O   -1.530377  -1.366658  -0.604839
| 17> 		C    0.033521   0.468007  -0.236610
| 18> 		C    1.261898   0.083315   0.091410
| 19> 		H   -1.858498   0.035415   0.904940
| 20> 		H   -0.253028   1.416397  -0.650313
| 21> 		H    1.356396  -0.931007   0.544758
| 22> 		H    2.141779   0.715374  -0.156267
| 23> *
| 24>
| 25>                          ****END OF INPUT****

CARTESIAN COORDINATES (ANGSTROEM)
---------------------------------
  C     -1.205793   -0.356581    0.037476
  O     -1.530377   -1.366658   -0.604839
  C      0.033521    0.468007   -0.236610
  C      1.261898    0.083315    0.091410
  H     -1.858498    0.035415    0.904940
  H     -0.253028    1.416397   -0.650313
  H      1.356396   -0.931007    0.544758
  H      2.141779    0.715374   -0.156267

 Total Charge           Charge          ....    0
 Multiplicity           Mult            ....    1
 Number of Electrons    NEL             ....   30
 Basis Dimension        Dim             ....   76

ORBITAL ENERGIES
----------------

  NO   OCC          E(Eh)            E(eV)
   0   2.0000     -19.148105      -521.0464
   1   2.0000     -10.288565      -279.9661
   2   2.0000     -10.211097      -277.8581
   3   2.0000     -10.208083      -277.7761
   4   2.0000      -1.035636       -28.1811
   5   2.0000      -0.795001       -21.6331
   6   2.0000      -0.651630       -17.7318
   7   2.0000      -0.548647       -14.9294
   8   2.0000      -0.493409       -13.4263
   9   2.0000      -0.450467       -12.2578
  10   2.0000      -0.440412       -11.9842
  11   2.0000      -0.389682       -10.6038
  12   2.0000      -0.370135       -10.0719
  13   2.0000      -0.289087        -7.8665
  14   2.0000      -0.256497        -6.9796
  15   0.0000      -0.043538        -1.1847
  16   0.0000      -0.004545        -0.1237
  17   0.0000       0.075745         2.0611
  18   0.0000       0.086853         2.3634
  19   0.0000       0.099687         2.7126

MULLIKEN ATOMIC CHARGES
-----------------------
   0 C :    0.144268
   1 O :   -0.200095
   2 C :   -0.067376
   3 C :    0.033542
   4 H :    0.007499
   5 H :    0.007891
   6 H :    0.033977
   7 H :    0.040295
Sum of atomic charges:   -0.0000000

LOEWDIN ATOMIC CHARGES
----------------------
   0 C :   -0.001886
   1 O :   -0.019550
   2 C :   -0.059615
   3 C :   -0.027826
   4 H :    0.002590
   5 H :    0.030198
   6 H :    0.038018
   7 H :    0.038071

  Mayer bond orders larger than 0.100000
B(  0-C ,  1-O ) :   2.1978 B(  0-C ,  2-C ) :   0.9858 B(  0-C ,  4-H ) :   0.9031
B(  2-C ,  3-C ) :   2.0353 B(  2-C ,  5-H ) :   0.9369 B(  3-C ,  6-H ) :   0.9343
B(  3-C ,  7-H ) :   0.9420

-----------------------------------------------------------------------------
         ABSORPTION SPECTRUM VIA TRANSITION ELECTRIC DIPOLE MOMENTS
-----------------------------------------------------------------------------
State   Energy    Wavelength  fosc         T2        TX        TY        TZ
        (cm-1)      (nm)                 (au**2)    (au)      (au)      (au)
-----------------------------------------------------------------------------
   1   31529.4    317.2   0.000072249   0.00075  -0.02149   0.00700  -0.01561

FINAL SINGLE POINT ENERGY      -191.651554983251

DIPOLE MOMENT
-------------
                                X             Y             Z
Electronic contribution:     -2.31891      -1.57845      -0.89020
Nuclear contribution   :      2.75738       2.36796       1.28808
                        -----------------------------------------
Total Dipole Moment    :      0.43847       0.78951       0.39788
                        -----------------------------------------
Magnitude (a.u.)       :      0.98686
Magnitude (Debye)      :      2.50840

Rotational constants in cm-1:     0.902908     0.170114     0.154749
Rotational constants in MHz : 27068.489000  5099.901408  4639.266083

                             ****ORCA TERMINATED NORMALLY****
TOTAL RUN TIME: 0 days 0 hours 3 minutes 18 seconds 317 msec
