                         Program Version 5.0.3 -  RELEASE  -
|  1> ! HF-3c
|  2> !TightSCF
|  3> %scf
|  4>  ConvForced true
|  5>  convergence tight
|  6>  MaxIter 500
|  7> end
|  8>
|  9> %tddft
| 10>  nroots 1
| 11> end
| 12>
| 13> # 	31980
| 14> * xyz 0 1
| 15> 		C   -0.560683  -0.398573  -0.050686
| 16> 		O   -0.579843  -1.655695   0.018184
| 17> 		C    0.622627   0.443404   0.073766
| 18> 		C    1.829877  -0.153071  -0.034930
| 19> 		H   -1.447917   0.091519  -0.047047
| 20> 		H    0.342950   1.404374  -0.119337
| 21> 		H    1.931655  -1.211736   0.012139
| 22> 		H    2.785294   0.540710   0.002961
| 23> *
| 24>
| 25>                          ****END OF INPUT****

CARTESIAN COORDINATES (ANGSTROEM)
---------------------------------
  C     -0.560683   -0.398573   -0.050686
  O     -0.579843   -1.655695    0.018184
  C      0.622627    0.443404    0.073766
  C      1.829877   -0.153071   -0.034930
  H     -1.447917    0.091519   -0.047047
  H      0.342950    1.404374   -0.119337
  H      1.931655   -1.211736    0.012139
  H      2.785294    0.540710    0.002961

 Total Charge           Charge          ....    0
 Multiplicity           Mult            ....    1
 Number of Electrons    NEL             ....   30
 Basis Dimension        Dim             ....   24

ORBITAL ENERGIES
----------------

  NO   OCC          E(Eh)            E(eV)
   0   2.0000     -20.344162      -553.5928
   1   2.0000     -11.278382      -306.9004
   2   2.0000     -11.202855      -304.8452
   3   2.0000     -11.189428      -304.4798
   4   2.0000      -1.362900       -37.0864
   5   2.0000      -1.084647       -29.5147
   6   2.0000      -0.908779       -24.7291
   7   2.0000      -0.761537       -20.7225
   8   2.0000      -0.701708       -19.0944
   9   2.0000      -0.621523       -16.9125
  10   2.0000      -0.574513       -15.6333
  11   2.0000      -0.537731       -14.6324
  12   2.0000      -0.521247       -14.1838
  13   2.0000      -0.415661       -11.3107
  14   2.0000      -0.385186       -10.4814
  15   0.0000       0.116276         3.1640
  16   0.0000       0.291755         7.9391
  17   0.0000       0.535941        14.5837
  18   0.0000       0.612001        16.6534
  19   0.0000       0.695488        18.9252

MULLIKEN ATOMIC CHARGES
-----------------------
   0 C :    0.134776
   1 O :   -0.346350
   2 C :   -0.197623
   3 C :   -0.187886
   4 H :    0.134820
   5 H :    0.144940
   6 H :    0.165062
   7 H :    0.152260
Sum of atomic charges:   -0.0000000

LOEWDIN ATOMIC CHARGES
----------------------
   0 C :    0.135900
   1 O :   -0.268022
   2 C :   -0.147405
   3 C :   -0.088370
   4 H :    0.065888
   5 H :    0.087909
   6 H :    0.106784
   7 H :    0.107317

  Mayer bond orders larger than 0.100000
B(  0-C ,  1-O ) :   1.8824 B(  0-C ,  2-C ) :   1.0514 B(  0-C ,  4-H ) :   0.9423
B(  2-C ,  3-C ) :   1.9169 B(  2-C ,  5-H ) :   0.9616 B(  3-C ,  6-H ) :   0.9580
B(  3-C ,  7-H ) :   0.9607

-----------------------------------------------------------------------------
         ABSORPTION SPECTRUM VIA TRANSITION ELECTRIC DIPOLE MOMENTS
-----------------------------------------------------------------------------
State   Energy    Wavelength  fosc         T2        TX        TY        TZ
        (cm-1)      (nm)                 (au**2)    (au)      (au)      (au)
-----------------------------------------------------------------------------
   1   29175.5    342.8   0.000193316   0.00218   0.04523   0.00321  -0.01119

Dispersion correction           -0.026113435
FINAL SINGLE POINT ENERGY      -189.329573393754

DIPOLE MOMENT
-------------
                                X             Y             Z
Electronic contribution:     -1.75706      -1.63261       0.05891
Nuclear contribution   :      2.23188       2.56096      -0.14140
                        -----------------------------------------
Total Dipole Moment    :      0.47482       0.92835      -0.08249
                        -----------------------------------------
Magnitude (a.u.)       :      1.04599
Magnitude (Debye)      :      2.65870

Rotational constants in cm-1:     0.739443     0.212525     0.165510
Rotational constants in MHz : 22167.938574  6371.330956  4961.857958

                             ****ORCA TERMINATED NORMALLY****
TOTAL RUN TIME: 0 days 0 hours 0 minutes 12 seconds 538 msec
