                         Program Version 5.0.3 -  RELEASE  -
|  1> ! B3LYP cc-pVDZ
|  2> !TightSCF
|  3> %scf
|  4>  ConvForced true
|  5>  convergence tight
|  6>  MaxIter 500
|  7> end
|  8>
|  9> %tddft
| 10>  nroots 1
| 11> end
| 12>
| 13> # 	14544
| 14> * xyz 0 1
| 15> 		C   -1.155812  -0.310619   0.004597
| 16> 		O   -1.296745  -1.422764   0.428490
| 17> 		C    0.011021   0.605840   0.115281
| 18> 		C    1.235027   0.029605  -0.070373
| 19> 		H   -1.969733   0.101487  -0.550847
| 20> 		H   -0.177098   1.655756   0.331622
| 21> 		H    1.183024  -1.195462  -0.178242
| 22> 		H    2.196699   0.582050  -0.037971
| 23> *
| 24>
| 25>                          ****END OF INPUT****

CARTESIAN COORDINATES (ANGSTROEM)
---------------------------------
  C     -1.155812   -0.310619    0.004597
  O     -1.296745   -1.422764    0.428490
  C      0.011021    0.605840    0.115281
  C      1.235027    0.029605   -0.070373
  H     -1.969733    0.101487   -0.550847
  H     -0.177098    1.655756    0.331622
  H      1.183024   -1.195462   -0.178242
  H      2.196699    0.582050   -0.037971

 Total Charge           Charge          ....    0
 Multiplicity           Mult            ....    1
 Number of Electrons    NEL             ....   30
 Basis Dimension        Dim             ....   76

ORBITAL ENERGIES
----------------

  NO   OCC          E(Eh)            E(eV)
   0   2.0000     -19.139101      -520.8014
   1   2.0000     -10.271041      -279.4892
   2   2.0000     -10.227013      -278.2912
   3   2.0000     -10.210064      -277.8300
   4   2.0000      -1.053345       -28.6630
   5   2.0000      -0.789846       -21.4928
   6   2.0000      -0.649440       -17.6721
   7   2.0000      -0.543746       -14.7961
   8   2.0000      -0.506892       -13.7932
   9   2.0000      -0.440457       -11.9854
  10   2.0000      -0.437466       -11.9041
  11   2.0000      -0.386943       -10.5293
  12   2.0000      -0.377774       -10.2797
  13   2.0000      -0.285131        -7.7588
  14   2.0000      -0.253793        -6.9061
  15   0.0000      -0.055613        -1.5133
  16   0.0000       0.025344         0.6896
  17   0.0000       0.071011         1.9323
  18   0.0000       0.078450         2.1347
  19   0.0000       0.119196         3.2435

MULLIKEN ATOMIC CHARGES
-----------------------
   0 C :    0.195125
   1 O :   -0.183660
   2 C :   -0.090742
   3 C :   -0.010429
   4 H :   -0.030833
   5 H :    0.007162
   6 H :    0.069696
   7 H :    0.043681
Sum of atomic charges:   -0.0000000

LOEWDIN ATOMIC CHARGES
----------------------
   0 C :   -0.034751
   1 O :    0.009897
   2 C :   -0.072793
   3 C :   -0.010404
   4 H :   -0.013745
   5 H :    0.030046
   6 H :    0.060211
   7 H :    0.031540

  Mayer bond orders larger than 0.100000
B(  0-C ,  1-O ) :   2.2109 B(  0-C ,  2-C ) :   1.0250 B(  0-C ,  4-H ) :   0.9212
B(  2-C ,  3-C ) :   1.9565 B(  2-C ,  5-H ) :   0.9493 B(  3-C ,  6-H ) :   0.9252
B(  3-C ,  7-H ) :   0.9473

-----------------------------------------------------------------------------
         ABSORPTION SPECTRUM VIA TRANSITION ELECTRIC DIPOLE MOMENTS
-----------------------------------------------------------------------------
State   Energy    Wavelength  fosc         T2        TX        TY        TZ
        (cm-1)      (nm)                 (au**2)    (au)      (au)      (au)
-----------------------------------------------------------------------------
   1   30478.0    328.1   0.000210904   0.00228   0.04585   0.00416  -0.01258

FINAL SINGLE POINT ENERGY      -191.650805044004

DIPOLE MOMENT
-------------
                                X             Y             Z
Electronic contribution:     -1.97554      -1.38420       0.61562
Nuclear contribution   :      2.37532       2.24207      -0.87333
                        -----------------------------------------
Total Dipole Moment    :      0.39978       0.85787      -0.25771
                        -----------------------------------------
Magnitude (a.u.)       :      0.98091
Magnitude (Debye)      :      2.49328

Rotational constants in cm-1:     0.781797     0.198065     0.162859
Rotational constants in MHz : 23437.696418  5937.838777  4882.389157

                             ****ORCA TERMINATED NORMALLY****
TOTAL RUN TIME: 0 days 0 hours 3 minutes 27 seconds 813 msec
