                         Program Version 5.0.3 -  RELEASE  -
|  1> ! HF-3c
|  2> !TightSCF
|  3> %scf
|  4>  ConvForced true
|  5>  convergence tight
|  6>  MaxIter 500
|  7> end
|  8>
|  9> %tddft
| 10>  nroots 1
| 11> end
| 12>
| 13> # 	22117
| 14> * xyz 0 1
| 15> 		C   -0.628820  -0.455664  -0.009323
| 16> 		O   -0.541388  -1.632651   0.011323
| 17> 		C    0.568818   0.492010   0.052195
| 18> 		C    1.893821  -0.167864  -0.020395
| 19> 		H   -1.539805   0.146828  -0.310216
| 20> 		H    0.448637   1.500332   0.012723
| 21> 		H    1.942907  -1.343279  -0.027144
| 22> 		H    2.827832   0.432973  -0.123810
| 23> *
| 24>
| 25>                          ****END OF INPUT****

CARTESIAN COORDINATES (ANGSTROEM)
---------------------------------
  C     -0.628820   -0.455664   -0.009323
  O     -0.541388   -1.632651    0.011323
  C      0.568818    0.492010    0.052195
  C      1.893821   -0.167864   -0.020395
  H     -1.539805    0.146828   -0.310216
  H      0.448637    1.500332    0.012723
  H      1.942907   -1.343279   -0.027144
  H      2.827832    0.432973   -0.123810

 Total Charge           Charge          ....    0
 Multiplicity           Mult            ....    1
 Number of Electrons    NEL             ....   30
 Basis Dimension        Dim             ....   24

ORBITAL ENERGIES
----------------

  NO   OCC          E(Eh)            E(eV)
   0   2.0000     -20.367250      -554.2210
   1   2.0000     -11.298915      -307.4591
   2   2.0000     -11.184495      -304.3456
   3   2.0000     -11.163757      -303.7813
   4   2.0000      -1.418536       -38.6003
   5   2.0000      -1.024986       -27.8913
   6   2.0000      -0.868344       -23.6289
   7   2.0000      -0.743886       -20.2422
   8   2.0000      -0.690519       -18.7900
   9   2.0000      -0.604096       -16.4383
  10   2.0000      -0.569252       -15.4901
  11   2.0000      -0.542840       -14.7714
  12   2.0000      -0.535482       -14.5712
  13   2.0000      -0.398147       -10.8341
  14   2.0000      -0.352882        -9.6024
  15   0.0000       0.125587         3.4174
  16   0.0000       0.283593         7.7170
  17   0.0000       0.544164        14.8074
  18   0.0000       0.565560        15.3897
  19   0.0000       0.638922        17.3860

MULLIKEN ATOMIC CHARGES
-----------------------
   0 C :    0.182939
   1 O :   -0.372881
   2 C :   -0.191849
   3 C :   -0.182127
   4 H :    0.130020
   5 H :    0.132195
   6 H :    0.162338
   7 H :    0.139365
Sum of atomic charges:    0.0000000

LOEWDIN ATOMIC CHARGES
----------------------
   0 C :    0.155578
   1 O :   -0.267086
   2 C :   -0.155808
   3 C :   -0.086346
   4 H :    0.068637
   5 H :    0.078244
   6 H :    0.114906
   7 H :    0.091875

  Mayer bond orders larger than 0.100000
B(  0-C ,  1-O ) :   1.9105 B(  0-C ,  2-C ) :   1.0156 B(  0-C ,  4-H ) :   0.9141
B(  2-C ,  3-C ) :   1.9111 B(  2-C ,  5-H ) :   0.9705 B(  3-C ,  6-H ) :   0.9580
B(  3-C ,  7-H ) :   0.9675

-----------------------------------------------------------------------------
         ABSORPTION SPECTRUM VIA TRANSITION ELECTRIC DIPOLE MOMENTS
-----------------------------------------------------------------------------
State   Energy    Wavelength  fosc         T2        TX        TY        TZ
        (cm-1)      (nm)                 (au**2)    (au)      (au)      (au)
-----------------------------------------------------------------------------
   1   34599.3    289.0   0.000004332   0.00004   0.00221   0.00058   0.00600

Dispersion correction           -0.025038767
FINAL SINGLE POINT ENERGY      -189.296836672787

DIPOLE MOMENT
-------------
                                X             Y             Z
Electronic contribution:     -1.91404      -1.64699       0.30711
Nuclear contribution   :      2.29675       2.47871      -0.42049
                        -----------------------------------------
Total Dipole Moment    :      0.38271       0.83172      -0.11338
                        -----------------------------------------
Magnitude (a.u.)       :      0.92254
Magnitude (Debye)      :      2.34492

Rotational constants in cm-1:     0.668356     0.209490     0.159963
Rotational constants in MHz : 20036.803217  6280.354567  4795.571530

                             ****ORCA TERMINATED NORMALLY****
TOTAL RUN TIME: 0 days 0 hours 0 minutes 13 seconds 600 msec
