                         Program Version 5.0.3 -  RELEASE  -
|  1> ! HF-3c
|  2> !TightSCF
|  3> %scf
|  4>  ConvForced true
|  5>  convergence tight
|  6>  MaxIter 500
|  7> end
|  8>
|  9> %tddft
| 10>  nroots 1
| 11> end
| 12>
| 13> # 	24902
| 14> * xyz 0 1
| 15> 		C   -0.595201  -0.457163  -0.030228
| 16> 		O   -0.598183  -1.615774   0.018242
| 17> 		C    0.640940   0.359635   0.068121
| 18> 		C    1.867856  -0.088143  -0.031745
| 19> 		H   -1.594701   0.373855  -0.253199
| 20> 		H    0.558020   1.373954  -0.018959
| 21> 		H    2.179775  -1.116436  -0.022524
| 22> 		H    2.498248   0.522425  -0.068075
| 23> *
| 24>
| 25>                          ****END OF INPUT****

CARTESIAN COORDINATES (ANGSTROEM)
---------------------------------
  C     -0.595201   -0.457163   -0.030228
  O     -0.598183   -1.615774    0.018242
  C      0.640940    0.359635    0.068121
  C      1.867856   -0.088143   -0.031745
  H     -1.594701    0.373855   -0.253199
  H      0.558020    1.373954   -0.018959
  H      2.179775   -1.116436   -0.022524
  H      2.498248    0.522425   -0.068075

 Total Charge           Charge          ....    0
 Multiplicity           Mult            ....    1
 Number of Electrons    NEL             ....   30
 Basis Dimension        Dim             ....   24

ORBITAL ENERGIES
----------------

  NO   OCC          E(Eh)            E(eV)
   0   2.0000     -20.393284      -554.9295
   1   2.0000     -11.314205      -307.8752
   2   2.0000     -11.202642      -304.8394
   3   2.0000     -11.195858      -304.6548
   4   2.0000      -1.446850       -39.3708
   5   2.0000      -1.107330       -30.1320
   6   2.0000      -0.908378       -24.7182
   7   2.0000      -0.750081       -20.4107
   8   2.0000      -0.719802       -19.5868
   9   2.0000      -0.634197       -17.2574
  10   2.0000      -0.622771       -16.9465
  11   2.0000      -0.569307       -15.4916
  12   2.0000      -0.553559       -15.0631
  13   2.0000      -0.416183       -11.3249
  14   2.0000      -0.396744       -10.7960
  15   0.0000       0.135000         3.6735
  16   0.0000       0.314244         8.5510
  17   0.0000       0.435441        11.8489
  18   0.0000       0.621536        16.9129
  19   0.0000       0.685025        18.6405

MULLIKEN ATOMIC CHARGES
-----------------------
   0 C :    0.217027
   1 O :   -0.361789
   2 C :   -0.167804
   3 C :   -0.262591
   4 H :    0.126299
   5 H :    0.141911
   6 H :    0.166414
   7 H :    0.140533
Sum of atomic charges:    0.0000000

LOEWDIN ATOMIC CHARGES
----------------------
   0 C :    0.161838
   1 O :   -0.245071
   2 C :   -0.119813
   3 C :   -0.145862
   4 H :    0.078252
   5 H :    0.084607
   6 H :    0.110422
   7 H :    0.075627

  Mayer bond orders larger than 0.100000
B(  0-C ,  1-O ) :   1.9394 B(  0-C ,  2-C ) :   0.9990 B(  0-C ,  4-H ) :   0.8844
B(  2-C ,  3-C ) :   1.9586 B(  2-C ,  5-H ) :   0.9619 B(  3-C ,  6-H ) :   0.9588
B(  3-C ,  7-H ) :   0.9700

-----------------------------------------------------------------------------
         ABSORPTION SPECTRUM VIA TRANSITION ELECTRIC DIPOLE MOMENTS
-----------------------------------------------------------------------------
State   Energy    Wavelength  fosc         T2        TX        TY        TZ
        (cm-1)      (nm)                 (au**2)    (au)      (au)      (au)
-----------------------------------------------------------------------------
   1   35168.6    284.3   0.000217643   0.00204   0.04480   0.00470  -0.00285

Dispersion correction           -0.025981875
FINAL SINGLE POINT ENERGY      -189.245619845351

DIPOLE MOMENT
-------------
                                X             Y             Z
Electronic contribution:     -2.11108      -1.97170       0.23759
Nuclear contribution   :      2.25931       2.86745      -0.34006
                        -----------------------------------------
Total Dipole Moment    :      0.14823       0.89574      -0.10247
                        -----------------------------------------
Magnitude (a.u.)       :      0.91369
Magnitude (Debye)      :      2.32242

Rotational constants in cm-1:     0.810695     0.206432     0.165030
Rotational constants in MHz : 24304.033769  6188.662216  4947.483908

                             ****ORCA TERMINATED NORMALLY****
TOTAL RUN TIME: 0 days 0 hours 0 minutes 9 seconds 529 msec
