                         Program Version 5.0.3 -  RELEASE  -
|  1> ! B3LYP cc-pVDZ
|  2> !TightSCF
|  3> %scf
|  4>  ConvForced true
|  5>  convergence tight
|  6>  MaxIter 500
|  7> end
|  8>
|  9> %tddft
| 10>  nroots 1
| 11> end
| 12>
| 13> # 	2334
| 14> * xyz 0 1
| 15> 		C   -1.161628  -0.299354  -0.026836
| 16> 		O   -1.890661  -0.708707   0.884024
| 17> 		C    0.036718   0.492491   0.158595
| 18> 		C    1.236539   0.029855  -0.137988
| 19> 		H   -1.285325  -0.691089  -1.061956
| 20> 		H   -0.218364   1.314934   0.920974
| 21> 		H    1.316890  -0.710521  -0.718504
| 22> 		H    2.000371   0.568540   0.021093
| 23> *
| 24>
| 25>                          ****END OF INPUT****

CARTESIAN COORDINATES (ANGSTROEM)
---------------------------------
  C     -1.161628   -0.299354   -0.026836
  O     -1.890661   -0.708707    0.884024
  C      0.036718    0.492491    0.158595
  C      1.236539    0.029855   -0.137988
  H     -1.285325   -0.691089   -1.061956
  H     -0.218364    1.314934    0.920974
  H      1.316890   -0.710521   -0.718504
  H      2.000371    0.568540    0.021093

 Total Charge           Charge          ....    0
 Multiplicity           Mult            ....    1
 Number of Electrons    NEL             ....   30
 Basis Dimension        Dim             ....   76

ORBITAL ENERGIES
----------------

  NO   OCC          E(Eh)            E(eV)
   0   2.0000     -19.142393      -520.8910
   1   2.0000     -10.276860      -279.6476
   2   2.0000     -10.210711      -277.8476
   3   2.0000     -10.188043      -277.2307
   4   2.0000      -1.034870       -28.1603
   5   2.0000      -0.817357       -22.2414
   6   2.0000      -0.675209       -18.3734
   7   2.0000      -0.569219       -15.4892
   8   2.0000      -0.497806       -13.5460
   9   2.0000      -0.481632       -13.1059
  10   2.0000      -0.433593       -11.7987
  11   2.0000      -0.401404       -10.9227
  12   2.0000      -0.370219       -10.0742
  13   2.0000      -0.295146        -8.0313
  14   2.0000      -0.255697        -6.9579
  15   0.0000      -0.061057        -1.6615
  16   0.0000       0.014630         0.3981
  17   0.0000       0.082124         2.2347
  18   0.0000       0.095014         2.5855
  19   0.0000       0.123960         3.3731

MULLIKEN ATOMIC CHARGES
-----------------------
   0 C :    0.162402
   1 O :   -0.207889
   2 C :   -0.148208
   3 C :    0.252271
   4 H :   -0.016897
   5 H :    0.027943
   6 H :   -0.044639
   7 H :   -0.024984
Sum of atomic charges:    0.0000000

LOEWDIN ATOMIC CHARGES
----------------------
   0 C :   -0.016441
   1 O :   -0.019243
   2 C :   -0.043732
   3 C :    0.045811
   4 H :   -0.006737
   5 H :    0.048604
   6 H :   -0.007280
   7 H :   -0.000980

  Mayer bond orders larger than 0.100000
B(  0-C ,  1-O ) :   2.1717 B(  0-C ,  2-C ) :   1.0489 B(  0-C ,  4-H ) :   0.9166
B(  2-C ,  3-C ) :   1.9955 B(  2-C ,  5-H ) :   0.9258 B(  3-C ,  6-H ) :   0.9318
B(  3-C ,  7-H ) :   0.9347

-----------------------------------------------------------------------------
         ABSORPTION SPECTRUM VIA TRANSITION ELECTRIC DIPOLE MOMENTS
-----------------------------------------------------------------------------
State   Energy    Wavelength  fosc         T2        TX        TY        TZ
        (cm-1)      (nm)                 (au**2)    (au)      (au)      (au)
-----------------------------------------------------------------------------
   1   29430.4    339.8   0.001189235   0.01330  -0.11116  -0.01468   0.02703

FINAL SINGLE POINT ENERGY      -191.620383884385

DIPOLE MOMENT
-------------
                                X             Y             Z
Electronic contribution:     -2.67120      -0.62463       1.06537
Nuclear contribution   :      3.49325       0.99092      -1.66211
                        -----------------------------------------
Total Dipole Moment    :      0.82205       0.36629      -0.59674
                        -----------------------------------------
Magnitude (a.u.)       :      1.07983
Magnitude (Debye)      :      2.74471

Rotational constants in cm-1:     1.213604     0.162135     0.157250
Rotational constants in MHz : 36382.922672  4860.696156  4714.234822

                             ****ORCA TERMINATED NORMALLY****
TOTAL RUN TIME: 0 days 0 hours 3 minutes 10 seconds 501 msec
