                         Program Version 5.0.3 -  RELEASE  -
|  1> ! B3LYP cc-pVDZ
|  2> !TightSCF
|  3> %scf
|  4>  ConvForced true
|  5>  convergence tight
|  6>  MaxIter 500
|  7> end
|  8>
|  9> %tddft
| 10>  nroots 1
| 11> end
| 12>
| 13> # 	12282
| 14> * xyz 0 1
| 15> 		C   -1.243637  -0.351482   0.039740
| 16> 		O   -1.188173  -1.416753   0.117515
| 17> 		C   -0.045219   0.459813   0.032741
| 18> 		C    1.214667  -0.073293   0.015584
| 19> 		H   -2.141069   0.218941  -0.091466
| 20> 		H   -0.051892   1.729800   0.008661
| 21> 		H    1.323059  -1.052437  -0.040049
| 22> 		H    2.137959   0.463519   0.015012
| 23> *
| 24>
| 25>                          ****END OF INPUT****

CARTESIAN COORDINATES (ANGSTROEM)
---------------------------------
  C     -1.243637   -0.351482    0.039740
  O     -1.188173   -1.416753    0.117515
  C     -0.045219    0.459813    0.032741
  C      1.214667   -0.073293    0.015584
  H     -2.141069    0.218941   -0.091466
  H     -0.051892    1.729800    0.008661
  H      1.323059   -1.052437   -0.040049
  H      2.137959    0.463519    0.015012

 Total Charge           Charge          ....    0
 Multiplicity           Mult            ....    1
 Number of Electrons    NEL             ....   30
 Basis Dimension        Dim             ....   76

ORBITAL ENERGIES
----------------

  NO   OCC          E(Eh)            E(eV)
   0   2.0000     -19.137077      -520.7463
   1   2.0000     -10.260207      -279.1944
   2   2.0000     -10.205489      -277.7055
   3   2.0000     -10.197789      -277.4959
   4   2.0000      -1.136997       -30.9393
   5   2.0000      -0.782682       -21.2979
   6   2.0000      -0.660111       -17.9625
   7   2.0000      -0.555744       -15.1226
   8   2.0000      -0.509932       -13.8759
   9   2.0000      -0.468323       -12.7437
  10   2.0000      -0.453518       -12.3408
  11   2.0000      -0.432292       -11.7633
  12   2.0000      -0.365738        -9.9522
  13   2.0000      -0.280191        -7.6244
  14   2.0000      -0.254833        -6.9344
  15   0.0000      -0.055907        -1.5213
  16   0.0000       0.059286         1.6132
  17   0.0000       0.089367         2.4318
  18   0.0000       0.105044         2.8584
  19   0.0000       0.120814         3.2875

MULLIKEN ATOMIC CHARGES
-----------------------
   0 C :    0.217557
   1 O :   -0.061866
   2 C :   -0.239684
   3 C :    0.133863
   4 H :   -0.070537
   5 H :    0.013324
   6 H :   -0.015967
   7 H :    0.023310
Sum of atomic charges:    0.0000000

LOEWDIN ATOMIC CHARGES
----------------------
   0 C :   -0.145423
   1 O :    0.151716
   2 C :   -0.083900
   3 C :    0.038474
   4 H :   -0.024522
   5 H :    0.040408
   6 H :   -0.004533
   7 H :    0.027779

  Mayer bond orders larger than 0.100000
B(  0-C ,  1-O ) :   2.3681 B(  0-C ,  2-C ) :   1.0000 B(  0-C ,  4-H ) :   0.9050
B(  2-C ,  3-C ) :   1.9802 B(  2-C ,  5-H ) :   0.9253 B(  3-C ,  6-H ) :   0.9417
B(  3-C ,  7-H ) :   0.9532

-----------------------------------------------------------------------------
         ABSORPTION SPECTRUM VIA TRANSITION ELECTRIC DIPOLE MOMENTS
-----------------------------------------------------------------------------
State   Energy    Wavelength  fosc         T2        TX        TY        TZ
        (cm-1)      (nm)                 (au**2)    (au)      (au)      (au)
-----------------------------------------------------------------------------
   1   31656.7    315.9   0.000063041   0.00066  -0.00654  -0.01466   0.01995

FINAL SINGLE POINT ENERGY      -191.590379122121

DIPOLE MOMENT
-------------
                                X             Y             Z
Electronic contribution:     -2.11896      -2.11364       0.22546
Nuclear contribution   :      2.42352       2.65760      -0.28956
                        -----------------------------------------
Total Dipole Moment    :      0.30456       0.54397      -0.06409
                        -----------------------------------------
Magnitude (a.u.)       :      0.62671
Magnitude (Debye)      :      1.59297

Rotational constants in cm-1:     0.815721     0.221675     0.174469
Rotational constants in MHz : 24454.710135  6645.637415  5230.438432

                             ****ORCA TERMINATED NORMALLY****
TOTAL RUN TIME: 0 days 0 hours 3 minutes 16 seconds 950 msec
