                         Program Version 5.0.3 -  RELEASE  -
|  1> ! B3LYP cc-pVDZ
|  2> !TightSCF
|  3> %scf
|  4>  ConvForced true
|  5>  convergence tight
|  6>  MaxIter 500
|  7> end
|  8>
|  9> %tddft
| 10>  nroots 1
| 11> end
| 12>
| 13> # 	7509
| 14> * xyz 0 1
| 15> 		C   -1.220525  -0.360629  -0.077161
| 16> 		O   -1.503306  -1.245131  -0.751790
| 17> 		C    0.002839   0.410192  -0.251693
| 18> 		C    1.218272   0.021170   0.191135
| 19> 		H   -1.760386   0.021990   0.939155
| 20> 		H   -0.122848   1.418288  -0.630610
| 21> 		H    1.335244  -0.965710   0.599137
| 22> 		H    2.037004   0.723067   0.009938
| 23> *
| 24>
| 25>                          ****END OF INPUT****

CARTESIAN COORDINATES (ANGSTROEM)
---------------------------------
  C     -1.220525   -0.360629   -0.077161
  O     -1.503306   -1.245131   -0.751790
  C      0.002839    0.410192   -0.251693
  C      1.218272    0.021170    0.191135
  H     -1.760386    0.021990    0.939155
  H     -0.122848    1.418288   -0.630610
  H      1.335244   -0.965710    0.599137
  H      2.037004    0.723067    0.009938

 Total Charge           Charge          ....    0
 Multiplicity           Mult            ....    1
 Number of Electrons    NEL             ....   30
 Basis Dimension        Dim             ....   76

ORBITAL ENERGIES
----------------

  NO   OCC          E(Eh)            E(eV)
   0   2.0000     -19.151674      -521.1435
   1   2.0000     -10.283747      -279.8350
   2   2.0000     -10.203074      -277.6398
   3   2.0000     -10.200002      -277.5562
   4   2.0000      -1.093996       -29.7691
   5   2.0000      -0.794289       -21.6137
   6   2.0000      -0.652231       -17.7481
   7   2.0000      -0.544175       -14.8078
   8   2.0000      -0.500032       -13.6066
   9   2.0000      -0.464570       -12.6416
  10   2.0000      -0.450169       -12.2497
  11   2.0000      -0.407831       -11.0976
  12   2.0000      -0.387033       -10.5317
  13   2.0000      -0.280583        -7.6351
  14   2.0000      -0.256970        -6.9925
  15   0.0000      -0.023547        -0.6408
  16   0.0000      -0.006374        -0.1734
  17   0.0000       0.079931         2.1750
  18   0.0000       0.087670         2.3856
  19   0.0000       0.102627         2.7926

MULLIKEN ATOMIC CHARGES
-----------------------
   0 C :    0.134200
   1 O :   -0.116781
   2 C :   -0.089719
   3 C :    0.040884
   4 H :   -0.024090
   5 H :    0.008756
   6 H :    0.016062
   7 H :    0.030689
Sum of atomic charges:    0.0000000

LOEWDIN ATOMIC CHARGES
----------------------
   0 C :   -0.078214
   1 O :    0.079846
   2 C :   -0.057042
   3 C :   -0.025611
   4 H :   -0.009779
   5 H :    0.033033
   6 H :    0.023362
   7 H :    0.034406

  Mayer bond orders larger than 0.100000
B(  0-C ,  1-O ) :   2.3022 B(  0-C ,  2-C ) :   0.9885 B(  0-C ,  4-H ) :   0.8737
B(  2-C ,  3-C ) :   2.0467 B(  2-C ,  5-H ) :   0.9283 B(  3-C ,  6-H ) :   0.9446
B(  3-C ,  7-H ) :   0.9399

-----------------------------------------------------------------------------
         ABSORPTION SPECTRUM VIA TRANSITION ELECTRIC DIPOLE MOMENTS
-----------------------------------------------------------------------------
State   Energy    Wavelength  fosc         T2        TX        TY        TZ
        (cm-1)      (nm)                 (au**2)    (au)      (au)      (au)
-----------------------------------------------------------------------------
   1   36622.9    273.1   0.000309382   0.00278  -0.03411   0.00591  -0.03978

FINAL SINGLE POINT ENERGY      -191.616824482776

DIPOLE MOMENT
-------------
                                X             Y             Z
Electronic contribution:     -2.50043      -1.68173      -1.35941
Nuclear contribution   :      2.88964       2.30564       1.70704
                        -----------------------------------------
Total Dipole Moment    :      0.38921       0.62391       0.34763
                        -----------------------------------------
Magnitude (a.u.)       :      0.81338
Magnitude (Debye)      :      2.06745

Rotational constants in cm-1:     0.959200     0.178454     0.164728
Rotational constants in MHz : 28756.103728  5349.920980  4938.415502

                             ****ORCA TERMINATED NORMALLY****
TOTAL RUN TIME: 0 days 0 hours 3 minutes 21 seconds 566 msec
