                         Program Version 5.0.3 -  RELEASE  -
|  1> ! HF-3c
|  2> !TightSCF
|  3> %scf
|  4>  ConvForced true
|  5>  convergence tight
|  6>  MaxIter 500
|  7> end
|  8>
|  9> %tddft
| 10>  nroots 1
| 11> end
| 12>
| 13> # 	17671
| 14> * xyz 0 1
| 15> 		C   -1.210140  -0.348672  -0.008800
| 16> 		O   -1.944752  -0.802238  -0.787084
| 17> 		C    0.046345   0.414349  -0.395024
| 18> 		C    1.205088   0.060553   0.179914
| 19> 		H   -1.324902  -0.552184   1.108680
| 20> 		H   -0.142428   1.248350  -1.009708
| 21> 		H    1.390160  -0.659638   0.901137
| 22> 		H    1.988710   0.618512   0.006580
| 23> *
| 24>
| 25>                          ****END OF INPUT****

CARTESIAN COORDINATES (ANGSTROEM)
---------------------------------
  C     -1.210140   -0.348672   -0.008800
  O     -1.944752   -0.802238   -0.787084
  C      0.046345    0.414349   -0.395024
  C      1.205088    0.060553    0.179914
  H     -1.324902   -0.552184    1.108680
  H     -0.142428    1.248350   -1.009708
  H      1.390160   -0.659638    0.901137
  H      1.988710    0.618512    0.006580

 Total Charge           Charge          ....    0
 Multiplicity           Mult            ....    1
 Number of Electrons    NEL             ....   30
 Basis Dimension        Dim             ....   24

ORBITAL ENERGIES
----------------

  NO   OCC          E(Eh)            E(eV)
   0   2.0000     -20.390416      -554.8514
   1   2.0000     -11.310537      -307.7754
   2   2.0000     -11.200123      -304.7708
   3   2.0000     -11.190339      -304.5046
   4   2.0000      -1.445402       -39.3314
   5   2.0000      -1.086869       -29.5752
   6   2.0000      -0.890220       -24.2241
   7   2.0000      -0.784590       -21.3498
   8   2.0000      -0.686384       -18.6775
   9   2.0000      -0.666320       -18.1315
  10   2.0000      -0.615822       -16.7574
  11   2.0000      -0.573089       -15.5946
  12   2.0000      -0.542940       -14.7741
  13   2.0000      -0.410083       -11.1589
  14   2.0000      -0.403521       -10.9804
  15   0.0000       0.157596         4.2884
  16   0.0000       0.260571         7.0905
  17   0.0000       0.544587        14.8190
  18   0.0000       0.619367        16.8538
  19   0.0000       0.681974        18.5575

MULLIKEN ATOMIC CHARGES
-----------------------
   0 C :    0.192191
   1 O :   -0.355192
   2 C :   -0.147811
   3 C :   -0.271475
   4 H :    0.135125
   5 H :    0.157754
   6 H :    0.147740
   7 H :    0.141668
Sum of atomic charges:   -0.0000000

LOEWDIN ATOMIC CHARGES
----------------------
   0 C :    0.154283
   1 O :   -0.241020
   2 C :   -0.098928
   3 C :   -0.164276
   4 H :    0.072755
   5 H :    0.100179
   6 H :    0.093328
   7 H :    0.083680

  Mayer bond orders larger than 0.100000
B(  0-C ,  1-O ) :   1.9482 B(  0-C ,  2-C ) :   0.9770 B(  0-C ,  4-H ) :   0.9107
B(  2-C ,  3-C ) :   1.9866 B(  2-C ,  5-H ) :   0.9565 B(  3-C ,  6-H ) :   0.9664
B(  3-C ,  7-H ) :   0.9674

-----------------------------------------------------------------------------
         ABSORPTION SPECTRUM VIA TRANSITION ELECTRIC DIPOLE MOMENTS
-----------------------------------------------------------------------------
State   Energy    Wavelength  fosc         T2        TX        TY        TZ
        (cm-1)      (nm)                 (au**2)    (au)      (au)      (au)
-----------------------------------------------------------------------------
   1   36532.7    273.7   0.000180705   0.00163   0.02161   0.01156  -0.03206

Dispersion correction           -0.025412387
FINAL SINGLE POINT ENERGY      -189.301709938816

DIPOLE MOMENT
-------------
                                X             Y             Z
Electronic contribution:     -3.04493      -0.92126      -1.25352
Nuclear contribution   :      3.69265       1.31893       1.89157
                        -----------------------------------------
Total Dipole Moment    :      0.64772       0.39767       0.63804
                        -----------------------------------------
Magnitude (a.u.)       :      0.99236
Magnitude (Debye)      :      2.52238

Rotational constants in cm-1:     1.264725     0.160459     0.151642
Rotational constants in MHz : 37915.504224  4810.436128  4546.119642

                             ****ORCA TERMINATED NORMALLY****
TOTAL RUN TIME: 0 days 0 hours 0 minutes 13 seconds 69 msec
