                         Program Version 5.0.3 -  RELEASE  -
|  1> ! HF-3c
|  2> !TightSCF
|  3> %scf
|  4>  ConvForced true
|  5>  convergence tight
|  6>  MaxIter 500
|  7> end
|  8>
|  9> %tddft
| 10>  nroots 1
| 11> end
| 12>
| 13> # 	18340
| 14> * xyz 0 1
| 15> 		C   -1.240611  -0.360856   0.038643
| 16> 		O   -1.253683  -1.588197   0.078985
| 17> 		C    0.051653   0.460046   0.037804
| 18> 		C    1.243527  -0.018874   0.074024
| 19> 		H   -2.131521   0.264701   0.055800
| 20> 		H   -0.126583   1.503975  -0.081317
| 21> 		H    1.466262  -0.960350  -0.216490
| 22> 		H    1.952630   0.729423   0.017807
| 23> *
| 24>
| 25>                          ****END OF INPUT****

CARTESIAN COORDINATES (ANGSTROEM)
---------------------------------
  C     -1.240611   -0.360856    0.038643
  O     -1.253683   -1.588197    0.078985
  C      0.051653    0.460046    0.037804
  C      1.243527   -0.018874    0.074024
  H     -2.131521    0.264701    0.055800
  H     -0.126583    1.503975   -0.081317
  H      1.466262   -0.960350   -0.216490
  H      1.952630    0.729423    0.017807

 Total Charge           Charge          ....    0
 Multiplicity           Mult            ....    1
 Number of Electrons    NEL             ....   30
 Basis Dimension        Dim             ....   24

ORBITAL ENERGIES
----------------

  NO   OCC          E(Eh)            E(eV)
   0   2.0000     -20.372861      -554.3737
   1   2.0000     -11.295396      -307.3634
   2   2.0000     -11.196424      -304.6702
   3   2.0000     -11.194093      -304.6067
   4   2.0000      -1.392990       -37.9052
   5   2.0000      -1.100943       -29.9582
   6   2.0000      -0.903050       -24.5732
   7   2.0000      -0.761309       -20.7163
   8   2.0000      -0.712614       -19.3912
   9   2.0000      -0.627201       -17.0670
  10   2.0000      -0.606099       -16.4928
  11   2.0000      -0.553897       -15.0723
  12   2.0000      -0.531075       -14.4513
  13   2.0000      -0.418051       -11.3757
  14   2.0000      -0.408317       -11.1109
  15   0.0000       0.129239         3.5168
  16   0.0000       0.296616         8.0713
  17   0.0000       0.549268        14.9463
  18   0.0000       0.640503        17.4290
  19   0.0000       0.690607        18.7924

MULLIKEN ATOMIC CHARGES
-----------------------
   0 C :    0.164631
   1 O :   -0.341036
   2 C :   -0.154868
   3 C :   -0.262586
   4 H :    0.138921
   5 H :    0.140505
   6 H :    0.163396
   7 H :    0.151037
Sum of atomic charges:   -0.0000000

LOEWDIN ATOMIC CHARGES
----------------------
   0 C :    0.148958
   1 O :   -0.249385
   2 C :   -0.107423
   3 C :   -0.152476
   4 H :    0.074440
   5 H :    0.086636
   6 H :    0.102888
   7 H :    0.096361

  Mayer bond orders larger than 0.100000
B(  0-C ,  1-O ) :   1.9271 B(  0-C ,  2-C ) :   0.9984 B(  0-C ,  4-H ) :   0.9284
B(  2-C ,  3-C ) :   1.9712 B(  2-C ,  5-H ) :   0.9604 B(  3-C ,  6-H ) :   0.9595
B(  3-C ,  7-H ) :   0.9601

-----------------------------------------------------------------------------
         ABSORPTION SPECTRUM VIA TRANSITION ELECTRIC DIPOLE MOMENTS
-----------------------------------------------------------------------------
State   Energy    Wavelength  fosc         T2        TX        TY        TZ
        (cm-1)      (nm)                 (au**2)    (au)      (au)      (au)
-----------------------------------------------------------------------------
   1   31383.5    318.6   0.000023488   0.00025  -0.01467  -0.00527  -0.00180

Dispersion correction           -0.025741811
FINAL SINGLE POINT ENERGY      -189.331703173438

DIPOLE MOMENT
-------------
                                X             Y             Z
Electronic contribution:     -2.11277      -1.95779       0.27153
Nuclear contribution   :      2.29568       2.95772      -0.40035
                        -----------------------------------------
Total Dipole Moment    :      0.18291       0.99993      -0.12882
                        -----------------------------------------
Magnitude (a.u.)       :      1.02465
Magnitude (Debye)      :      2.60446

Rotational constants in cm-1:     0.810866     0.197691     0.159244
Rotational constants in MHz : 24309.150235  5926.641733  4774.016138

                             ****ORCA TERMINATED NORMALLY****
TOTAL RUN TIME: 0 days 0 hours 0 minutes 15 seconds 753 msec
