                         Program Version 5.0.3 -  RELEASE  -
|  1> ! HF-3c
|  2> !TightSCF
|  3> %scf
|  4>  ConvForced true
|  5>  convergence tight
|  6>  MaxIter 500
|  7> end
|  8>
|  9> %tddft
| 10>  nroots 1
| 11> end
| 12>
| 13> # 	20481
| 14> * xyz 0 1
| 15> 		C   -0.610584  -0.456377   0.049169
| 16> 		O   -0.597919  -1.613219  -0.012886
| 17> 		C    0.671131   0.370956  -0.047147
| 18> 		C    1.869470  -0.057754   0.008875
| 19> 		H   -1.586791  -0.044123  -0.032494
| 20> 		H    0.424417   1.412437   0.014416
| 21> 		H    1.771250  -1.213284  -0.063192
| 22> 		H    2.808950   0.359286   0.166461
| 23> *
| 24>
| 25>                          ****END OF INPUT****

CARTESIAN COORDINATES (ANGSTROEM)
---------------------------------
  C     -0.610584   -0.456377    0.049169
  O     -0.597919   -1.613219   -0.012886
  C      0.671131    0.370956   -0.047147
  C      1.869470   -0.057754    0.008875
  H     -1.586791   -0.044123   -0.032494
  H      0.424417    1.412437    0.014416
  H      1.771250   -1.213284   -0.063192
  H      2.808950    0.359286    0.166461

 Total Charge           Charge          ....    0
 Multiplicity           Mult            ....    1
 Number of Electrons    NEL             ....   30
 Basis Dimension        Dim             ....   24

ORBITAL ENERGIES
----------------

  NO   OCC          E(Eh)            E(eV)
   0   2.0000     -20.384760      -554.6975
   1   2.0000     -11.311898      -307.8124
   2   2.0000     -11.189581      -304.4840
   3   2.0000     -11.188744      -304.4612
   4   2.0000      -1.451322       -39.4925
   5   2.0000      -1.089543       -29.6480
   6   2.0000      -0.886209       -24.1150
   7   2.0000      -0.767387       -20.8817
   8   2.0000      -0.710431       -19.3318
   9   2.0000      -0.648631       -17.6501
  10   2.0000      -0.612684       -16.6720
  11   2.0000      -0.567868       -15.4525
  12   2.0000      -0.501202       -13.6384
  13   2.0000      -0.421083       -11.4583
  14   2.0000      -0.409725       -11.1492
  15   0.0000       0.149471         4.0673
  16   0.0000       0.319444         8.6925
  17   0.0000       0.486401        13.2356
  18   0.0000       0.620908        16.8958
  19   0.0000       0.687098        18.6969

MULLIKEN ATOMIC CHARGES
-----------------------
   0 C :    0.170283
   1 O :   -0.356271
   2 C :   -0.169822
   3 C :   -0.241017
   4 H :    0.146053
   5 H :    0.131841
   6 H :    0.162170
   7 H :    0.156764
Sum of atomic charges:   -0.0000000

LOEWDIN ATOMIC CHARGES
----------------------
   0 C :    0.140108
   1 O :   -0.242789
   2 C :   -0.126667
   3 C :   -0.141544
   4 H :    0.076296
   5 H :    0.079280
   6 H :    0.114570
   7 H :    0.100746

  Mayer bond orders larger than 0.100000
B(  0-C ,  1-O ) :   1.9248 B(  0-C ,  2-C ) :   0.9825 B(  0-C ,  4-H ) :   0.9288
B(  2-C ,  3-C ) :   1.9870 B(  2-C ,  5-H ) :   0.9567 B(  3-C ,  6-H ) :   0.9438
B(  3-C ,  7-H ) :   0.9625

-----------------------------------------------------------------------------
         ABSORPTION SPECTRUM VIA TRANSITION ELECTRIC DIPOLE MOMENTS
-----------------------------------------------------------------------------
State   Energy    Wavelength  fosc         T2        TX        TY        TZ
        (cm-1)      (nm)                 (au**2)    (au)      (au)      (au)
-----------------------------------------------------------------------------
   1   35145.7    284.5   0.000422700   0.00396  -0.06156  -0.01202  -0.00507

Dispersion correction           -0.026039307
FINAL SINGLE POINT ENERGY      -189.300579412113

DIPOLE MOMENT
-------------
                                X             Y             Z
Electronic contribution:     -1.85619      -1.51860      -0.02102
Nuclear contribution   :      2.05122       2.27381       0.07902
                        -----------------------------------------
Total Dipole Moment    :      0.19503       0.75520       0.05801
                        -----------------------------------------
Magnitude (a.u.)       :      0.78214
Magnitude (Debye)      :      1.98803

Rotational constants in cm-1:     0.863492     0.202285     0.164187
Rotational constants in MHz : 25886.836967  6064.362207  4922.200233

                             ****ORCA TERMINATED NORMALLY****
TOTAL RUN TIME: 0 days 0 hours 0 minutes 12 seconds 380 msec
