                         Program Version 5.0.3 -  RELEASE  -
|  1> ! B3LYP cc-pVDZ
|  2> !TightSCF
|  3> %scf
|  4>  ConvForced true
|  5>  convergence tight
|  6>  MaxIter 500
|  7> end
|  8>
|  9> %tddft
| 10>  nroots 1
| 11> end
| 12>
| 13> # 	5308
| 14> * xyz 0 1
| 15> 		C   -1.172435  -0.266962   0.047658
| 16> 		O   -1.481601  -1.191620   0.828301
| 17> 		C    0.052605   0.546785   0.133369
| 18> 		C    1.163085  -0.021195  -0.122898
| 19> 		H   -1.767529  -0.262444  -0.991116
| 20> 		H   -0.121096   1.620914   0.592302
| 21> 		H    1.286214  -0.983199  -0.484673
| 22> 		H    2.102243   0.540937   0.013652
| 23> *
| 24>
| 25>                          ****END OF INPUT****

CARTESIAN COORDINATES (ANGSTROEM)
---------------------------------
  C     -1.172435   -0.266962    0.047658
  O     -1.481601   -1.191620    0.828301
  C      0.052605    0.546785    0.133369
  C      1.163085   -0.021195   -0.122898
  H     -1.767529   -0.262444   -0.991116
  H     -0.121096    1.620914    0.592302
  H      1.286214   -0.983199   -0.484673
  H      2.102243    0.540937    0.013652

 Total Charge           Charge          ....    0
 Multiplicity           Mult            ....    1
 Number of Electrons    NEL             ....   30
 Basis Dimension        Dim             ....   76

ORBITAL ENERGIES
----------------

  NO   OCC          E(Eh)            E(eV)
   0   2.0000     -19.145596      -520.9781
   1   2.0000     -10.287473      -279.9364
   2   2.0000     -10.212397      -277.8935
   3   2.0000     -10.197926      -277.4997
   4   2.0000      -1.030364       -28.0376
   5   2.0000      -0.813360       -22.1327
   6   2.0000      -0.651544       -17.7294
   7   2.0000      -0.548404       -14.9228
   8   2.0000      -0.489586       -13.3223
   9   2.0000      -0.465551       -12.6683
  10   2.0000      -0.439760       -11.9665
  11   2.0000      -0.381477       -10.3805
  12   2.0000      -0.364018        -9.9054
  13   2.0000      -0.299262        -8.1433
  14   2.0000      -0.252843        -6.8802
  15   0.0000      -0.043931        -1.1954
  16   0.0000      -0.004472        -0.1217
  17   0.0000       0.066566         1.8114
  18   0.0000       0.089262         2.4289
  19   0.0000       0.097220         2.6455

MULLIKEN ATOMIC CHARGES
-----------------------
   0 C :    0.131507
   1 O :   -0.205867
   2 C :   -0.104549
   3 C :    0.098643
   4 H :    0.005580
   5 H :    0.042099
   6 H :    0.005646
   7 H :    0.026941
Sum of atomic charges:    0.0000000

LOEWDIN ATOMIC CHARGES
----------------------
   0 C :   -0.004134
   1 O :   -0.028916
   2 C :   -0.074050
   3 C :   -0.011802
   4 H :    0.003508
   5 H :    0.056808
   6 H :    0.019722
   7 H :    0.038865

  Mayer bond orders larger than 0.100000
B(  0-C ,  1-O ) :   2.1927 B(  0-C ,  2-C ) :   0.9809 B(  0-C ,  4-H ) :   0.9046
B(  2-C ,  3-C ) :   2.0574 B(  2-C ,  5-H ) :   0.9204 B(  3-C ,  6-H ) :   0.9392
B(  3-C ,  7-H ) :   0.9381

-----------------------------------------------------------------------------
         ABSORPTION SPECTRUM VIA TRANSITION ELECTRIC DIPOLE MOMENTS
-----------------------------------------------------------------------------
State   Energy    Wavelength  fosc         T2        TX        TY        TZ
        (cm-1)      (nm)                 (au**2)    (au)      (au)      (au)
-----------------------------------------------------------------------------
   1   30395.2    329.0   0.000413898   0.00448  -0.04547  -0.00998  -0.04812

FINAL SINGLE POINT ENERGY      -191.637801745819

DIPOLE MOMENT
-------------
                                X             Y             Z
Electronic contribution:     -2.32252      -1.16693       1.20067
Nuclear contribution   :      2.84160       1.85228      -1.68234
                        -----------------------------------------
Total Dipole Moment    :      0.51908       0.68535      -0.48166
                        -----------------------------------------
Magnitude (a.u.)       :      0.98547
Magnitude (Debye)      :      2.50487

Rotational constants in cm-1:     0.851996     0.184950     0.167205
Rotational constants in MHz : 25542.206183  5544.652208  5012.681112

                             ****ORCA TERMINATED NORMALLY****
TOTAL RUN TIME: 0 days 0 hours 3 minutes 19 seconds 612 msec
