                         Program Version 5.0.3 -  RELEASE  -
|  1> ! HF-3c
|  2> !TightSCF
|  3> %scf
|  4>  ConvForced true
|  5>  convergence tight
|  6>  MaxIter 500
|  7> end
|  8>
|  9> %tddft
| 10>  nroots 1
| 11> end
| 12>
| 13> # 	3859
| 14> * xyz 0 1
| 15> 		C   -1.122458  -0.363947  -0.138727
| 16> 		O   -2.201308  -0.120862  -0.560481
| 17> 		C    0.066822   0.400955  -0.434845
| 18> 		C    1.223485   0.013158   0.281792
| 19> 		H   -1.086625  -1.114824   0.645237
| 20> 		H   -0.137614   1.226393  -0.935825
| 21> 		H    1.166976  -0.515560   1.025907
| 22> 		H    2.113695   0.541197   0.208568
| 23> *
| 24>
| 25>                          ****END OF INPUT****

CARTESIAN COORDINATES (ANGSTROEM)
---------------------------------
  C     -1.122458   -0.363947   -0.138727
  O     -2.201308   -0.120862   -0.560481
  C      0.066822    0.400955   -0.434845
  C      1.223485    0.013158    0.281792
  H     -1.086625   -1.114824    0.645237
  H     -0.137614    1.226393   -0.935825
  H      1.166976   -0.515560    1.025907
  H      2.113695    0.541197    0.208568

 Total Charge           Charge          ....    0
 Multiplicity           Mult            ....    1
 Number of Electrons    NEL             ....   30
 Basis Dimension        Dim             ....   24

ORBITAL ENERGIES
----------------

  NO   OCC          E(Eh)            E(eV)
   0   2.0000     -20.370096      -554.2985
   1   2.0000     -11.301053      -307.5173
   2   2.0000     -11.212170      -305.0987
   3   2.0000     -11.210454      -305.0520
   4   2.0000      -1.425368       -38.7862
   5   2.0000      -1.096416       -29.8350
   6   2.0000      -0.917735       -24.9728
   7   2.0000      -0.810455       -22.0536
   8   2.0000      -0.691536       -18.8177
   9   2.0000      -0.665102       -18.0984
  10   2.0000      -0.611723       -16.6458
  11   2.0000      -0.576659       -15.6917
  12   2.0000      -0.556152       -15.1337
  13   2.0000      -0.417465       -11.3598
  14   2.0000      -0.387349       -10.5403
  15   0.0000       0.101562         2.7637
  16   0.0000       0.286459         7.7950
  17   0.0000       0.612951        16.6793
  18   0.0000       0.657698        17.8969
  19   0.0000       0.688462        18.7340

MULLIKEN ATOMIC CHARGES
-----------------------
   0 C :    0.163151
   1 O :   -0.354012
   2 C :   -0.156347
   3 C :   -0.245475
   4 H :    0.134665
   5 H :    0.162715
   6 H :    0.142543
   7 H :    0.152760
Sum of atomic charges:   -0.0000000

LOEWDIN ATOMIC CHARGES
----------------------
   0 C :    0.138492
   1 O :   -0.252053
   2 C :   -0.098551
   3 C :   -0.129844
   4 H :    0.068561
   5 H :    0.097299
   6 H :    0.079261
   7 H :    0.096835

  Mayer bond orders larger than 0.100000
B(  0-C ,  1-O ) :   1.8883 B(  0-C ,  2-C ) :   1.0476 B(  0-C ,  4-H ) :   0.9264
B(  2-C ,  3-C ) :   1.9203 B(  2-C ,  5-H ) :   0.9612 B(  3-C ,  6-H ) :   0.9728
B(  3-C ,  7-H ) :   0.9683

-----------------------------------------------------------------------------
         ABSORPTION SPECTRUM VIA TRANSITION ELECTRIC DIPOLE MOMENTS
-----------------------------------------------------------------------------
State   Energy    Wavelength  fosc         T2        TX        TY        TZ
        (cm-1)      (nm)                 (au**2)    (au)      (au)      (au)
-----------------------------------------------------------------------------
   1   32266.2    309.9   0.000121349   0.00124   0.02593  -0.01092   0.02113

Dispersion correction           -0.026187828
FINAL SINGLE POINT ENERGY      -189.275636159958

DIPOLE MOMENT
-------------
                                X             Y             Z
Electronic contribution:     -2.97651      -0.23208      -1.21821
Nuclear contribution   :      3.98866       0.20709       1.65140
                        -----------------------------------------
Total Dipole Moment    :      1.01215      -0.02499       0.43319
                        -----------------------------------------
Magnitude (a.u.)       :      1.10124
Magnitude (Debye)      :      2.79914

Rotational constants in cm-1:     1.618127     0.159329     0.145403
Rotational constants in MHz : 48510.230437  4776.550738  4359.068032

                             ****ORCA TERMINATED NORMALLY****
TOTAL RUN TIME: 0 days 0 hours 0 minutes 9 seconds 72 msec
