                         Program Version 5.0.3 -  RELEASE  -
|  1> ! HF-3c
|  2> !TightSCF
|  3> %scf
|  4>  ConvForced true
|  5>  convergence tight
|  6>  MaxIter 500
|  7> end
|  8>
|  9> %tddft
| 10>  nroots 1
| 11> end
| 12>
| 13> # 	5742
| 14> * xyz 0 1
| 15> 		C   -1.213308  -0.385000   0.038857
| 16> 		O   -1.259220  -1.511149  -0.358129
| 17> 		C    0.000524   0.571746  -0.174213
| 18> 		C    1.246218  -0.013903   0.091971
| 19> 		H   -2.056708   0.237080   0.554572
| 20> 		H   -0.175005   1.701120  -0.290992
| 21> 		H    1.181521  -1.100342   0.047493
| 22> 		H    2.291868   0.530593   0.063390
| 23> *
| 24>
| 25>                          ****END OF INPUT****

CARTESIAN COORDINATES (ANGSTROEM)
---------------------------------
  C     -1.213308   -0.385000    0.038857
  O     -1.259220   -1.511149   -0.358129
  C      0.000524    0.571746   -0.174213
  C      1.246218   -0.013903    0.091971
  H     -2.056708    0.237080    0.554572
  H     -0.175005    1.701120   -0.290992
  H      1.181521   -1.100342    0.047493
  H      2.291868    0.530593    0.063390

 Total Charge           Charge          ....    0
 Multiplicity           Mult            ....    1
 Number of Electrons    NEL             ....   30
 Basis Dimension        Dim             ....   24

ORBITAL ENERGIES
----------------

  NO   OCC          E(Eh)            E(eV)
   0   2.0000     -20.376634      -554.4764
   1   2.0000     -11.300702      -307.5077
   2   2.0000     -11.170608      -303.9677
   3   2.0000     -11.168606      -303.9132
   4   2.0000      -1.413927       -38.4749
   5   2.0000      -1.038891       -28.2697
   6   2.0000      -0.858863       -23.3709
   7   2.0000      -0.727168       -19.7872
   8   2.0000      -0.677109       -18.4251
   9   2.0000      -0.605073       -16.4649
  10   2.0000      -0.581422       -15.8213
  11   2.0000      -0.531832       -14.4719
  12   2.0000      -0.520557       -14.1651
  13   2.0000      -0.397775       -10.8240
  14   2.0000      -0.370335       -10.0773
  15   0.0000       0.150270         4.0891
  16   0.0000       0.263766         7.1774
  17   0.0000       0.507093        13.7987
  18   0.0000       0.559635        15.2284
  19   0.0000       0.592334        16.1182

MULLIKEN ATOMIC CHARGES
-----------------------
   0 C :    0.188510
   1 O :   -0.362529
   2 C :   -0.163131
   3 C :   -0.227226
   4 H :    0.134707
   5 H :    0.137314
   6 H :    0.147698
   7 H :    0.144658
Sum of atomic charges:    0.0000000

LOEWDIN ATOMIC CHARGES
----------------------
   0 C :    0.160399
   1 O :   -0.259915
   2 C :   -0.130496
   3 C :   -0.136600
   4 H :    0.076117
   5 H :    0.092129
   6 H :    0.096625
   7 H :    0.101740

  Mayer bond orders larger than 0.100000
B(  0-C ,  1-O ) :   1.9382 B(  0-C ,  2-C ) :   0.9821 B(  0-C ,  4-H ) :   0.9079
B(  2-C ,  3-C ) :   1.9554 B(  2-C ,  5-H ) :   0.9598 B(  3-C ,  6-H ) :   0.9605
B(  3-C ,  7-H ) :   0.9619

-----------------------------------------------------------------------------
         ABSORPTION SPECTRUM VIA TRANSITION ELECTRIC DIPOLE MOMENTS
-----------------------------------------------------------------------------
State   Energy    Wavelength  fosc         T2        TX        TY        TZ
        (cm-1)      (nm)                 (au**2)    (au)      (au)      (au)
-----------------------------------------------------------------------------
   1   35551.6    281.3   0.000310445   0.00287   0.05262   0.00060  -0.01030

Dispersion correction           -0.024992223
FINAL SINGLE POINT ENERGY      -189.302514205443

DIPOLE MOMENT
-------------
                                X             Y             Z
Electronic contribution:     -2.12278      -1.71950      -0.41076
Nuclear contribution   :      2.38902       2.65398       0.74070
                        -----------------------------------------
Total Dipole Moment    :      0.26624       0.93448       0.32994
                        -----------------------------------------
Magnitude (a.u.)       :      1.02616
Magnitude (Debye)      :      2.60829

Rotational constants in cm-1:     0.725060     0.195104     0.158557
Rotational constants in MHz : 21736.762550  5849.078382  4753.431119

                             ****ORCA TERMINATED NORMALLY****
TOTAL RUN TIME: 0 days 0 hours 0 minutes 13 seconds 207 msec
