                         Program Version 5.0.3 -  RELEASE  -
|  1> ! B3LYP cc-pVDZ
|  2> !TightSCF
|  3> %scf
|  4>  ConvForced true
|  5>  convergence tight
|  6>  MaxIter 500
|  7> end
|  8>
|  9> %tddft
| 10>  nroots 1
| 11> end
| 12>
| 13> # 	5233
| 14> * xyz 0 1
| 15> 		C   -1.219507  -0.306930  -0.012742
| 16> 		O   -1.864624  -0.879935  -0.814253
| 17> 		C    0.036511   0.424561  -0.269681
| 18> 		C    1.230001   0.059391   0.120145
| 19> 		H   -1.269397  -0.321649   1.127594
| 20> 		H   -0.060634   1.324337  -0.985306
| 21> 		H    1.178982  -0.946433   0.754603
| 22> 		H    1.968801   0.603397   0.088855
| 23> *
| 24>
| 25>                          ****END OF INPUT****

CARTESIAN COORDINATES (ANGSTROEM)
---------------------------------
  C     -1.219507   -0.306930   -0.012742
  O     -1.864624   -0.879935   -0.814253
  C      0.036511    0.424561   -0.269681
  C      1.230001    0.059391    0.120145
  H     -1.269397   -0.321649    1.127594
  H     -0.060634    1.324337   -0.985306
  H      1.178982   -0.946433    0.754603
  H      1.968801    0.603397    0.088855

 Total Charge           Charge          ....    0
 Multiplicity           Mult            ....    1
 Number of Electrons    NEL             ....   30
 Basis Dimension        Dim             ....   76

ORBITAL ENERGIES
----------------

  NO   OCC          E(Eh)            E(eV)
   0   2.0000     -19.155101      -521.2368
   1   2.0000     -10.285166      -279.8736
   2   2.0000     -10.203532      -277.6522
   3   2.0000     -10.195809      -277.4421
   4   2.0000      -1.076606       -29.2959
   5   2.0000      -0.806851       -21.9555
   6   2.0000      -0.664930       -18.0937
   7   2.0000      -0.553425       -15.0595
   8   2.0000      -0.498510       -13.5651
   9   2.0000      -0.471106       -12.8195
  10   2.0000      -0.453549       -12.3417
  11   2.0000      -0.406253       -11.0547
  12   2.0000      -0.367057        -9.9881
  13   2.0000      -0.290286        -7.8991
  14   2.0000      -0.260645        -7.0925
  15   0.0000      -0.050711        -1.3799
  16   0.0000       0.017571         0.4781
  17   0.0000       0.073574         2.0020
  18   0.0000       0.093618         2.5475
  19   0.0000       0.103691         2.8216

MULLIKEN ATOMIC CHARGES
-----------------------
   0 C :    0.169236
   1 O :   -0.143684
   2 C :   -0.151885
   3 C :    0.146667
   4 H :   -0.015290
   5 H :    0.024786
   6 H :    0.024167
   7 H :   -0.053998
Sum of atomic charges:    0.0000000

LOEWDIN ATOMIC CHARGES
----------------------
   0 C :   -0.052886
   1 O :    0.053406
   2 C :   -0.058841
   3 C :    0.003334
   4 H :   -0.005073
   5 H :    0.043354
   6 H :    0.047180
   7 H :   -0.030474

  Mayer bond orders larger than 0.100000
B(  0-C ,  1-O ) :   2.2690 B(  0-C ,  2-C ) :   0.9924 B(  0-C ,  4-H ) :   0.8934
B(  2-C ,  3-C ) :   2.0448 B(  2-C ,  5-H ) :   0.9262 B(  3-C ,  6-H ) :   0.9353
B(  3-C ,  7-H ) :   0.9254

-----------------------------------------------------------------------------
         ABSORPTION SPECTRUM VIA TRANSITION ELECTRIC DIPOLE MOMENTS
-----------------------------------------------------------------------------
State   Energy    Wavelength  fosc         T2        TX        TY        TZ
        (cm-1)      (nm)                 (au**2)    (au)      (au)      (au)
-----------------------------------------------------------------------------
   1   32482.0    307.9   0.000532491   0.00540  -0.05484  -0.01272  -0.04720

FINAL SINGLE POINT ENERGY      -191.603707978512

DIPOLE MOMENT
-------------
                                X             Y             Z
Electronic contribution:     -2.93191      -0.88643      -1.40129
Nuclear contribution   :      3.52144       1.36434       1.85240
                        -----------------------------------------
Total Dipole Moment    :      0.58953       0.47791       0.45111
                        -----------------------------------------
Magnitude (a.u.)       :      0.88286
Magnitude (Debye)      :      2.24405

Rotational constants in cm-1:     1.198394     0.161538     0.157307
Rotational constants in MHz : 35926.934492  4842.780015  4715.940396

                             ****ORCA TERMINATED NORMALLY****
TOTAL RUN TIME: 0 days 0 hours 3 minutes 21 seconds 902 msec
