                         Program Version 5.0.3 -  RELEASE  -
|  1> ! HF-3c
|  2> !TightSCF
|  3> %scf
|  4>  ConvForced true
|  5>  convergence tight
|  6>  MaxIter 500
|  7> end
|  8>
|  9> %tddft
| 10>  nroots 1
| 11> end
| 12>
| 13> # 	16001
| 14> * xyz 0 1
| 15> 		C   -1.151044  -0.280537   0.060711
| 16> 		O   -1.174845  -1.467335  -0.068957
| 17> 		C    0.027667   0.549446   0.047369
| 18> 		C    1.209370  -0.068939   0.091487
| 19> 		H   -2.179305   0.145334   0.152369
| 20> 		H   -0.114241   1.721565  -0.209015
| 21> 		H    1.386810  -1.076054  -0.002017
| 22> 		H    2.036568   0.445291  -0.036260
| 23> *
| 24>
| 25>                          ****END OF INPUT****

CARTESIAN COORDINATES (ANGSTROEM)
---------------------------------
  C     -1.151044   -0.280537    0.060711
  O     -1.174845   -1.467335   -0.068957
  C      0.027667    0.549446    0.047369
  C      1.209370   -0.068939    0.091487
  H     -2.179305    0.145334    0.152369
  H     -0.114241    1.721565   -0.209015
  H      1.386810   -1.076054   -0.002017
  H      2.036568    0.445291   -0.036260

 Total Charge           Charge          ....    0
 Multiplicity           Mult            ....    1
 Number of Electrons    NEL             ....   30
 Basis Dimension        Dim             ....   24

ORBITAL ENERGIES
----------------

  NO   OCC          E(Eh)            E(eV)
   0   2.0000     -20.361053      -554.0524
   1   2.0000     -11.293724      -307.3178
   2   2.0000     -11.200640      -304.7849
   3   2.0000     -11.195129      -304.6349
   4   2.0000      -1.412999       -38.4497
   5   2.0000      -1.089854       -29.6564
   6   2.0000      -0.904837       -24.6219
   7   2.0000      -0.757265       -20.6062
   8   2.0000      -0.705146       -19.1880
   9   2.0000      -0.626384       -17.0448
  10   2.0000      -0.599830       -16.3222
  11   2.0000      -0.553721       -15.0675
  12   2.0000      -0.528694       -14.3865
  13   2.0000      -0.410747       -11.1770
  14   2.0000      -0.396842       -10.7986
  15   0.0000       0.127292         3.4638
  16   0.0000       0.306997         8.3538
  17   0.0000       0.505875        13.7656
  18   0.0000       0.602988        16.4081
  19   0.0000       0.689369        18.7587

MULLIKEN ATOMIC CHARGES
-----------------------
   0 C :    0.157390
   1 O :   -0.355118
   2 C :   -0.151235
   3 C :   -0.249028
   4 H :    0.133885
   5 H :    0.158121
   6 H :    0.163888
   7 H :    0.142097
Sum of atomic charges:    0.0000000

LOEWDIN ATOMIC CHARGES
----------------------
   0 C :    0.135374
   1 O :   -0.257781
   2 C :   -0.113093
   3 C :   -0.136374
   4 H :    0.070747
   5 H :    0.113270
   6 H :    0.103716
   7 H :    0.084140

  Mayer bond orders larger than 0.100000
B(  0-C ,  1-O ) :   1.8961 B(  0-C ,  2-C ) :   1.0377 B(  0-C ,  4-H ) :   0.9278
B(  2-C ,  3-C ) :   1.9413 B(  2-C ,  5-H ) :   0.9515 B(  3-C ,  6-H ) :   0.9600
B(  3-C ,  7-H ) :   0.9680

-----------------------------------------------------------------------------
         ABSORPTION SPECTRUM VIA TRANSITION ELECTRIC DIPOLE MOMENTS
-----------------------------------------------------------------------------
State   Energy    Wavelength  fosc         T2        TX        TY        TZ
        (cm-1)      (nm)                 (au**2)    (au)      (au)      (au)
-----------------------------------------------------------------------------
   1   31988.3    312.6   0.000018426   0.00019  -0.00507  -0.00115   0.01275

Dispersion correction           -0.025956828
FINAL SINGLE POINT ENERGY      -189.311034400134

DIPOLE MOMENT
-------------
                                X             Y             Z
Electronic contribution:     -1.88855      -1.51423       0.15290
Nuclear contribution   :      2.15978       2.47045      -0.17058
                        -----------------------------------------
Total Dipole Moment    :      0.27122       0.95622      -0.01769
                        -----------------------------------------
Magnitude (a.u.)       :      0.99410
Magnitude (Debye)      :      2.52680

Rotational constants in cm-1:     0.751453     0.221639     0.171855
Rotational constants in MHz : 22528.003264  6644.560063  5152.094271

                             ****ORCA TERMINATED NORMALLY****
TOTAL RUN TIME: 0 days 0 hours 0 minutes 15 seconds 823 msec
