                         Program Version 5.0.3 -  RELEASE  -
|  1> ! B3LYP cc-pVDZ
|  2> !TightSCF
|  3> %scf
|  4>  ConvForced true
|  5>  convergence tight
|  6>  MaxIter 500
|  7> end
|  8>
|  9> %tddft
| 10>  nroots 1
| 11> end
| 12>
| 13> # 	5143
| 14> * xyz 0 1
| 15> 		C   -1.120774  -0.302736  -0.018989
| 16> 		O   -1.297831  -1.461304  -0.372659
| 17> 		C    0.000762   0.528165  -0.115087
| 18> 		C    1.320801   0.051672   0.097789
| 19> 		H   -2.060853   0.109593   0.385804
| 20> 		H   -0.249816   1.524484  -0.288366
| 21> 		H    1.258662  -1.034138   0.221878
| 22> 		H    2.172139   0.597623   0.082939
| 23> *
| 24>
| 25>                          ****END OF INPUT****

CARTESIAN COORDINATES (ANGSTROEM)
---------------------------------
  C     -1.120774   -0.302736   -0.018989
  O     -1.297831   -1.461304   -0.372659
  C      0.000762    0.528165   -0.115087
  C      1.320801    0.051672    0.097789
  H     -2.060853    0.109593    0.385804
  H     -0.249816    1.524484   -0.288366
  H      1.258662   -1.034138    0.221878
  H      2.172139    0.597623    0.082939

 Total Charge           Charge          ....    0
 Multiplicity           Mult            ....    1
 Number of Electrons    NEL             ....   30
 Basis Dimension        Dim             ....   76

ORBITAL ENERGIES
----------------

  NO   OCC          E(Eh)            E(eV)
   0   2.0000     -19.130329      -520.5627
   1   2.0000     -10.265264      -279.3320
   2   2.0000     -10.224243      -278.2158
   3   2.0000     -10.211608      -277.8720
   4   2.0000      -1.034488       -28.1499
   5   2.0000      -0.800472       -21.7820
   6   2.0000      -0.677171       -18.4268
   7   2.0000      -0.544876       -14.8268
   8   2.0000      -0.521504       -14.1909
   9   2.0000      -0.450795       -12.2668
  10   2.0000      -0.433582       -11.7984
  11   2.0000      -0.400599       -10.9009
  12   2.0000      -0.375399       -10.2151
  13   2.0000      -0.281295        -7.6544
  14   2.0000      -0.247485        -6.7344
  15   0.0000      -0.076817        -2.0903
  16   0.0000       0.034592         0.9413
  17   0.0000       0.080934         2.2023
  18   0.0000       0.095009         2.5853
  19   0.0000       0.126874         3.4524

MULLIKEN ATOMIC CHARGES
-----------------------
   0 C :    0.162645
   1 O :   -0.210991
   2 C :   -0.071485
   3 C :    0.109477
   4 H :   -0.027105
   5 H :   -0.017379
   6 H :    0.039842
   7 H :    0.014995
Sum of atomic charges:    0.0000000

LOEWDIN ATOMIC CHARGES
----------------------
   0 C :   -0.049644
   1 O :   -0.021667
   2 C :   -0.050886
   3 C :    0.055419
   4 H :   -0.001324
   5 H :    0.021138
   6 H :    0.039909
   7 H :    0.007056

  Mayer bond orders larger than 0.100000
B(  0-C ,  1-O ) :   2.1554 B(  0-C ,  2-C ) :   1.1005 B(  0-C ,  4-H ) :   0.9271
B(  2-C ,  3-C ) :   1.9167 B(  2-C ,  5-H ) :   0.9492 B(  3-C ,  6-H ) :   0.9357
B(  3-C ,  7-H ) :   0.9555

-----------------------------------------------------------------------------
         ABSORPTION SPECTRUM VIA TRANSITION ELECTRIC DIPOLE MOMENTS
-----------------------------------------------------------------------------
State   Energy    Wavelength  fosc         T2        TX        TY        TZ
        (cm-1)      (nm)                 (au**2)    (au)      (au)      (au)
-----------------------------------------------------------------------------
   1   25228.2    396.4   0.000716259   0.00935  -0.09540  -0.00096  -0.01565

FINAL SINGLE POINT ENERGY      -191.666208870945

DIPOLE MOMENT
-------------
                                X             Y             Z
Electronic contribution:     -1.61880      -1.44142      -0.52960
Nuclear contribution   :      2.18909       2.36823       0.77457
                        -----------------------------------------
Total Dipole Moment    :      0.57029       0.92680       0.24497
                        -----------------------------------------
Magnitude (a.u.)       :      1.11544
Magnitude (Debye)      :      2.83522

Rotational constants in cm-1:     0.828627     0.192887     0.159693
Rotational constants in MHz : 24841.609784  5782.621688  4787.476031

                             ****ORCA TERMINATED NORMALLY****
TOTAL RUN TIME: 0 days 0 hours 3 minutes 25 seconds 814 msec
