                         Program Version 5.0.3 -  RELEASE  -
|  1> ! B3LYP cc-pVDZ
|  2> !TightSCF
|  3> %scf
|  4>  ConvForced true
|  5>  convergence tight
|  6>  MaxIter 500
|  7> end
|  8>
|  9> %tddft
| 10>  nroots 1
| 11> end
| 12>
| 13> # 	22730
| 14> * xyz 0 1
| 15> 		C   -0.552197  -0.478823  -0.043706
| 16> 		O   -0.655952  -1.688255   0.015178
| 17> 		C    0.669997   0.435108   0.045873
| 18> 		C    1.873697  -0.039458   0.012830
| 19> 		H   -1.577837   0.187480   0.031423
| 20> 		H    0.505271   1.442097  -0.163593
| 21> 		H    2.018668  -1.153264  -0.229492
| 22> 		H    2.725153   0.549618  -0.065153
| 23> *
| 24>
| 25>                          ****END OF INPUT****

CARTESIAN COORDINATES (ANGSTROEM)
---------------------------------
  C     -0.552197   -0.478823   -0.043706
  O     -0.655952   -1.688255    0.015178
  C      0.669997    0.435108    0.045873
  C      1.873697   -0.039458    0.012830
  H     -1.577837    0.187480    0.031423
  H      0.505271    1.442097   -0.163593
  H      2.018668   -1.153264   -0.229492
  H      2.725153    0.549618   -0.065153

 Total Charge           Charge          ....    0
 Multiplicity           Mult            ....    1
 Number of Electrons    NEL             ....   30
 Basis Dimension        Dim             ....   76

ORBITAL ENERGIES
----------------

  NO   OCC          E(Eh)            E(eV)
   0   2.0000     -19.148245      -521.0502
   1   2.0000     -10.288613      -279.9674
   2   2.0000     -10.210688      -277.8470
   3   2.0000     -10.203490      -277.6511
   4   2.0000      -1.047456       -28.5027
   5   2.0000      -0.807678       -21.9780
   6   2.0000      -0.649808       -17.6822
   7   2.0000      -0.540187       -14.6992
   8   2.0000      -0.508047       -13.8247
   9   2.0000      -0.450428       -12.2568
  10   2.0000      -0.426282       -11.5997
  11   2.0000      -0.401637       -10.9291
  12   2.0000      -0.379077       -10.3152
  13   2.0000      -0.298410        -8.1201
  14   2.0000      -0.255297        -6.9470
  15   0.0000      -0.070064        -1.9065
  16   0.0000       0.046604         1.2682
  17   0.0000       0.068486         1.8636
  18   0.0000       0.087706         2.3866
  19   0.0000       0.118659         3.2289

MULLIKEN ATOMIC CHARGES
-----------------------
   0 C :    0.141209
   1 O :   -0.178998
   2 C :   -0.084038
   3 C :    0.088486
   4 H :   -0.017914
   5 H :   -0.015095
   6 H :    0.050795
   7 H :    0.015555
Sum of atomic charges:   -0.0000000

LOEWDIN ATOMIC CHARGES
----------------------
   0 C :   -0.027171
   1 O :   -0.002773
   2 C :   -0.080212
   3 C :    0.027568
   4 H :   -0.008468
   5 H :    0.022549
   6 H :    0.049513
   7 H :    0.018994

  Mayer bond orders larger than 0.100000
B(  0-C ,  1-O ) :   2.2031 B(  0-C ,  2-C ) :   1.0180 B(  0-C ,  4-H ) :   0.8875
B(  2-C ,  3-C ) :   1.9787 B(  2-C ,  5-H ) :   0.9470 B(  3-C ,  6-H ) :   0.9349
B(  3-C ,  7-H ) :   0.9388

-----------------------------------------------------------------------------
         ABSORPTION SPECTRUM VIA TRANSITION ELECTRIC DIPOLE MOMENTS
-----------------------------------------------------------------------------
State   Energy    Wavelength  fosc         T2        TX        TY        TZ
        (cm-1)      (nm)                 (au**2)    (au)      (au)      (au)
-----------------------------------------------------------------------------
   1   27973.3    357.5   0.000519902   0.00612   0.06532   0.01013  -0.04183

FINAL SINGLE POINT ENERGY      -191.658829540430

DIPOLE MOMENT
-------------
                                X             Y             Z
Electronic contribution:     -1.72348      -1.86721       0.25296
Nuclear contribution   :      2.28372       2.75027      -0.39971
                        -----------------------------------------
Total Dipole Moment    :      0.56025       0.88306      -0.14676
                        -----------------------------------------
Magnitude (a.u.)       :      1.05603
Magnitude (Debye)      :      2.68422

Rotational constants in cm-1:     0.818981     0.190754     0.155114
Rotational constants in MHz : 24552.438436  5718.675805  4650.200440

                             ****ORCA TERMINATED NORMALLY****
TOTAL RUN TIME: 0 days 0 hours 3 minutes 20 seconds 106 msec
