                         Program Version 5.0.3 -  RELEASE  -
|  1> ! HF-3c
|  2> !TightSCF
|  3> %scf
|  4>  ConvForced true
|  5>  convergence tight
|  6>  MaxIter 500
|  7> end
|  8>
|  9> %tddft
| 10>  nroots 1
| 11> end
| 12>
| 13> # 	9632
| 14> * xyz 0 1
| 15> 		C   -1.242778  -0.312526  -0.017264
| 16> 		O   -1.950238  -0.722473  -0.890148
| 17> 		C    0.015886   0.508112  -0.278937
| 18> 		C    1.194893   0.071744   0.178275
| 19> 		H   -1.318437  -0.642779   0.992363
| 20> 		H    0.021345   1.299192  -1.014799
| 21> 		H    1.161016  -0.781201   0.943666
| 22> 		H    2.150259   0.574040   0.058951
| 23> *
| 24>
| 25>                          ****END OF INPUT****

CARTESIAN COORDINATES (ANGSTROEM)
---------------------------------
  C     -1.242778   -0.312526   -0.017264
  O     -1.950238   -0.722473   -0.890148
  C      0.015886    0.508112   -0.278937
  C      1.194893    0.071744    0.178275
  H     -1.318437   -0.642779    0.992363
  H      0.021345    1.299192   -1.014799
  H      1.161016   -0.781201    0.943666
  H      2.150259    0.574040    0.058951

 Total Charge           Charge          ....    0
 Multiplicity           Mult            ....    1
 Number of Electrons    NEL             ....   30
 Basis Dimension        Dim             ....   24

ORBITAL ENERGIES
----------------

  NO   OCC          E(Eh)            E(eV)
   0   2.0000     -20.385266      -554.7113
   1   2.0000     -11.309393      -307.7442
   2   2.0000     -11.186324      -304.3954
   3   2.0000     -11.182517      -304.2918
   4   2.0000      -1.420895       -38.6645
   5   2.0000      -1.075331       -29.2613
   6   2.0000      -0.874316       -23.7914
   7   2.0000      -0.781741       -21.2723
   8   2.0000      -0.670819       -18.2539
   9   2.0000      -0.648806       -17.6549
  10   2.0000      -0.597619       -16.2621
  11   2.0000      -0.542402       -14.7595
  12   2.0000      -0.524260       -14.2658
  13   2.0000      -0.416749       -11.3403
  14   2.0000      -0.398552       -10.8452
  15   0.0000       0.153360         4.1731
  16   0.0000       0.260689         7.0937
  17   0.0000       0.535244        14.5647
  18   0.0000       0.608360        16.5543
  19   0.0000       0.642174        17.4744

MULLIKEN ATOMIC CHARGES
-----------------------
   0 C :    0.173713
   1 O :   -0.343150
   2 C :   -0.169201
   3 C :   -0.230810
   4 H :    0.139167
   5 H :    0.151450
   6 H :    0.133288
   7 H :    0.145544
Sum of atomic charges:   -0.0000000

LOEWDIN ATOMIC CHARGES
----------------------
   0 C :    0.155133
   1 O :   -0.241772
   2 C :   -0.125135
   3 C :   -0.140916
   4 H :    0.071092
   5 H :    0.097466
   6 H :    0.089392
   7 H :    0.094740

  Mayer bond orders larger than 0.100000
B(  0-C ,  1-O ) :   1.9404 B(  0-C ,  2-C ) :   0.9857 B(  0-C ,  4-H ) :   0.9241
B(  2-C ,  3-C ) :   1.9792 B(  2-C ,  5-H ) :   0.9548 B(  3-C ,  6-H ) :   0.9636
B(  3-C ,  7-H ) :   0.9637

-----------------------------------------------------------------------------
         ABSORPTION SPECTRUM VIA TRANSITION ELECTRIC DIPOLE MOMENTS
-----------------------------------------------------------------------------
State   Energy    Wavelength  fosc         T2        TX        TY        TZ
        (cm-1)      (nm)                 (au**2)    (au)      (au)      (au)
-----------------------------------------------------------------------------
   1   34743.2    287.8   0.000055269   0.00052   0.00558  -0.00860   0.02046

Dispersion correction           -0.025329679
FINAL SINGLE POINT ENERGY      -189.326450791518

DIPOLE MOMENT
-------------
                                X             Y             Z
Electronic contribution:     -3.09807      -0.65449      -1.21639
Nuclear contribution   :      3.84697       0.94134       1.89223
                        -----------------------------------------
Total Dipole Moment    :      0.74890       0.28685       0.67584
                        -----------------------------------------
Magnitude (a.u.)       :      1.04876
Magnitude (Debye)      :      2.66574

Rotational constants in cm-1:     1.203551     0.157971     0.150206
Rotational constants in MHz : 36081.559409  4735.842728  4503.077460

                             ****ORCA TERMINATED NORMALLY****
TOTAL RUN TIME: 0 days 0 hours 0 minutes 11 seconds 436 msec
