                         Program Version 5.0.3 -  RELEASE  -
|  1> ! HF-3c
|  2> !TightSCF
|  3> %scf
|  4>  ConvForced true
|  5>  convergence tight
|  6>  MaxIter 500
|  7> end
|  8>
|  9> %tddft
| 10>  nroots 1
| 11> end
| 12>
| 13> # 	17120
| 14> * xyz 0 1
| 15> 		C   -1.122483  -0.284525  -0.026889
| 16> 		O   -1.208768  -1.578726   0.011475
| 17> 		C    0.086372   0.479382   0.048587
| 18> 		C    1.222811   0.012628  -0.035524
| 19> 		H   -2.141417   0.234562   0.005926
| 20> 		H   -0.254289   1.642564  -0.104220
| 21> 		H    1.338502  -1.137117   0.032721
| 22> 		H    2.136217   0.600500  -0.003864
| 23> *
| 24>
| 25>                          ****END OF INPUT****

CARTESIAN COORDINATES (ANGSTROEM)
---------------------------------
  C     -1.122483   -0.284525   -0.026889
  O     -1.208768   -1.578726    0.011475
  C      0.086372    0.479382    0.048587
  C      1.222811    0.012628   -0.035524
  H     -2.141417    0.234562    0.005926
  H     -0.254289    1.642564   -0.104220
  H      1.338502   -1.137117    0.032721
  H      2.136217    0.600500   -0.003864

 Total Charge           Charge          ....    0
 Multiplicity           Mult            ....    1
 Number of Electrons    NEL             ....   30
 Basis Dimension        Dim             ....   24

ORBITAL ENERGIES
----------------

  NO   OCC          E(Eh)            E(eV)
   0   2.0000     -20.334110      -553.3193
   1   2.0000     -11.269877      -306.6689
   2   2.0000     -11.201367      -304.8047
   3   2.0000     -11.199690      -304.7590
   4   2.0000      -1.336605       -36.3709
   5   2.0000      -1.111467       -30.2445
   6   2.0000      -0.899608       -24.4796
   7   2.0000      -0.723291       -19.6818
   8   2.0000      -0.687529       -18.7086
   9   2.0000      -0.622829       -16.9480
  10   2.0000      -0.570708       -15.5298
  11   2.0000      -0.522427       -14.2160
  12   2.0000      -0.484709       -13.1896
  13   2.0000      -0.412608       -11.2276
  14   2.0000      -0.401981       -10.9385
  15   0.0000       0.124964         3.4005
  16   0.0000       0.331269         9.0143
  17   0.0000       0.452732        12.3195
  18   0.0000       0.600154        16.3310
  19   0.0000       0.606607        16.5066

MULLIKEN ATOMIC CHARGES
-----------------------
   0 C :    0.139983
   1 O :   -0.341637
   2 C :   -0.181222
   3 C :   -0.225350
   4 H :    0.138675
   5 H :    0.147969
   6 H :    0.168917
   7 H :    0.152664
Sum of atomic charges:   -0.0000000

LOEWDIN ATOMIC CHARGES
----------------------
   0 C :    0.135678
   1 O :   -0.272578
   2 C :   -0.137406
   3 C :   -0.130187
   4 H :    0.080982
   5 H :    0.104646
   6 H :    0.118502
   7 H :    0.100363

  Mayer bond orders larger than 0.100000
B(  0-C ,  1-O ) :   1.8824 B(  0-C ,  2-C ) :   1.0502 B(  0-C ,  4-H ) :   0.9366
B(  2-C ,  3-C ) :   1.9592 B(  2-C ,  5-H ) :   0.9387 B(  3-C ,  6-H ) :   0.9424
B(  3-C ,  7-H ) :   0.9565

-----------------------------------------------------------------------------
         ABSORPTION SPECTRUM VIA TRANSITION ELECTRIC DIPOLE MOMENTS
-----------------------------------------------------------------------------
State   Energy    Wavelength  fosc         T2        TX        TY        TZ
        (cm-1)      (nm)                 (au**2)    (au)      (au)      (au)
-----------------------------------------------------------------------------
   1   27380.5    365.2   0.000107914   0.00130  -0.03108  -0.00129   0.01816

Dispersion correction           -0.025841420
FINAL SINGLE POINT ENERGY      -189.319502127042

DIPOLE MOMENT
-------------
                                X             Y             Z
Electronic contribution:     -1.72922      -1.67300       0.02496
Nuclear contribution   :      2.07023       2.67335      -0.06145
                        -----------------------------------------
Total Dipole Moment    :      0.34101       1.00035      -0.03649
                        -----------------------------------------
Magnitude (a.u.)       :      1.05751
Magnitude (Debye)      :      2.68797

Rotational constants in cm-1:     0.785985     0.206495     0.163738
Rotational constants in MHz : 23563.248777  6190.578764  4908.750333

                             ****ORCA TERMINATED NORMALLY****
TOTAL RUN TIME: 0 days 0 hours 0 minutes 7 seconds 966 msec
