                         Program Version 5.0.3 -  RELEASE  -
|  1> ! HF-3c
|  2> !TightSCF
|  3> %scf
|  4>  ConvForced true
|  5>  convergence tight
|  6>  MaxIter 500
|  7> end
|  8>
|  9> %tddft
| 10>  nroots 1
| 11> end
| 12>
| 13> # 	2703
| 14> * xyz 0 1
| 15> 		C   -1.156435  -0.306909  -0.030865
| 16> 		O   -1.298615  -1.451061   0.451468
| 17> 		C   -0.010511   0.570387   0.144762
| 18> 		C    1.180238  -0.078288  -0.057199
| 19> 		H   -1.998383   0.146780  -0.605322
| 20> 		H   -0.171973   1.658751   0.506178
| 21> 		H    1.241281  -1.129618  -0.431052
| 22> 		H    2.202769   0.567476  -0.010985
| 23> *
| 24>
| 25>                          ****END OF INPUT****

CARTESIAN COORDINATES (ANGSTROEM)
---------------------------------
  C     -1.156435   -0.306909   -0.030865
  O     -1.298615   -1.451061    0.451468
  C     -0.010511    0.570387    0.144762
  C      1.180238   -0.078288   -0.057199
  H     -1.998383    0.146780   -0.605322
  H     -0.171973    1.658751    0.506178
  H      1.241281   -1.129618   -0.431052
  H      2.202769    0.567476   -0.010985

 Total Charge           Charge          ....    0
 Multiplicity           Mult            ....    1
 Number of Electrons    NEL             ....   30
 Basis Dimension        Dim             ....   24

ORBITAL ENERGIES
----------------

  NO   OCC          E(Eh)            E(eV)
   0   2.0000     -20.346937      -553.6683
   1   2.0000     -11.279903      -306.9418
   2   2.0000     -11.183902      -304.3294
   3   2.0000     -11.182204      -304.2832
   4   2.0000      -1.367116       -37.2011
   5   2.0000      -1.066319       -29.0160
   6   2.0000      -0.873638       -23.7729
   7   2.0000      -0.732719       -19.9383
   8   2.0000      -0.677715       -18.4416
   9   2.0000      -0.596091       -16.2205
  10   2.0000      -0.582896       -15.8614
  11   2.0000      -0.523820       -14.2539
  12   2.0000      -0.491679       -13.3793
  13   2.0000      -0.405147       -11.0246
  14   2.0000      -0.379986       -10.3399
  15   0.0000       0.147393         4.0108
  16   0.0000       0.256040         6.9672
  17   0.0000       0.522710        14.2237
  18   0.0000       0.563545        15.3348
  19   0.0000       0.600601        16.3432

MULLIKEN ATOMIC CHARGES
-----------------------
   0 C :    0.152973
   1 O :   -0.350956
   2 C :   -0.183033
   3 C :   -0.196092
   4 H :    0.130339
   5 H :    0.155773
   6 H :    0.151661
   7 H :    0.139335
Sum of atomic charges:    0.0000000

LOEWDIN ATOMIC CHARGES
----------------------
   0 C :    0.146000
   1 O :   -0.270391
   2 C :   -0.143446
   3 C :   -0.110669
   4 H :    0.069855
   5 H :    0.108885
   6 H :    0.101444
   7 H :    0.098323

  Mayer bond orders larger than 0.100000
B(  0-C ,  1-O ) :   1.9054 B(  0-C ,  2-C ) :   1.0365 B(  0-C ,  4-H ) :   0.9247
B(  2-C ,  3-C ) :   1.9405 B(  2-C ,  5-H ) :   0.9502 B(  3-C ,  6-H ) :   0.9612
B(  3-C ,  7-H ) :   0.9617

-----------------------------------------------------------------------------
         ABSORPTION SPECTRUM VIA TRANSITION ELECTRIC DIPOLE MOMENTS
-----------------------------------------------------------------------------
State   Energy    Wavelength  fosc         T2        TX        TY        TZ
        (cm-1)      (nm)                 (au**2)    (au)      (au)      (au)
-----------------------------------------------------------------------------
   1   31905.0    313.4   0.000005548   0.00006   0.00478  -0.00225   0.00542

Dispersion correction           -0.025331299
FINAL SINGLE POINT ENERGY      -189.318434060235

DIPOLE MOMENT
-------------
                                X             Y             Z
Electronic contribution:     -2.01385      -1.53176       0.59724
Nuclear contribution   :      2.47492       2.47144      -0.99554
                        -----------------------------------------
Total Dipole Moment    :      0.46107       0.93968      -0.39830
                        -----------------------------------------
Magnitude (a.u.)       :      1.11992
Magnitude (Debye)      :      2.84661

Rotational constants in cm-1:     0.723796     0.204684     0.167063
Rotational constants in MHz : 21698.853944  6136.281931  5008.419770

                             ****ORCA TERMINATED NORMALLY****
TOTAL RUN TIME: 0 days 0 hours 0 minutes 16 seconds 39 msec
