                         Program Version 5.0.3 -  RELEASE  -
|  1> ! HF-3c
|  2> !TightSCF
|  3> %scf
|  4>  ConvForced true
|  5>  convergence tight
|  6>  MaxIter 500
|  7> end
|  8>
|  9> %tddft
| 10>  nroots 1
| 11> end
| 12>
| 13> # 	5246
| 14> * xyz 0 1
| 15> 		C   -1.212625  -0.349886  -0.009105
| 16> 		O   -1.361456  -1.401238  -0.488902
| 17> 		C    0.008237   0.474825  -0.182209
| 18> 		C    1.202513  -0.021275   0.103164
| 19> 		H   -2.007838   0.224168   0.614135
| 20> 		H   -0.056078   1.447022  -0.422696
| 21> 		H    1.444550  -0.961913   0.265867
| 22> 		H    2.030848   0.613680   0.055007
| 23> *
| 24>
| 25>                          ****END OF INPUT****

CARTESIAN COORDINATES (ANGSTROEM)
---------------------------------
  C     -1.212625   -0.349886   -0.009105
  O     -1.361456   -1.401238   -0.488902
  C      0.008237    0.474825   -0.182209
  C      1.202513   -0.021275    0.103164
  H     -2.007838    0.224168    0.614135
  H     -0.056078    1.447022   -0.422696
  H      1.444550   -0.961913    0.265867
  H      2.030848    0.613680    0.055007

 Total Charge           Charge          ....    0
 Multiplicity           Mult            ....    1
 Number of Electrons    NEL             ....   30
 Basis Dimension        Dim             ....   24

ORBITAL ENERGIES
----------------

  NO   OCC          E(Eh)            E(eV)
   0   2.0000     -20.392443      -554.9066
   1   2.0000     -11.315722      -307.9165
   2   2.0000     -11.196505      -304.6724
   3   2.0000     -11.191352      -304.5322
   4   2.0000      -1.443940       -39.2916
   5   2.0000      -1.095804       -29.8183
   6   2.0000      -0.901840       -24.5403
   7   2.0000      -0.774347       -21.0711
   8   2.0000      -0.718284       -19.5455
   9   2.0000      -0.637970       -17.3601
  10   2.0000      -0.627520       -17.0757
  11   2.0000      -0.572046       -15.5662
  12   2.0000      -0.543044       -14.7770
  13   2.0000      -0.410707       -11.1759
  14   2.0000      -0.409928       -11.1547
  15   0.0000       0.158720         4.3190
  16   0.0000       0.264431         7.1955
  17   0.0000       0.560232        15.2447
  18   0.0000       0.649566        17.6756
  19   0.0000       0.698027        18.9943

MULLIKEN ATOMIC CHARGES
-----------------------
   0 C :    0.198699
   1 O :   -0.352536
   2 C :   -0.174766
   3 C :   -0.247805
   4 H :    0.134969
   5 H :    0.148765
   6 H :    0.148482
   7 H :    0.144192
Sum of atomic charges:   -0.0000000

LOEWDIN ATOMIC CHARGES
----------------------
   0 C :    0.161665
   1 O :   -0.240599
   2 C :   -0.123179
   3 C :   -0.140681
   4 H :    0.074412
   5 H :    0.089563
   6 H :    0.088225
   7 H :    0.090592

  Mayer bond orders larger than 0.100000
B(  0-C ,  1-O ) :   1.9458 B(  0-C ,  2-C ) :   0.9925 B(  0-C ,  4-H ) :   0.9045
B(  2-C ,  3-C ) :   1.9744 B(  2-C ,  5-H ) :   0.9587 B(  3-C ,  6-H ) :   0.9675
B(  3-C ,  7-H ) :   0.9655

-----------------------------------------------------------------------------
         ABSORPTION SPECTRUM VIA TRANSITION ELECTRIC DIPOLE MOMENTS
-----------------------------------------------------------------------------
State   Energy    Wavelength  fosc         T2        TX        TY        TZ
        (cm-1)      (nm)                 (au**2)    (au)      (au)      (au)
-----------------------------------------------------------------------------
   1   36842.1    271.4   0.000178144   0.00159  -0.03774   0.00460   0.01209

Dispersion correction           -0.025828639
FINAL SINGLE POINT ENERGY      -189.299128377600

DIPOLE MOMENT
-------------
                                X             Y             Z
Electronic contribution:     -2.39617      -1.70512      -0.63815
Nuclear contribution   :      2.67373       2.55367       1.03549
                        -----------------------------------------
Total Dipole Moment    :      0.27756       0.84855       0.39734
                        -----------------------------------------
Magnitude (a.u.)       :      0.97722
Magnitude (Debye)      :      2.48389

Rotational constants in cm-1:     0.865178     0.195694     0.166648
Rotational constants in MHz : 25937.390200  5866.754752  4995.967868

                             ****ORCA TERMINATED NORMALLY****
TOTAL RUN TIME: 0 days 0 hours 0 minutes 11 seconds 325 msec
