                         Program Version 5.0.3 -  RELEASE  -
|  1> ! HF-3c
|  2> !TightSCF
|  3> %scf
|  4>  ConvForced true
|  5>  convergence tight
|  6>  MaxIter 500
|  7> end
|  8>
|  9> %tddft
| 10>  nroots 1
| 11> end
| 12>
| 13> # 	19610
| 14> * xyz 0 1
| 15> 		C   -1.139054  -0.356756  -0.001874
| 16> 		O   -1.450217  -1.319219   0.651684
| 17> 		C    0.031711   0.488311   0.172780
| 18> 		C    1.313006   0.025971  -0.058938
| 19> 		H   -1.954257  -0.008600  -0.685257
| 20> 		H   -0.179869   1.625291   0.276894
| 21> 		H    1.410639  -1.020601  -0.333370
| 22> 		H    2.001585   0.630845  -0.038919
| 23> *
| 24>
| 25>                          ****END OF INPUT****

CARTESIAN COORDINATES (ANGSTROEM)
---------------------------------
  C     -1.139054   -0.356756   -0.001874
  O     -1.450217   -1.319219    0.651684
  C      0.031711    0.488311    0.172780
  C      1.313006    0.025971   -0.058938
  H     -1.954257   -0.008600   -0.685257
  H     -0.179869    1.625291    0.276894
  H      1.410639   -1.020601   -0.333370
  H      2.001585    0.630845   -0.038919

 Total Charge           Charge          ....    0
 Multiplicity           Mult            ....    1
 Number of Electrons    NEL             ....   30
 Basis Dimension        Dim             ....   24

ORBITAL ENERGIES
----------------

  NO   OCC          E(Eh)            E(eV)
   0   2.0000     -20.370966      -554.3222
   1   2.0000     -11.299320      -307.4701
   2   2.0000     -11.199630      -304.7574
   3   2.0000     -11.191947      -304.5484
   4   2.0000      -1.409765       -38.3616
   5   2.0000      -1.079823       -29.3835
   6   2.0000      -0.909162       -24.7396
   7   2.0000      -0.755858       -20.5679
   8   2.0000      -0.701630       -19.0923
   9   2.0000      -0.640086       -17.4176
  10   2.0000      -0.608701       -16.5636
  11   2.0000      -0.558785       -15.2053
  12   2.0000      -0.510386       -13.8883
  13   2.0000      -0.415662       -11.3107
  14   2.0000      -0.391443       -10.6517
  15   0.0000       0.143333         3.9003
  16   0.0000       0.243162         6.6168
  17   0.0000       0.560769        15.2593
  18   0.0000       0.593955        16.1623
  19   0.0000       0.671818        18.2811

MULLIKEN ATOMIC CHARGES
-----------------------
   0 C :    0.155104
   1 O :   -0.344005
   2 C :   -0.135948
   3 C :   -0.263705
   4 H :    0.137814
   5 H :    0.153474
   6 H :    0.157579
   7 H :    0.139686
Sum of atomic charges:   -0.0000000

LOEWDIN ATOMIC CHARGES
----------------------
   0 C :    0.136456
   1 O :   -0.248373
   2 C :   -0.096216
   3 C :   -0.156961
   4 H :    0.075308
   5 H :    0.106380
   6 H :    0.105732
   7 H :    0.077674

  Mayer bond orders larger than 0.100000
B(  0-C ,  1-O ) :   1.9205 B(  0-C ,  2-C ) :   1.0240 B(  0-C ,  4-H ) :   0.9195
B(  2-C ,  3-C ) :   1.9593 B(  2-C ,  5-H ) :   0.9484 B(  3-C ,  6-H ) :   0.9639
B(  3-C ,  7-H ) :   0.9724

-----------------------------------------------------------------------------
         ABSORPTION SPECTRUM VIA TRANSITION ELECTRIC DIPOLE MOMENTS
-----------------------------------------------------------------------------
State   Energy    Wavelength  fosc         T2        TX        TY        TZ
        (cm-1)      (nm)                 (au**2)    (au)      (au)      (au)
-----------------------------------------------------------------------------
   1   33232.3    300.9   0.000710802   0.00704  -0.08250  -0.01262  -0.00872

Dispersion correction           -0.025269028
FINAL SINGLE POINT ENERGY      -189.290484831446

DIPOLE MOMENT
-------------
                                X             Y             Z
Electronic contribution:     -2.17279      -1.53502       0.91501
Nuclear contribution   :      2.48423       2.33965      -1.46089
                        -----------------------------------------
Total Dipole Moment    :      0.31144       0.80463      -0.54588
                        -----------------------------------------
Magnitude (a.u.)       :      1.02098
Magnitude (Debye)      :      2.59512

Rotational constants in cm-1:     0.888449     0.180426     0.158343
Rotational constants in MHz : 26635.042760  5409.042425  4747.013402

                             ****ORCA TERMINATED NORMALLY****
TOTAL RUN TIME: 0 days 0 hours 0 minutes 9 seconds 925 msec
