                         Program Version 5.0.3 -  RELEASE  -
|  1> ! HF-3c
|  2> !TightSCF
|  3> %scf
|  4>  ConvForced true
|  5>  convergence tight
|  6>  MaxIter 500
|  7> end
|  8>
|  9> %tddft
| 10>  nroots 1
| 11> end
| 12>
| 13> # 	12015
| 14> * xyz 0 1
| 15> 		C   -1.270042  -0.364720   0.094393
| 16> 		O   -2.031716  -0.623082   0.868503
| 17> 		C   -0.005063   0.413458   0.310887
| 18> 		C    1.154208   0.066118  -0.229015
| 19> 		H   -1.216691  -0.682902  -0.920726
| 20> 		H   -0.007732   1.200798   0.961681
| 21> 		H    1.220759  -0.648996  -1.087655
| 22> 		H    2.150412   0.604099  -0.070873
| 23> *
| 24>
| 25>                          ****END OF INPUT****

CARTESIAN COORDINATES (ANGSTROEM)
---------------------------------
  C     -1.270042   -0.364720    0.094393
  O     -2.031716   -0.623082    0.868503
  C     -0.005063    0.413458    0.310887
  C      1.154208    0.066118   -0.229015
  H     -1.216691   -0.682902   -0.920726
  H     -0.007732    1.200798    0.961681
  H      1.220759   -0.648996   -1.087655
  H      2.150412    0.604099   -0.070873

 Total Charge           Charge          ....    0
 Multiplicity           Mult            ....    1
 Number of Electrons    NEL             ....   30
 Basis Dimension        Dim             ....   24

ORBITAL ENERGIES
----------------

  NO   OCC          E(Eh)            E(eV)
   0   2.0000     -20.416353      -555.5572
   1   2.0000     -11.334876      -308.4377
   2   2.0000     -11.185810      -304.3814
   3   2.0000     -11.180675      -304.2416
   4   2.0000      -1.488673       -40.5088
   5   2.0000      -1.083939       -29.4955
   6   2.0000      -0.880999       -23.9732
   7   2.0000      -0.795406       -21.6441
   8   2.0000      -0.692865       -18.8538
   9   2.0000      -0.659871       -17.9560
  10   2.0000      -0.618696       -16.8356
  11   2.0000      -0.578016       -15.7286
  12   2.0000      -0.537809       -14.6345
  13   2.0000      -0.415148       -11.2967
  14   2.0000      -0.397731       -10.8228
  15   0.0000       0.159888         4.3508
  16   0.0000       0.291198         7.9239
  17   0.0000       0.539173        14.6716
  18   0.0000       0.634976        17.2786
  19   0.0000       0.668457        18.1896

MULLIKEN ATOMIC CHARGES
-----------------------
   0 C :    0.208686
   1 O :   -0.358143
   2 C :   -0.189065
   3 C :   -0.218822
   4 H :    0.131809
   5 H :    0.147123
   6 H :    0.133062
   7 H :    0.145350
Sum of atomic charges:    0.0000000

LOEWDIN ATOMIC CHARGES
----------------------
   0 C :    0.165172
   1 O :   -0.224867
   2 C :   -0.145570
   3 C :   -0.129561
   4 H :    0.060498
   5 H :    0.089261
   6 H :    0.086563
   7 H :    0.098505

  Mayer bond orders larger than 0.100000
B(  0-C ,  1-O ) :   1.9476 B(  0-C ,  2-C ) :   0.9741 B(  0-C ,  4-H ) :   0.9090
B(  2-C ,  3-C ) :   1.9779 B(  2-C ,  5-H ) :   0.9579 B(  3-C ,  6-H ) :   0.9645
B(  3-C ,  7-H ) :   0.9619

-----------------------------------------------------------------------------
         ABSORPTION SPECTRUM VIA TRANSITION ELECTRIC DIPOLE MOMENTS
-----------------------------------------------------------------------------
State   Energy    Wavelength  fosc         T2        TX        TY        TZ
        (cm-1)      (nm)                 (au**2)    (au)      (au)      (au)
-----------------------------------------------------------------------------
   1   39218.0    255.0   0.000154309   0.00130  -0.03473  -0.00282  -0.00901

Dispersion correction           -0.025702245
FINAL SINGLE POINT ENERGY      -189.283699081977

DIPOLE MOMENT
-------------
                                X             Y             Z
Electronic contribution:     -3.28904      -0.76095       1.36723
Nuclear contribution   :      4.12051       0.97969      -2.03596
                        -----------------------------------------
Total Dipole Moment    :      0.83146       0.21874      -0.66872
                        -----------------------------------------
Magnitude (a.u.)       :      1.08921
Magnitude (Debye)      :      2.76855

Rotational constants in cm-1:     1.486461     0.158507     0.148786
Rotational constants in MHz : 44562.991367  4751.915390  4460.506611

                             ****ORCA TERMINATED NORMALLY****
TOTAL RUN TIME: 0 days 0 hours 0 minutes 16 seconds 121 msec
