                         Program Version 5.0.3 -  RELEASE  -
|  1> ! HF-3c
|  2> !TightSCF
|  3> %scf
|  4>  ConvForced true
|  5>  convergence tight
|  6>  MaxIter 500
|  7> end
|  8>
|  9> %tddft
| 10>  nroots 1
| 11> end
| 12>
| 13> # 	26435
| 14> * xyz 0 1
| 15> 		C   -0.567427  -0.456859  -0.030817
| 16> 		O   -0.556872  -1.619106   0.024983
| 17> 		C    0.617503   0.468593   0.074979
| 18> 		C    1.810310  -0.144940  -0.071088
| 19> 		H   -1.527155   0.018859  -0.314911
| 20> 		H    0.430500   1.626364   0.041468
| 21> 		H    1.830680  -1.350854   0.073090
| 22> 		H    2.897408   0.230840   0.138008
| 23> *
| 24>
| 25>                          ****END OF INPUT****

CARTESIAN COORDINATES (ANGSTROEM)
---------------------------------
  C     -0.567427   -0.456859   -0.030817
  O     -0.556872   -1.619106    0.024983
  C      0.617503    0.468593    0.074979
  C      1.810310   -0.144940   -0.071088
  H     -1.527155    0.018859   -0.314911
  H      0.430500    1.626364    0.041468
  H      1.830680   -1.350854    0.073090
  H      2.897408    0.230840    0.138008

 Total Charge           Charge          ....    0
 Multiplicity           Mult            ....    1
 Number of Electrons    NEL             ....   30
 Basis Dimension        Dim             ....   24

ORBITAL ENERGIES
----------------

  NO   OCC          E(Eh)            E(eV)
   0   2.0000     -20.372464      -554.3629
   1   2.0000     -11.302039      -307.5441
   2   2.0000     -11.178824      -304.1913
   3   2.0000     -11.177309      -304.1500
   4   2.0000      -1.435416       -39.0596
   5   2.0000      -1.056281       -28.7429
   6   2.0000      -0.862901       -23.4807
   7   2.0000      -0.732436       -19.9306
   8   2.0000      -0.686434       -18.6788
   9   2.0000      -0.608966       -16.5708
  10   2.0000      -0.586165       -15.9504
  11   2.0000      -0.551884       -15.0175
  12   2.0000      -0.489643       -13.3239
  13   2.0000      -0.403651       -10.9839
  14   2.0000      -0.384919       -10.4742
  15   0.0000       0.145982         3.9724
  16   0.0000       0.305682         8.3180
  17   0.0000       0.479826        13.0567
  18   0.0000       0.558152        15.1881
  19   0.0000       0.588045        16.0015

MULLIKEN ATOMIC CHARGES
-----------------------
   0 C :    0.182178
   1 O :   -0.370419
   2 C :   -0.181350
   3 C :   -0.198197
   4 H :    0.126948
   5 H :    0.145813
   6 H :    0.152224
   7 H :    0.142802
Sum of atomic charges:    0.0000000

LOEWDIN ATOMIC CHARGES
----------------------
   0 C :    0.151240
   1 O :   -0.259824
   2 C :   -0.147547
   3 C :   -0.114323
   4 H :    0.062855
   5 H :    0.100693
   6 H :    0.108645
   7 H :    0.098262

  Mayer bond orders larger than 0.100000
B(  0-C ,  1-O ) :   1.9169 B(  0-C ,  2-C ) :   0.9984 B(  0-C ,  4-H ) :   0.9199
B(  2-C ,  3-C ) :   1.9493 B(  2-C ,  5-H ) :   0.9551 B(  3-C ,  6-H ) :   0.9500
B(  3-C ,  7-H ) :   0.9613

-----------------------------------------------------------------------------
         ABSORPTION SPECTRUM VIA TRANSITION ELECTRIC DIPOLE MOMENTS
-----------------------------------------------------------------------------
State   Energy    Wavelength  fosc         T2        TX        TY        TZ
        (cm-1)      (nm)                 (au**2)    (au)      (au)      (au)
-----------------------------------------------------------------------------
   1   35927.0    278.3   0.000093083   0.00085   0.01980  -0.00572  -0.02069

Dispersion correction           -0.025500803
FINAL SINGLE POINT ENERGY      -189.293247806453

DIPOLE MOMENT
-------------
                                X             Y             Z
Electronic contribution:     -1.87750      -1.43359       0.03007
Nuclear contribution   :      2.24983       2.28148      -0.05903
                        -----------------------------------------
Total Dipole Moment    :      0.37233       0.84789      -0.02895
                        -----------------------------------------
Magnitude (a.u.)       :      0.92649
Magnitude (Debye)      :      2.35496

Rotational constants in cm-1:     0.725678     0.215635     0.167147
Rotational constants in MHz : 21755.290350  6464.585507  5010.937147

                             ****ORCA TERMINATED NORMALLY****
TOTAL RUN TIME: 0 days 0 hours 0 minutes 16 seconds 108 msec
