                         Program Version 5.0.3 -  RELEASE  -
|  1> ! HF-3c
|  2> !TightSCF
|  3> %scf
|  4>  ConvForced true
|  5>  convergence tight
|  6>  MaxIter 500
|  7> end
|  8>
|  9> %tddft
| 10>  nroots 1
| 11> end
| 12>
| 13> # 	28408
| 14> * xyz 0 1
| 15> 		C   -0.646508  -0.468667  -0.029457
| 16> 		O   -0.526939  -1.604031  -0.000419
| 17> 		C    0.614696   0.449707   0.028781
| 18> 		C    1.863485  -0.160836  -0.012052
| 19> 		H   -1.667369   0.119988   0.093555
| 20> 		H    0.660793   1.564792   0.000784
| 21> 		H    1.794914  -1.239367   0.233111
| 22> 		H    2.704563   0.392608  -0.183548
| 23> *
| 24>
| 25>                          ****END OF INPUT****

CARTESIAN COORDINATES (ANGSTROEM)
---------------------------------
  C     -0.646508   -0.468667   -0.029457
  O     -0.526939   -1.604031   -0.000419
  C      0.614696    0.449707    0.028781
  C      1.863485   -0.160836   -0.012052
  H     -1.667369    0.119988    0.093555
  H      0.660793    1.564792    0.000784
  H      1.794914   -1.239367    0.233111
  H      2.704563    0.392608   -0.183548

 Total Charge           Charge          ....    0
 Multiplicity           Mult            ....    1
 Number of Electrons    NEL             ....   30
 Basis Dimension        Dim             ....   24

ORBITAL ENERGIES
----------------

  NO   OCC          E(Eh)            E(eV)
   0   2.0000     -20.395623      -554.9931
   1   2.0000     -11.319923      -308.0308
   2   2.0000     -11.170625      -303.9682
   3   2.0000     -11.164099      -303.7906
   4   2.0000      -1.462831       -39.8057
   5   2.0000      -1.046167       -28.4677
   6   2.0000      -0.862355       -23.4659
   7   2.0000      -0.739508       -20.1230
   8   2.0000      -0.704556       -19.1719
   9   2.0000      -0.623553       -16.9677
  10   2.0000      -0.597881       -16.2692
  11   2.0000      -0.572237       -15.5714
  12   2.0000      -0.521016       -14.1776
  13   2.0000      -0.404133       -10.9970
  14   2.0000      -0.371925       -10.1206
  15   0.0000       0.142348         3.8735
  16   0.0000       0.299386         8.1467
  17   0.0000       0.507595        13.8124
  18   0.0000       0.576929        15.6990
  19   0.0000       0.641928        17.4677

MULLIKEN ATOMIC CHARGES
-----------------------
   0 C :    0.205819
   1 O :   -0.370737
   2 C :   -0.165963
   3 C :   -0.241251
   4 H :    0.136211
   5 H :    0.134625
   6 H :    0.160884
   7 H :    0.140412
Sum of atomic charges:    0.0000000

LOEWDIN ATOMIC CHARGES
----------------------
   0 C :    0.159681
   1 O :   -0.247874
   2 C :   -0.133371
   3 C :   -0.138020
   4 H :    0.076422
   5 H :    0.087396
   6 H :    0.109070
   7 H :    0.086697

  Mayer bond orders larger than 0.100000
B(  0-C ,  1-O ) :   1.9390 B(  0-C ,  2-C ) :   0.9755 B(  0-C ,  4-H ) :   0.9022
B(  2-C ,  3-C ) :   1.9565 B(  2-C ,  5-H ) :   0.9647 B(  3-C ,  6-H ) :   0.9583
B(  3-C ,  7-H ) :   0.9704

-----------------------------------------------------------------------------
         ABSORPTION SPECTRUM VIA TRANSITION ELECTRIC DIPOLE MOMENTS
-----------------------------------------------------------------------------
State   Energy    Wavelength  fosc         T2        TX        TY        TZ
        (cm-1)      (nm)                 (au**2)    (au)      (au)      (au)
-----------------------------------------------------------------------------
   1   37366.0    267.6   0.000505140   0.00445  -0.06610  -0.00626   0.00646

Dispersion correction           -0.025589436
FINAL SINGLE POINT ENERGY      -189.290874325147

DIPOLE MOMENT
-------------
                                X             Y             Z
Electronic contribution:     -2.03372      -1.72385      -0.11972
Nuclear contribution   :      2.12068       2.57539       0.13598
                        -----------------------------------------
Total Dipole Moment    :      0.08696       0.85154       0.01626
                        -----------------------------------------
Magnitude (a.u.)       :      0.85612
Magnitude (Debye)      :      2.17609

Rotational constants in cm-1:     0.731296     0.212586     0.165092
Rotational constants in MHz : 21923.707911  6373.182497  4949.347249

                             ****ORCA TERMINATED NORMALLY****
TOTAL RUN TIME: 0 days 0 hours 0 minutes 12 seconds 77 msec
