                         Program Version 5.0.3 -  RELEASE  -
|  1> ! B3LYP cc-pVDZ
|  2> !TightSCF
|  3> %scf
|  4>  ConvForced true
|  5>  convergence tight
|  6>  MaxIter 500
|  7> end
|  8>
|  9> %tddft
| 10>  nroots 1
| 11> end
| 12>
| 13> # 	8883
| 14> * xyz 0 1
| 15> 		C   -1.109533  -0.282152  -0.009919
| 16> 		O   -1.329786  -1.448509  -0.484096
| 17> 		C   -0.022350   0.628312  -0.125161
| 18> 		C    1.168723  -0.023654   0.096725
| 19> 		H   -1.963457   0.039005   0.676947
| 20> 		H   -0.080153   1.687854  -0.412880
| 21> 		H    1.112526  -1.139249   0.286127
| 22> 		H    2.198587   0.524508  -0.039422
| 23> *
| 24>
| 25>                          ****END OF INPUT****

CARTESIAN COORDINATES (ANGSTROEM)
---------------------------------
  C     -1.109533   -0.282152   -0.009919
  O     -1.329786   -1.448509   -0.484096
  C     -0.022350    0.628312   -0.125161
  C      1.168723   -0.023654    0.096725
  H     -1.963457    0.039005    0.676947
  H     -0.080153    1.687854   -0.412880
  H      1.112526   -1.139249    0.286127
  H      2.198587    0.524508   -0.039422

 Total Charge           Charge          ....    0
 Multiplicity           Mult            ....    1
 Number of Electrons    NEL             ....   30
 Basis Dimension        Dim             ....   76

ORBITAL ENERGIES
----------------

  NO   OCC          E(Eh)            E(eV)
   0   2.0000     -19.138368      -520.7815
   1   2.0000     -10.280484      -279.7462
   2   2.0000     -10.232004      -278.4270
   3   2.0000     -10.218970      -278.0723
   4   2.0000      -1.010338       -27.4927
   5   2.0000      -0.807772       -21.9806
   6   2.0000      -0.651151       -17.7187
   7   2.0000      -0.548784       -14.9332
   8   2.0000      -0.502367       -13.6701
   9   2.0000      -0.436115       -11.8673
  10   2.0000      -0.427111       -11.6223
  11   2.0000      -0.393803       -10.7159
  12   2.0000      -0.357169        -9.7191
  13   2.0000      -0.286961        -7.8086
  14   2.0000      -0.249913        -6.8005
  15   0.0000      -0.067079        -1.8253
  16   0.0000       0.002953         0.0804
  17   0.0000       0.068170         1.8550
  18   0.0000       0.085515         2.3270
  19   0.0000       0.106263         2.8916

MULLIKEN ATOMIC CHARGES
-----------------------
   0 C :    0.173328
   1 O :   -0.241263
   2 C :   -0.057636
   3 C :   -0.009468
   4 H :   -0.005576
   5 H :    0.025419
   6 H :    0.061027
   7 H :    0.054168
Sum of atomic charges:    0.0000000

LOEWDIN ATOMIC CHARGES
----------------------
   0 C :   -0.001078
   1 O :   -0.067807
   2 C :   -0.071172
   3 C :    0.006183
   4 H :    0.001606
   5 H :    0.043261
   6 H :    0.044406
   7 H :    0.044601

  Mayer bond orders larger than 0.100000
B(  0-C ,  1-O ) :   2.1250 B(  0-C ,  2-C ) :   1.0486 B(  0-C ,  4-H ) :   0.9219
B(  2-C ,  3-C ) :   1.9319 B(  2-C ,  5-H ) :   0.9487 B(  3-C ,  6-H ) :   0.9349
B(  3-C ,  7-H ) :   0.9456

-----------------------------------------------------------------------------
         ABSORPTION SPECTRUM VIA TRANSITION ELECTRIC DIPOLE MOMENTS
-----------------------------------------------------------------------------
State   Energy    Wavelength  fosc         T2        TX        TY        TZ
        (cm-1)      (nm)                 (au**2)    (au)      (au)      (au)
-----------------------------------------------------------------------------
   1   26776.6    373.5   0.000722191   0.00888   0.09249  -0.00285   0.01778

FINAL SINGLE POINT ENERGY      -191.657013600257

DIPOLE MOMENT
-------------
                                X             Y             Z
Electronic contribution:     -1.90686      -1.28525      -0.71038
Nuclear contribution   :      2.48358       2.24364       0.98886
                        -----------------------------------------
Total Dipole Moment    :      0.57672       0.95839       0.27848
                        -----------------------------------------
Magnitude (a.u.)       :      1.15268
Magnitude (Debye)      :      2.92987

Rotational constants in cm-1:     0.749761     0.200758     0.165254
Rotational constants in MHz : 22477.267116  6018.566679  4954.202425

                             ****ORCA TERMINATED NORMALLY****
TOTAL RUN TIME: 0 days 0 hours 2 minutes 55 seconds 280 msec
