                         Program Version 5.0.3 -  RELEASE  -
|  1> ! B3LYP cc-pVDZ
|  2> !TightSCF
|  3> %scf
|  4>  ConvForced true
|  5>  convergence tight
|  6>  MaxIter 500
|  7> end
|  8>
|  9> %tddft
| 10>  nroots 1
| 11> end
| 12>
| 13> # 	20979
| 14> * xyz 0 1
| 15> 		C   -0.557552  -0.495194   0.006338
| 16> 		O   -0.646665  -1.663115  -0.003925
| 17> 		C    0.657833   0.426480   0.011834
| 18> 		C    1.850966  -0.039851  -0.000982
| 19> 		H   -1.421218   0.266362  -0.084525
| 20> 		H    0.542497   1.334081  -0.006171
| 21> 		H    1.998972  -1.109084   0.055190
| 22> 		H    2.854682   0.437166  -0.112989
| 23> *
| 24>
| 25>                          ****END OF INPUT****

CARTESIAN COORDINATES (ANGSTROEM)
---------------------------------
  C     -0.557552   -0.495194    0.006338
  O     -0.646665   -1.663115   -0.003925
  C      0.657833    0.426480    0.011834
  C      1.850966   -0.039851   -0.000982
  H     -1.421218    0.266362   -0.084525
  H      0.542497    1.334081   -0.006171
  H      1.998972   -1.109084    0.055190
  H      2.854682    0.437166   -0.112989

 Total Charge           Charge          ....    0
 Multiplicity           Mult            ....    1
 Number of Electrons    NEL             ....   30
 Basis Dimension        Dim             ....   76

ORBITAL ENERGIES
----------------

  NO   OCC          E(Eh)            E(eV)
   0   2.0000     -19.150147      -521.1020
   1   2.0000     -10.281974      -279.7867
   2   2.0000     -10.204026      -277.6657
   3   2.0000     -10.181874      -277.0629
   4   2.0000      -1.074062       -29.2267
   5   2.0000      -0.810755       -22.0618
   6   2.0000      -0.654445       -17.8083
   7   2.0000      -0.563274       -15.3275
   8   2.0000      -0.509825       -13.8731
   9   2.0000      -0.459057       -12.4916
  10   2.0000      -0.434868       -11.8334
  11   2.0000      -0.413606       -11.2548
  12   2.0000      -0.377324       -10.2675
  13   2.0000      -0.299663        -8.1543
  14   2.0000      -0.256500        -6.9797
  15   0.0000      -0.059042        -1.6066
  16   0.0000       0.065349         1.7782
  17   0.0000       0.076158         2.0724
  18   0.0000       0.090734         2.4690
  19   0.0000       0.136444         3.7128

MULLIKEN ATOMIC CHARGES
-----------------------
   0 C :    0.168969
   1 O :   -0.143023
   2 C :    0.000135
   3 C :    0.067534
   4 H :   -0.032006
   5 H :   -0.114302
   6 H :    0.020178
   7 H :    0.032516
Sum of atomic charges:   -0.0000000

LOEWDIN ATOMIC CHARGES
----------------------
   0 C :   -0.041912
   1 O :    0.045886
   2 C :   -0.059388
   3 C :    0.029955
   4 H :   -0.014113
   5 H :   -0.025579
   6 H :    0.028339
   7 H :    0.036813

  Mayer bond orders larger than 0.100000
B(  0-C ,  1-O ) :   2.2659 B(  0-C ,  2-C ) :   1.0142 B(  0-C ,  4-H ) :   0.8935
B(  2-C ,  3-C ) :   1.9772 B(  2-C ,  5-H ) :   0.9473 B(  3-C ,  6-H ) :   0.9304
B(  3-C ,  7-H ) :   0.9512

-----------------------------------------------------------------------------
         ABSORPTION SPECTRUM VIA TRANSITION ELECTRIC DIPOLE MOMENTS
-----------------------------------------------------------------------------
State   Energy    Wavelength  fosc         T2        TX        TY        TZ
        (cm-1)      (nm)                 (au**2)    (au)      (au)      (au)
-----------------------------------------------------------------------------
   1   30565.8    327.2   0.000080494   0.00087   0.00752   0.00855  -0.02715

FINAL SINGLE POINT ENERGY      -191.623521261355

DIPOLE MOMENT
-------------
                                X             Y             Z
Electronic contribution:     -2.09500      -1.85278       0.12521
Nuclear contribution   :      2.57070       2.65932      -0.13897
                        -----------------------------------------
Total Dipole Moment    :      0.47570       0.80655      -0.01376
                        -----------------------------------------
Magnitude (a.u.)       :      0.93648
Magnitude (Debye)      :      2.38034

Rotational constants in cm-1:     0.859220     0.195373     0.159255
Rotational constants in MHz : 25758.771656  5857.134696  4774.354449

                             ****ORCA TERMINATED NORMALLY****
TOTAL RUN TIME: 0 days 0 hours 3 minutes 15 seconds 756 msec
