                         Program Version 5.0.3 -  RELEASE  -
|  1> ! B3LYP cc-pVDZ
|  2> !TightSCF
|  3> %scf
|  4>  ConvForced true
|  5>  convergence tight
|  6>  MaxIter 500
|  7> end
|  8>
|  9> %tddft
| 10>  nroots 1
| 11> end
| 12>
| 13> # 	362
| 14> * xyz 0 1
| 15> 		C   -1.236236  -0.274782   0.000417
| 16> 		O   -1.269990  -1.435605  -0.349049
| 17> 		C   -0.036260   0.587180  -0.110246
| 18> 		C    1.136506  -0.047230   0.018695
| 19> 		H   -1.996974   0.243752   0.447656
| 20> 		H   -0.137591   1.562133  -0.301173
| 21> 		H    1.346674  -1.122010   0.244835
| 22> 		H    2.169713   0.521616   0.043251
| 23> *
| 24>
| 25>                          ****END OF INPUT****

CARTESIAN COORDINATES (ANGSTROEM)
---------------------------------
  C     -1.236236   -0.274782    0.000417
  O     -1.269990   -1.435605   -0.349049
  C     -0.036260    0.587180   -0.110246
  C      1.136506   -0.047230    0.018695
  H     -1.996974    0.243752    0.447656
  H     -0.137591    1.562133   -0.301173
  H      1.346674   -1.122010    0.244835
  H      2.169713    0.521616    0.043251

 Total Charge           Charge          ....    0
 Multiplicity           Mult            ....    1
 Number of Electrons    NEL             ....   30
 Basis Dimension        Dim             ....   76

ORBITAL ENERGIES
----------------

  NO   OCC          E(Eh)            E(eV)
   0   2.0000     -19.136572      -520.7326
   1   2.0000     -10.266919      -279.3771
   2   2.0000     -10.220073      -278.1023
   3   2.0000     -10.195767      -277.4409
   4   2.0000      -1.043018       -28.3820
   5   2.0000      -0.795530       -21.6475
   6   2.0000      -0.659858       -17.9556
   7   2.0000      -0.562126       -15.2962
   8   2.0000      -0.507469       -13.8089
   9   2.0000      -0.448964       -12.2169
  10   2.0000      -0.434183       -11.8147
  11   2.0000      -0.387958       -10.5569
  12   2.0000      -0.368411       -10.0250
  13   2.0000      -0.287121        -7.8130
  14   2.0000      -0.253057        -6.8860
  15   0.0000      -0.059280        -1.6131
  16   0.0000       0.036059         0.9812
  17   0.0000       0.075351         2.0504
  18   0.0000       0.088728         2.4144
  19   0.0000       0.126168         3.4332

MULLIKEN ATOMIC CHARGES
-----------------------
   0 C :    0.228821
   1 O :   -0.198158
   2 C :   -0.037255
   3 C :   -0.001809
   4 H :   -0.038636
   5 H :   -0.039829
   6 H :    0.049278
   7 H :    0.037587
Sum of atomic charges:   -0.0000000

LOEWDIN ATOMIC CHARGES
----------------------
   0 C :   -0.014256
   1 O :   -0.002430
   2 C :   -0.060111
   3 C :    0.013806
   4 H :   -0.019905
   5 H :    0.005436
   6 H :    0.038160
   7 H :    0.039300

  Mayer bond orders larger than 0.100000
B(  0-C ,  1-O ) :   2.2054 B(  0-C ,  2-C ) :   1.0483 B(  0-C ,  4-H ) :   0.9269
B(  2-C ,  3-C ) :   1.9553 B(  2-C ,  5-H ) :   0.9466 B(  3-C ,  6-H ) :   0.9481
B(  3-C ,  7-H ) :   0.9506

-----------------------------------------------------------------------------
         ABSORPTION SPECTRUM VIA TRANSITION ELECTRIC DIPOLE MOMENTS
-----------------------------------------------------------------------------
State   Energy    Wavelength  fosc         T2        TX        TY        TZ
        (cm-1)      (nm)                 (au**2)    (au)      (au)      (au)
-----------------------------------------------------------------------------
   1   29325.9    341.0   0.000136543   0.00153   0.03876  -0.00125  -0.00538

FINAL SINGLE POINT ENERGY      -191.650243391247

DIPOLE MOMENT
-------------
                                X             Y             Z
Electronic contribution:     -2.31468      -1.48808      -0.54768
Nuclear contribution   :      2.65918       2.35751       0.82193
                        -----------------------------------------
Total Dipole Moment    :      0.34449       0.86943       0.27426
                        -----------------------------------------
Magnitude (a.u.)       :      0.97458
Magnitude (Debye)      :      2.47718

Rotational constants in cm-1:     0.742199     0.213682     0.169652
Rotational constants in MHz : 22250.579818  6406.039767  5086.031759

                             ****ORCA TERMINATED NORMALLY****
TOTAL RUN TIME: 0 days 0 hours 3 minutes 23 seconds 693 msec
