                         Program Version 5.0.3 -  RELEASE  -
|  1> ! HF-3c
|  2> !TightSCF
|  3> %scf
|  4>  ConvForced true
|  5>  convergence tight
|  6>  MaxIter 500
|  7> end
|  8>
|  9> %tddft
| 10>  nroots 1
| 11> end
| 12>
| 13> # 	14189
| 14> * xyz 0 1
| 15> 		C   -1.217580  -0.251861  -0.077194
| 16> 		O   -1.777102  -0.989873  -0.823596
| 17> 		C    0.054538   0.510847  -0.332537
| 18> 		C    1.177877   0.067956   0.096673
| 19> 		H   -1.596948  -0.449388   1.226537
| 20> 		H   -0.082873   1.405115  -0.922524
| 21> 		H    1.231813  -0.883685   0.701835
| 22> 		H    2.201997   0.639719   0.117192
| 23> *
| 24>
| 25>                          ****END OF INPUT****

CARTESIAN COORDINATES (ANGSTROEM)
---------------------------------
  C     -1.217580   -0.251861   -0.077194
  O     -1.777102   -0.989873   -0.823596
  C      0.054538    0.510847   -0.332537
  C      1.177877    0.067956    0.096673
  H     -1.596948   -0.449388    1.226537
  H     -0.082873    1.405115   -0.922524
  H      1.231813   -0.883685    0.701835
  H      2.201997    0.639719    0.117192

 Total Charge           Charge          ....    0
 Multiplicity           Mult            ....    1
 Number of Electrons    NEL             ....   30
 Basis Dimension        Dim             ....   24

ORBITAL ENERGIES
----------------

  NO   OCC          E(Eh)            E(eV)
   0   2.0000     -20.373455      -554.3899
   1   2.0000     -11.293951      -307.3240
   2   2.0000     -11.198505      -304.7268
   3   2.0000     -11.187740      -304.4339
   4   2.0000      -1.414969       -38.5033
   5   2.0000      -1.090098       -29.6631
   6   2.0000      -0.854141       -23.2424
   7   2.0000      -0.738890       -20.1062
   8   2.0000      -0.657426       -17.8895
   9   2.0000      -0.639909       -17.4128
  10   2.0000      -0.597474       -16.2581
  11   2.0000      -0.525027       -14.2867
  12   2.0000      -0.514327       -13.9956
  13   2.0000      -0.417009       -11.3474
  14   2.0000      -0.376396       -10.2423
  15   0.0000       0.180979         4.9247
  16   0.0000       0.247360         6.7310
  17   0.0000       0.422982        11.5099
  18   0.0000       0.520026        14.1506
  19   0.0000       0.612333        16.6624

MULLIKEN ATOMIC CHARGES
-----------------------
   0 C :    0.204922
   1 O :   -0.358396
   2 C :   -0.185358
   3 C :   -0.224345
   4 H :    0.119536
   5 H :    0.155909
   6 H :    0.138274
   7 H :    0.149459
Sum of atomic charges:   -0.0000000

LOEWDIN ATOMIC CHARGES
----------------------
   0 C :    0.153887
   1 O :   -0.252809
   2 C :   -0.134263
   3 C :   -0.141512
   4 H :    0.077125
   5 H :    0.101543
   6 H :    0.091600
   7 H :    0.104428

  Mayer bond orders larger than 0.100000
B(  0-C ,  1-O ) :   1.9573 B(  0-C ,  2-C ) :   0.9732 B(  0-C ,  4-H ) :   0.8825
B(  2-C ,  3-C ) :   2.0041 B(  2-C ,  5-H ) :   0.9468 B(  3-C ,  6-H ) :   0.9597
B(  3-C ,  7-H ) :   0.9557

-----------------------------------------------------------------------------
         ABSORPTION SPECTRUM VIA TRANSITION ELECTRIC DIPOLE MOMENTS
-----------------------------------------------------------------------------
State   Energy    Wavelength  fosc         T2        TX        TY        TZ
        (cm-1)      (nm)                 (au**2)    (au)      (au)      (au)
-----------------------------------------------------------------------------
   1   34589.1    289.1   0.001632943   0.01554  -0.08465  -0.04503   0.07968

Dispersion correction           -0.025134093
FINAL SINGLE POINT ENERGY      -189.278887590936

DIPOLE MOMENT
-------------
                                X             Y             Z
Electronic contribution:     -2.72233      -0.85438      -1.43922
Nuclear contribution   :      3.39910       1.40526       2.10351
                        -----------------------------------------
Total Dipole Moment    :      0.67677       0.55088       0.66430
                        -----------------------------------------
Magnitude (a.u.)       :      1.09671
Magnitude (Debye)      :      2.78761

Rotational constants in cm-1:     1.040116     0.163115     0.158087
Rotational constants in MHz : 31181.907905  4890.059175  4739.336444

                             ****ORCA TERMINATED NORMALLY****
TOTAL RUN TIME: 0 days 0 hours 0 minutes 11 seconds 228 msec
