                         Program Version 5.0.3 -  RELEASE  -
|  1> ! B3LYP cc-pVDZ
|  2> !TightSCF
|  3> %scf
|  4>  ConvForced true
|  5>  convergence tight
|  6>  MaxIter 500
|  7> end
|  8>
|  9> %tddft
| 10>  nroots 1
| 11> end
| 12>
| 13> # 	3157
| 14> * xyz 0 1
| 15> 		C   -1.248288  -0.318072   0.049120
| 16> 		O   -2.161172  -0.423350   0.647143
| 17> 		C   -0.049530   0.441248   0.322827
| 18> 		C    1.202548   0.226638  -0.374484
| 19> 		H   -0.992278  -0.924131  -0.681386
| 20> 		H   -0.142028   1.052103   1.145431
| 21> 		H    1.257098  -0.790131  -1.090416
| 22> 		H    2.128706   0.732338   0.032285
| 23> *
| 24>
| 25>                          ****END OF INPUT****

CARTESIAN COORDINATES (ANGSTROEM)
---------------------------------
  C     -1.248288   -0.318072    0.049120
  O     -2.161172   -0.423350    0.647143
  C     -0.049530    0.441248    0.322827
  C      1.202548    0.226638   -0.374484
  H     -0.992278   -0.924131   -0.681386
  H     -0.142028    1.052103    1.145431
  H      1.257098   -0.790131   -1.090416
  H      2.128706    0.732338    0.032285

 Total Charge           Charge          ....    0
 Multiplicity           Mult            ....    1
 Number of Electrons    NEL             ....   30
 Basis Dimension        Dim             ....   76

ORBITAL ENERGIES
----------------

  NO   OCC          E(Eh)            E(eV)
   0   2.0000     -19.134342      -520.6719
   1   2.0000     -10.248324      -278.8711
   2   2.0000     -10.246638      -278.8252
   3   2.0000     -10.203409      -277.6489
   4   2.0000      -1.112948       -30.2849
   5   2.0000      -0.785087       -21.3633
   6   2.0000      -0.647900       -17.6303
   7   2.0000      -0.587249       -15.9799
   8   2.0000      -0.474422       -12.9097
   9   2.0000      -0.469502       -12.7758
  10   2.0000      -0.436756       -11.8847
  11   2.0000      -0.425984       -11.5916
  12   2.0000      -0.389908       -10.6099
  13   2.0000      -0.280036        -7.6202
  14   2.0000      -0.247834        -6.7439
  15   0.0000      -0.071434        -1.9438
  16   0.0000       0.044069         1.1992
  17   0.0000       0.075901         2.0654
  18   0.0000       0.087532         2.3819
  19   0.0000       0.135628         3.6906

MULLIKEN ATOMIC CHARGES
-----------------------
   0 C :    0.243058
   1 O :   -0.101729
   2 C :   -0.071916
   3 C :   -0.061267
   4 H :   -0.121012
   5 H :   -0.030686
   6 H :    0.075258
   7 H :    0.068294
Sum of atomic charges:    0.0000000

LOEWDIN ATOMIC CHARGES
----------------------
   0 C :   -0.132850
   1 O :    0.124662
   2 C :   -0.036210
   3 C :   -0.019110
   4 H :   -0.042534
   5 H :    0.004559
   6 H :    0.058911
   7 H :    0.042571

  Mayer bond orders larger than 0.100000
B(  0-C ,  1-O ) :   2.3101 B(  0-C ,  2-C ) :   1.0856 B(  0-C ,  4-H ) :   0.9055
B(  2-C ,  3-C ) :   1.8841 B(  2-C ,  5-H ) :   0.9452 B(  3-C ,  6-H ) :   0.9288
B(  3-C ,  7-H ) :   0.9417

-----------------------------------------------------------------------------
         ABSORPTION SPECTRUM VIA TRANSITION ELECTRIC DIPOLE MOMENTS
-----------------------------------------------------------------------------
State   Energy    Wavelength  fosc         T2        TX        TY        TZ
        (cm-1)      (nm)                 (au**2)    (au)      (au)      (au)
-----------------------------------------------------------------------------
   1   27439.4    364.4   0.000321686   0.00386  -0.05908  -0.01911   0.00190

FINAL SINGLE POINT ENERGY      -191.606114748997

DIPOLE MOMENT
-------------
                                X             Y             Z
Electronic contribution:     -3.43160      -0.12482       0.92876
Nuclear contribution   :      4.32827       0.22763      -1.20126
                        -----------------------------------------
Total Dipole Moment    :      0.89667       0.10282      -0.27250
                        -----------------------------------------
Magnitude (a.u.)       :      0.94279
Magnitude (Debye)      :      2.39638

Rotational constants in cm-1:     1.651644     0.154246     0.142024
Rotational constants in MHz : 49515.030098  4624.176919  4257.763380

                             ****ORCA TERMINATED NORMALLY****
TOTAL RUN TIME: 0 days 0 hours 3 minutes 21 seconds 793 msec
