                         Program Version 5.0.3 -  RELEASE  -
|  1> ! B3LYP cc-pVDZ
|  2> !TightSCF
|  3> %scf
|  4>  ConvForced true
|  5>  convergence tight
|  6>  MaxIter 500
|  7> end
|  8>
|  9> %tddft
| 10>  nroots 1
| 11> end
| 12>
| 13> # 	27563
| 14> * xyz 0 1
| 15> 		C   -0.595484  -0.425055  -0.058417
| 16> 		O   -0.587198  -1.650290   0.042862
| 17> 		C    0.696761   0.428566   0.041934
| 18> 		C    1.824013  -0.123075  -0.018198
| 19> 		H   -1.533687   0.126172  -0.279176
| 20> 		H    0.330589   1.313308   0.257239
| 21> 		H    1.829479  -1.139250  -0.205678
| 22> 		H    2.692449   0.559650  -0.021608
| 23> *
| 24>
| 25>                          ****END OF INPUT****

CARTESIAN COORDINATES (ANGSTROEM)
---------------------------------
  C     -0.595484   -0.425055   -0.058417
  O     -0.587198   -1.650290    0.042862
  C      0.696761    0.428566    0.041934
  C      1.824013   -0.123075   -0.018198
  H     -1.533687    0.126172   -0.279176
  H      0.330589    1.313308    0.257239
  H      1.829479   -1.139250   -0.205678
  H      2.692449    0.559650   -0.021608

 Total Charge           Charge          ....    0
 Multiplicity           Mult            ....    1
 Number of Electrons    NEL             ....   30
 Basis Dimension        Dim             ....   76

ORBITAL ENERGIES
----------------

  NO   OCC          E(Eh)            E(eV)
   0   2.0000     -19.141009      -520.8533
   1   2.0000     -10.275753      -279.6174
   2   2.0000     -10.195393      -277.4307
   3   2.0000     -10.186970      -277.2015
   4   2.0000      -1.036231       -28.1973
   5   2.0000      -0.810871       -22.0649
   6   2.0000      -0.660047       -17.9608
   7   2.0000      -0.549769       -14.9600
   8   2.0000      -0.509226       -13.8567
   9   2.0000      -0.457780       -12.4568
  10   2.0000      -0.430730       -11.7208
  11   2.0000      -0.390233       -10.6188
  12   2.0000      -0.378391       -10.2966
  13   2.0000      -0.299791        -8.1577
  14   2.0000      -0.251907        -6.8547
  15   0.0000      -0.059764        -1.6263
  16   0.0000       0.054591         1.4855
  17   0.0000       0.074078         2.0158
  18   0.0000       0.096158         2.6166
  19   0.0000       0.131990         3.5916

MULLIKEN ATOMIC CHARGES
-----------------------
   0 C :    0.143205
   1 O :   -0.204488
   2 C :   -0.051764
   3 C :    0.162961
   4 H :   -0.008713
   5 H :   -0.076445
   6 H :    0.005203
   7 H :    0.030041
Sum of atomic charges:    0.0000000

LOEWDIN ATOMIC CHARGES
----------------------
   0 C :   -0.001323
   1 O :   -0.021872
   2 C :   -0.056931
   3 C :    0.021384
   4 H :   -0.003317
   5 H :   -0.004674
   6 H :    0.023313
   7 H :    0.043420

  Mayer bond orders larger than 0.100000
B(  0-C ,  1-O ) :   2.1762 B(  0-C ,  2-C ) :   1.0265 B(  0-C ,  4-H ) :   0.9133
B(  2-C ,  3-C ) :   2.0172 B(  2-C ,  5-H ) :   0.9644 B(  3-C ,  6-H ) :   0.8987
B(  3-C ,  7-H ) :   0.9312

-----------------------------------------------------------------------------
         ABSORPTION SPECTRUM VIA TRANSITION ELECTRIC DIPOLE MOMENTS
-----------------------------------------------------------------------------
State   Energy    Wavelength  fosc         T2        TX        TY        TZ
        (cm-1)      (nm)                 (au**2)    (au)      (au)      (au)
-----------------------------------------------------------------------------
   1   28577.7    349.9   0.000285357   0.00329   0.04736   0.00162   0.03227

FINAL SINGLE POINT ENERGY      -191.644478862523

DIPOLE MOMENT
-------------
                                X             Y             Z
Electronic contribution:     -1.69869      -1.67646       0.16143
Nuclear contribution   :      1.95749       2.59485      -0.23439
                        -----------------------------------------
Total Dipole Moment    :      0.25880       0.91839      -0.07296
                        -----------------------------------------
Magnitude (a.u.)       :      0.95694
Magnitude (Debye)      :      2.43235

Rotational constants in cm-1:     0.792140     0.207228     0.165170
Rotational constants in MHz : 23747.752262  6212.540456  4951.683007

                             ****ORCA TERMINATED NORMALLY****
TOTAL RUN TIME: 0 days 0 hours 3 minutes 20 seconds 6 msec
