                         Program Version 5.0.3 -  RELEASE  -
|  1> ! B3LYP cc-pVDZ
|  2> !TightSCF
|  3> %scf
|  4>  ConvForced true
|  5>  convergence tight
|  6>  MaxIter 500
|  7> end
|  8>
|  9> %tddft
| 10>  nroots 1
| 11> end
| 12>
| 13> # 	22139
| 14> * xyz 0 1
| 15> 		C   -0.605867  -0.460219   0.012843
| 16> 		O   -0.561887  -1.647797  -0.006453
| 17> 		C    0.630277   0.476794  -0.013904
| 18> 		C    1.850969  -0.149262   0.017251
| 19> 		H   -1.607649   0.134014  -0.019362
| 20> 		H    0.455753   1.595360   0.034190
| 21> 		H    1.841199  -1.206671   0.005607
| 22> 		H    2.845703   0.459943  -0.115639
| 23> *
| 24>
| 25>                          ****END OF INPUT****

CARTESIAN COORDINATES (ANGSTROEM)
---------------------------------
  C     -0.605867   -0.460219    0.012843
  O     -0.561887   -1.647797   -0.006453
  C      0.630277    0.476794   -0.013904
  C      1.850969   -0.149262    0.017251
  H     -1.607649    0.134014   -0.019362
  H      0.455753    1.595360    0.034190
  H      1.841199   -1.206671    0.005607
  H      2.845703    0.459943   -0.115639

 Total Charge           Charge          ....    0
 Multiplicity           Mult            ....    1
 Number of Electrons    NEL             ....   30
 Basis Dimension        Dim             ....   76

ORBITAL ENERGIES
----------------

  NO   OCC          E(Eh)            E(eV)
   0   2.0000     -19.146044      -520.9904
   1   2.0000     -10.284111      -279.8449
   2   2.0000     -10.218757      -278.0665
   3   2.0000     -10.214373      -277.9472
   4   2.0000      -1.063413       -28.9369
   5   2.0000      -0.779694       -21.2165
   6   2.0000      -0.639447       -17.4002
   7   2.0000      -0.535828       -14.5806
   8   2.0000      -0.496953       -13.5228
   9   2.0000      -0.450585       -12.2611
  10   2.0000      -0.415576       -11.3084
  11   2.0000      -0.405817       -11.0428
  12   2.0000      -0.385924       -10.5015
  13   2.0000      -0.283401        -7.7117
  14   2.0000      -0.258132        -7.0241
  15   0.0000      -0.066420        -1.8074
  16   0.0000       0.049839         1.3562
  17   0.0000       0.063245         1.7210
  18   0.0000       0.086686         2.3588
  19   0.0000       0.112100         3.0504

MULLIKEN ATOMIC CHARGES
-----------------------
   0 C :    0.170513
   1 O :   -0.166533
   2 C :   -0.149739
   3 C :    0.057066
   4 H :   -0.012980
   5 H :    0.014001
   6 H :    0.033119
   7 H :    0.054554
Sum of atomic charges:   -0.0000000

LOEWDIN ATOMIC CHARGES
----------------------
   0 C :   -0.043216
   1 O :    0.018772
   2 C :   -0.086422
   3 C :    0.016404
   4 H :   -0.006818
   5 H :    0.033165
   6 H :    0.020517
   7 H :    0.047598

  Mayer bond orders larger than 0.100000
B(  0-C ,  1-O ) :   2.2127 B(  0-C ,  2-C ) :   1.0052 B(  0-C ,  4-H ) :   0.9007
B(  2-C ,  3-C ) :   1.9539 B(  2-C ,  5-H ) :   0.9470 B(  3-C ,  6-H ) :   0.9283
B(  3-C ,  7-H ) :   0.9480

-----------------------------------------------------------------------------
         ABSORPTION SPECTRUM VIA TRANSITION ELECTRIC DIPOLE MOMENTS
-----------------------------------------------------------------------------
State   Energy    Wavelength  fosc         T2        TX        TY        TZ
        (cm-1)      (nm)                 (au**2)    (au)      (au)      (au)
-----------------------------------------------------------------------------
   1   29572.4    338.2   0.000180097   0.00200   0.03081   0.00235   0.03241

FINAL SINGLE POINT ENERGY      -191.663871071247

DIPOLE MOMENT
-------------
                                X             Y             Z
Electronic contribution:     -1.82523      -1.89332       0.08228
Nuclear contribution   :      2.15911       2.70966      -0.08909
                        -----------------------------------------
Total Dipole Moment    :      0.33388       0.81633      -0.00681
                        -----------------------------------------
Magnitude (a.u.)       :      0.88200
Magnitude (Debye)      :      2.24186

Rotational constants in cm-1:     0.717355     0.207131     0.160796
Rotational constants in MHz : 21505.765224  6209.634370  4820.534703

                             ****ORCA TERMINATED NORMALLY****
TOTAL RUN TIME: 0 days 0 hours 3 minutes 13 seconds 736 msec
