                         Program Version 5.0.3 -  RELEASE  -
|  1> ! B3LYP cc-pVDZ
|  2> !TightSCF
|  3> %scf
|  4>  ConvForced true
|  5>  convergence tight
|  6>  MaxIter 500
|  7> end
|  8>
|  9> %tddft
| 10>  nroots 1
| 11> end
| 12>
| 13> # 	27876
| 14> * xyz 0 1
| 15> 		C   -0.539244  -0.453943  -0.015785
| 16> 		O   -0.665583  -1.669908  -0.004146
| 17> 		C    0.663594   0.375852   0.080913
| 18> 		C    1.889914  -0.041909  -0.041392
| 19> 		H   -1.393488   0.227435  -0.091087
| 20> 		H    0.412339   1.369057  -0.245031
| 21> 		H    1.941769  -1.087112   0.199232
| 22> 		H    2.570926   0.662747  -0.097306
| 23> *
| 24>
| 25>                          ****END OF INPUT****

CARTESIAN COORDINATES (ANGSTROEM)
---------------------------------
  C     -0.539244   -0.453943   -0.015785
  O     -0.665583   -1.669908   -0.004146
  C      0.663594    0.375852    0.080913
  C      1.889914   -0.041909   -0.041392
  H     -1.393488    0.227435   -0.091087
  H      0.412339    1.369057   -0.245031
  H      1.941769   -1.087112    0.199232
  H      2.570926    0.662747   -0.097306

 Total Charge           Charge          ....    0
 Multiplicity           Mult            ....    1
 Number of Electrons    NEL             ....   30
 Basis Dimension        Dim             ....   76

ORBITAL ENERGIES
----------------

  NO   OCC          E(Eh)            E(eV)
   0   2.0000     -19.141102      -520.8559
   1   2.0000     -10.272184      -279.5203
   2   2.0000     -10.201382      -277.5937
   3   2.0000     -10.195455      -277.4324
   4   2.0000      -1.039051       -28.2740
   5   2.0000      -0.816646       -22.2221
   6   2.0000      -0.677393       -18.4328
   7   2.0000      -0.534976       -14.5574
   8   2.0000      -0.527897       -14.3648
   9   2.0000      -0.445601       -12.1254
  10   2.0000      -0.434363       -11.8196
  11   2.0000      -0.397828       -10.8254
  12   2.0000      -0.378799       -10.3076
  13   2.0000      -0.299050        -8.1376
  14   2.0000      -0.255988        -6.9658
  15   0.0000      -0.074131        -2.0172
  16   0.0000       0.058882         1.6022
  17   0.0000       0.068739         1.8705
  18   0.0000       0.096334         2.6214
  19   0.0000       0.133100         3.6218

MULLIKEN ATOMIC CHARGES
-----------------------
   0 C :    0.178511
   1 O :   -0.200210
   2 C :   -0.149254
   3 C :    0.193399
   4 H :   -0.027583
   5 H :   -0.013091
   6 H :    0.030436
   7 H :   -0.012208
Sum of atomic charges:    0.0000000

LOEWDIN ATOMIC CHARGES
----------------------
   0 C :   -0.031138
   1 O :   -0.012533
   2 C :   -0.080783
   3 C :    0.056083
   4 H :   -0.006822
   5 H :    0.027652
   6 H :    0.040820
   7 H :    0.006720

  Mayer bond orders larger than 0.100000
B(  0-C ,  1-O ) :   2.1884 B(  0-C ,  2-C ) :   1.0839 B(  0-C ,  4-H ) :   0.9143
B(  2-C ,  3-C ) :   1.9723 B(  2-C ,  5-H ) :   0.9384 B(  3-C ,  6-H ) :   0.9300
B(  3-C ,  7-H ) :   0.9257

-----------------------------------------------------------------------------
         ABSORPTION SPECTRUM VIA TRANSITION ELECTRIC DIPOLE MOMENTS
-----------------------------------------------------------------------------
State   Energy    Wavelength  fosc         T2        TX        TY        TZ
        (cm-1)      (nm)                 (au**2)    (au)      (au)      (au)
-----------------------------------------------------------------------------
   1   27132.3    368.6   0.000858285   0.01041   0.09543   0.01466  -0.03306

FINAL SINGLE POINT ENERGY      -191.655202161647

DIPOLE MOMENT
-------------
                                X             Y             Z
Electronic contribution:     -1.64519      -1.96136       0.16722
Nuclear contribution   :      2.15395       2.88779      -0.21861
                        -----------------------------------------
Total Dipole Moment    :      0.50877       0.92643      -0.05140
                        -----------------------------------------
Magnitude (a.u.)       :      1.05819
Magnitude (Debye)      :      2.68970

Rotational constants in cm-1:     0.869685     0.194652     0.159718
Rotational constants in MHz : 26072.489363  5835.530845  4788.231980

                             ****ORCA TERMINATED NORMALLY****
TOTAL RUN TIME: 0 days 0 hours 3 minutes 21 seconds 709 msec
