                         Program Version 5.0.3 -  RELEASE  -
|  1> ! HF-3c
|  2> !TightSCF
|  3> %scf
|  4>  ConvForced true
|  5>  convergence tight
|  6>  MaxIter 500
|  7> end
|  8>
|  9> %tddft
| 10>  nroots 1
| 11> end
| 12>
| 13> # 	22420
| 14> * xyz 0 1
| 15> 		C   -0.504376  -0.402154  -0.035961
| 16> 		O   -0.606064  -1.683534   0.020151
| 17> 		C    0.566335   0.443248  -0.010870
| 18> 		C    1.880762  -0.094148   0.024046
| 19> 		H   -1.596147   0.152295  -0.011227
| 20> 		H    0.427800   1.361079   0.238426
| 21> 		H    1.745307  -1.337572  -0.119566
| 22> 		H    2.836721   0.397365  -0.151584
| 23> *
| 24>
| 25>                          ****END OF INPUT****

CARTESIAN COORDINATES (ANGSTROEM)
---------------------------------
  C     -0.504376   -0.402154   -0.035961
  O     -0.606064   -1.683534    0.020151
  C      0.566335    0.443248   -0.010870
  C      1.880762   -0.094148    0.024046
  H     -1.596147    0.152295   -0.011227
  H      0.427800    1.361079    0.238426
  H      1.745307   -1.337572   -0.119566
  H      2.836721    0.397365   -0.151584

 Total Charge           Charge          ....    0
 Multiplicity           Mult            ....    1
 Number of Electrons    NEL             ....   30
 Basis Dimension        Dim             ....   24

ORBITAL ENERGIES
----------------

  NO   OCC          E(Eh)            E(eV)
   0   2.0000     -20.314078      -552.7742
   1   2.0000     -11.268786      -306.6393
   2   2.0000     -11.210462      -305.0522
   3   2.0000     -11.190562      -304.5107
   4   2.0000      -1.331127       -36.2218
   5   2.0000      -1.085887       -29.5485
   6   2.0000      -0.895390       -24.3648
   7   2.0000      -0.742318       -20.1995
   8   2.0000      -0.696193       -18.9444
   9   2.0000      -0.597377       -16.2555
  10   2.0000      -0.553694       -15.0668
  11   2.0000      -0.524957       -14.2848
  12   2.0000      -0.503853       -13.7105
  13   2.0000      -0.393858       -10.7174
  14   2.0000      -0.361717        -9.8428
  15   0.0000       0.093159         2.5350
  16   0.0000       0.302206         8.2234
  17   0.0000       0.481994        13.1157
  18   0.0000       0.512272        13.9396
  19   0.0000       0.650772        17.7084

MULLIKEN ATOMIC CHARGES
-----------------------
   0 C :    0.146132
   1 O :   -0.369401
   2 C :   -0.236818
   3 C :   -0.145431
   4 H :    0.127476
   5 H :    0.144363
   6 H :    0.176404
   7 H :    0.157276
Sum of atomic charges:   -0.0000000

LOEWDIN ATOMIC CHARGES
----------------------
   0 C :    0.139047
   1 O :   -0.302418
   2 C :   -0.183507
   3 C :   -0.048395
   4 H :    0.076542
   5 H :    0.082448
   6 H :    0.132673
   7 H :    0.103611

  Mayer bond orders larger than 0.100000
B(  0-C ,  1-O ) :   1.8265 B(  0-C ,  2-C ) :   1.1341 B(  0-C ,  4-H ) :   0.9228
B(  1-O ,  3-C ) :   0.1218 B(  2-C ,  3-C ) :   1.8261 B(  2-C ,  5-H ) :   0.9612
B(  3-C ,  6-H ) :   0.9479 B(  3-C ,  7-H ) :   0.9631

-----------------------------------------------------------------------------
         ABSORPTION SPECTRUM VIA TRANSITION ELECTRIC DIPOLE MOMENTS
-----------------------------------------------------------------------------
State   Energy    Wavelength  fosc         T2        TX        TY        TZ
        (cm-1)      (nm)                 (au**2)    (au)      (au)      (au)
-----------------------------------------------------------------------------
   1   27327.3    365.9   0.000061077   0.00074   0.00131  -0.00425  -0.02676

Dispersion correction           -0.025986134
FINAL SINGLE POINT ENERGY      -189.280370043468

DIPOLE MOMENT
-------------
                                X             Y             Z
Electronic contribution:     -1.33743      -1.44181       0.01649
Nuclear contribution   :      2.04599       2.32685      -0.04123
                        -----------------------------------------
Total Dipole Moment    :      0.70856       0.88504      -0.02474
                        -----------------------------------------
Magnitude (a.u.)       :      1.13401
Magnitude (Debye)      :      2.88242

Rotational constants in cm-1:     0.732622     0.205949     0.161143
Rotational constants in MHz : 21963.441787  6174.200428  4830.956438

                             ****ORCA TERMINATED NORMALLY****
TOTAL RUN TIME: 0 days 0 hours 0 minutes 11 seconds 280 msec
