                         Program Version 5.0.3 -  RELEASE  -
|  1> ! B3LYP cc-pVDZ
|  2> !TightSCF
|  3> %scf
|  4>  ConvForced true
|  5>  convergence tight
|  6>  MaxIter 500
|  7> end
|  8>
|  9> %tddft
| 10>  nroots 1
| 11> end
| 12>
| 13> # 	29309
| 14> * xyz 0 1
| 15> 		C   -0.602890  -0.372914  -0.055413
| 16> 		O   -0.542342  -1.656515   0.044374
| 17> 		C    0.603770   0.417901   0.027005
| 18> 		C    1.851346  -0.131504  -0.013790
| 19> 		H   -1.583787   0.111991  -0.218256
| 20> 		H    0.446314   1.505661   0.232405
| 21> 		H    1.934321  -1.467063  -0.304315
| 22> 		H    2.702122   0.441785   0.113221
| 23> *
| 24>
| 25>                          ****END OF INPUT****

CARTESIAN COORDINATES (ANGSTROEM)
---------------------------------
  C     -0.602890   -0.372914   -0.055413
  O     -0.542342   -1.656515    0.044374
  C      0.603770    0.417901    0.027005
  C      1.851346   -0.131504   -0.013790
  H     -1.583787    0.111991   -0.218256
  H      0.446314    1.505661    0.232405
  H      1.934321   -1.467063   -0.304315
  H      2.702122    0.441785    0.113221

 Total Charge           Charge          ....    0
 Multiplicity           Mult            ....    1
 Number of Electrons    NEL             ....   30
 Basis Dimension        Dim             ....   76

ORBITAL ENERGIES
----------------

  NO   OCC          E(Eh)            E(eV)
   0   2.0000     -19.133746      -520.6557
   1   2.0000     -10.276541      -279.6389
   2   2.0000     -10.234039      -278.4824
   3   2.0000     -10.212900      -277.9071
   4   2.0000      -1.002900       -27.2903
   5   2.0000      -0.790168       -21.5016
   6   2.0000      -0.663155       -18.0454
   7   2.0000      -0.540657       -14.7120
   8   2.0000      -0.497575       -13.5397
   9   2.0000      -0.438611       -11.9352
  10   2.0000      -0.416654       -11.3377
  11   2.0000      -0.375809       -10.2263
  12   2.0000      -0.356797        -9.7089
  13   2.0000      -0.281247        -7.6531
  14   2.0000      -0.253523        -6.8987
  15   0.0000      -0.082395        -2.2421
  16   0.0000       0.041960         1.1418
  17   0.0000       0.048776         1.3273
  18   0.0000       0.072298         1.9673
  19   0.0000       0.111245         3.0271

MULLIKEN ATOMIC CHARGES
-----------------------
   0 C :    0.194359
   1 O :   -0.254665
   2 C :   -0.091433
   3 C :    0.026596
   4 H :    0.002296
   5 H :    0.005744
   6 H :    0.093626
   7 H :    0.023477
Sum of atomic charges:    0.0000000

LOEWDIN ATOMIC CHARGES
----------------------
   0 C :    0.006469
   1 O :   -0.077383
   2 C :   -0.090496
   3 C :    0.026461
   4 H :    0.007200
   5 H :    0.035043
   6 H :    0.080890
   7 H :    0.011816

  Mayer bond orders larger than 0.100000
B(  0-C ,  1-O ) :   2.0847 B(  0-C ,  2-C ) :   1.1020 B(  0-C ,  4-H ) :   0.9309
B(  1-O ,  3-C ) :   0.1167 B(  2-C ,  3-C ) :   1.9216 B(  2-C ,  5-H ) :   0.9388
B(  3-C ,  6-H ) :   0.9156 B(  3-C ,  7-H ) :   0.9342

-----------------------------------------------------------------------------
         ABSORPTION SPECTRUM VIA TRANSITION ELECTRIC DIPOLE MOMENTS
-----------------------------------------------------------------------------
State   Energy    Wavelength  fosc         T2        TX        TY        TZ
        (cm-1)      (nm)                 (au**2)    (au)      (au)      (au)
-----------------------------------------------------------------------------
   1   24323.0    411.1   0.000313297   0.00424   0.05464   0.00098   0.03541

FINAL SINGLE POINT ENERGY      -191.657022269301

DIPOLE MOMENT
-------------
                                X             Y             Z
Electronic contribution:     -1.75012      -1.33175       0.11081
Nuclear contribution   :      2.12571       2.34193      -0.16701
                        -----------------------------------------
Total Dipole Moment    :      0.37559       1.01018      -0.05620
                        -----------------------------------------
Magnitude (a.u.)       :      1.07920
Magnitude (Debye)      :      2.74312

Rotational constants in cm-1:     0.681339     0.214228     0.163895
Rotational constants in MHz : 20426.021509  6422.380389  4913.452424

                             ****ORCA TERMINATED NORMALLY****
TOTAL RUN TIME: 0 days 0 hours 3 minutes 9 seconds 745 msec
