                         Program Version 5.0.3 -  RELEASE  -
|  1> ! HF-3c
|  2> !TightSCF
|  3> %scf
|  4>  ConvForced true
|  5>  convergence tight
|  6>  MaxIter 500
|  7> end
|  8>
|  9> %tddft
| 10>  nroots 1
| 11> end
| 12>
| 13> # 	26778
| 14> * xyz 0 1
| 15> 		C   -0.622463  -0.410055  -0.089575
| 16> 		O   -0.524394  -1.599966   0.044011
| 17> 		C    0.617847   0.426697   0.064807
| 18> 		C    1.833992  -0.191280  -0.023647
| 19> 		H   -1.579785   0.098647  -0.054979
| 20> 		H    0.416516   1.417416   0.093640
| 21> 		H    1.929657  -1.247070  -0.169902
| 22> 		H    2.686114   0.474065   0.018979
| 23> *
| 24>
| 25>                          ****END OF INPUT****

CARTESIAN COORDINATES (ANGSTROEM)
---------------------------------
  C     -0.622463   -0.410055   -0.089575
  O     -0.524394   -1.599966    0.044011
  C      0.617847    0.426697    0.064807
  C      1.833992   -0.191280   -0.023647
  H     -1.579785    0.098647   -0.054979
  H      0.416516    1.417416    0.093640
  H      1.929657   -1.247070   -0.169902
  H      2.686114    0.474065    0.018979

 Total Charge           Charge          ....    0
 Multiplicity           Mult            ....    1
 Number of Electrons    NEL             ....   30
 Basis Dimension        Dim             ....   24

ORBITAL ENERGIES
----------------

  NO   OCC          E(Eh)            E(eV)
   0   2.0000     -20.362841      -554.1011
   1   2.0000     -11.292351      -307.2805
   2   2.0000     -11.191010      -304.5229
   3   2.0000     -11.182469      -304.2905
   4   2.0000      -1.408372       -38.3238
   5   2.0000      -1.067489       -29.0478
   6   2.0000      -0.892346       -24.2820
   7   2.0000      -0.758809       -20.6482
   8   2.0000      -0.709158       -19.2972
   9   2.0000      -0.618449       -16.8289
  10   2.0000      -0.590377       -16.0650
  11   2.0000      -0.550879       -14.9902
  12   2.0000      -0.540937       -14.7196
  13   2.0000      -0.411306       -11.1922
  14   2.0000      -0.384569       -10.4647
  15   0.0000       0.131485         3.5779
  16   0.0000       0.293325         7.9818
  17   0.0000       0.562803        15.3146
  18   0.0000       0.651385        17.7251
  19   0.0000       0.691699        18.8221

MULLIKEN ATOMIC CHARGES
-----------------------
   0 C :    0.161021
   1 O :   -0.355389
   2 C :   -0.177419
   3 C :   -0.216565
   4 H :    0.138941
   5 H :    0.137465
   6 H :    0.165386
   7 H :    0.146559
Sum of atomic charges:    0.0000000

LOEWDIN ATOMIC CHARGES
----------------------
   0 C :    0.142075
   1 O :   -0.257747
   2 C :   -0.130523
   3 C :   -0.113168
   4 H :    0.073881
   5 H :    0.081026
   6 H :    0.108611
   7 H :    0.095844

  Mayer bond orders larger than 0.100000
B(  0-C ,  1-O ) :   1.9083 B(  0-C ,  2-C ) :   1.0166 B(  0-C ,  4-H ) :   0.9278
B(  2-C ,  3-C ) :   1.9451 B(  2-C ,  5-H ) :   0.9667 B(  3-C ,  6-H ) :   0.9594
B(  3-C ,  7-H ) :   0.9660

-----------------------------------------------------------------------------
         ABSORPTION SPECTRUM VIA TRANSITION ELECTRIC DIPOLE MOMENTS
-----------------------------------------------------------------------------
State   Energy    Wavelength  fosc         T2        TX        TY        TZ
        (cm-1)      (nm)                 (au**2)    (au)      (au)      (au)
-----------------------------------------------------------------------------
   1   32235.1    310.2   0.000125831   0.00129  -0.03575  -0.00116   0.00233

Dispersion correction           -0.026078157
FINAL SINGLE POINT ENERGY      -189.335670658709

DIPOLE MOMENT
-------------
                                X             Y             Z
Electronic contribution:     -1.85954      -1.62023       0.00266
Nuclear contribution   :      2.08467       2.48425      -0.10531
                        -----------------------------------------
Total Dipole Moment    :      0.22513       0.86403      -0.10264
                        -----------------------------------------
Magnitude (a.u.)       :      0.89876
Magnitude (Debye)      :      2.28446

Rotational constants in cm-1:     0.721675     0.221423     0.170209
Rotational constants in MHz : 21635.264077  6638.097597  5102.735929

                             ****ORCA TERMINATED NORMALLY****
TOTAL RUN TIME: 0 days 0 hours 0 minutes 13 seconds 201 msec
