                         Program Version 5.0.3 -  RELEASE  -
|  1> ! B3LYP cc-pVDZ
|  2> !TightSCF
|  3> %scf
|  4>  ConvForced true
|  5>  convergence tight
|  6>  MaxIter 500
|  7> end
|  8>
|  9> %tddft
| 10>  nroots 1
| 11> end
| 12>
| 13> # 	8792
| 14> * xyz 0 1
| 15> 		C   -1.188790  -0.302448  -0.045950
| 16> 		O   -1.737678  -1.001591  -0.863071
| 17> 		C    0.028215   0.410904  -0.263395
| 18> 		C    1.243739   0.059945   0.174978
| 19> 		H   -1.559068  -0.179922   0.974777
| 20> 		H   -0.104396   1.300158  -0.734610
| 21> 		H    1.206176  -0.983244   0.703609
| 22> 		H    2.086792   0.655385   0.000858
| 23> *
| 24>
| 25>                          ****END OF INPUT****

CARTESIAN COORDINATES (ANGSTROEM)
---------------------------------
  C     -1.188790   -0.302448   -0.045950
  O     -1.737678   -1.001591   -0.863071
  C      0.028215    0.410904   -0.263395
  C      1.243739    0.059945    0.174978
  H     -1.559068   -0.179922    0.974777
  H     -0.104396    1.300158   -0.734610
  H      1.206176   -0.983244    0.703609
  H      2.086792    0.655385    0.000858

 Total Charge           Charge          ....    0
 Multiplicity           Mult            ....    1
 Number of Electrons    NEL             ....   30
 Basis Dimension        Dim             ....   76

ORBITAL ENERGIES
----------------

  NO   OCC          E(Eh)            E(eV)
   0   2.0000     -19.145119      -520.9652
   1   2.0000     -10.276279      -279.6318
   2   2.0000     -10.209240      -277.8075
   3   2.0000     -10.194635      -277.4101
   4   2.0000      -1.054072       -28.6828
   5   2.0000      -0.806093       -21.9349
   6   2.0000      -0.663336       -18.0503
   7   2.0000      -0.565221       -15.3805
   8   2.0000      -0.502095       -13.6627
   9   2.0000      -0.467041       -12.7088
  10   2.0000      -0.440521       -11.9872
  11   2.0000      -0.398001       -10.8302
  12   2.0000      -0.369130       -10.0446
  13   2.0000      -0.285369        -7.7653
  14   2.0000      -0.258352        -7.0301
  15   0.0000      -0.040558        -1.1036
  16   0.0000      -0.004377        -0.1191
  17   0.0000       0.081545         2.2190
  18   0.0000       0.095572         2.6006
  19   0.0000       0.106985         2.9112

MULLIKEN ATOMIC CHARGES
-----------------------
   0 C :    0.169811
   1 O :   -0.181062
   2 C :   -0.044479
   3 C :    0.036157
   4 H :   -0.015253
   5 H :   -0.013862
   6 H :    0.031717
   7 H :    0.016971
Sum of atomic charges:   -0.0000000

LOEWDIN ATOMIC CHARGES
----------------------
   0 C :   -0.028130
   1 O :    0.016594
   2 C :   -0.047440
   3 C :   -0.020417
   4 H :   -0.004687
   5 H :    0.019005
   6 H :    0.044715
   7 H :    0.020359

  Mayer bond orders larger than 0.100000
B(  0-C ,  1-O ) :   2.2351 B(  0-C ,  2-C ) :   1.0150 B(  0-C ,  4-H ) :   0.9162
B(  2-C ,  3-C ) :   2.0380 B(  2-C ,  5-H ) :   0.9374 B(  3-C ,  6-H ) :   0.9369
B(  3-C ,  7-H ) :   0.9370

-----------------------------------------------------------------------------
         ABSORPTION SPECTRUM VIA TRANSITION ELECTRIC DIPOLE MOMENTS
-----------------------------------------------------------------------------
State   Energy    Wavelength  fosc         T2        TX        TY        TZ
        (cm-1)      (nm)                 (au**2)    (au)      (au)      (au)
-----------------------------------------------------------------------------
   1   32839.9    304.5   0.000457339   0.00458  -0.04958   0.00651  -0.04566

FINAL SINGLE POINT ENERGY      -191.631004011173

DIPOLE MOMENT
-------------
                                X             Y             Z
Electronic contribution:     -2.64260      -1.00374      -1.33536
Nuclear contribution   :      3.19379       1.61582       1.84585
                        -----------------------------------------
Total Dipole Moment    :      0.55120       0.61208       0.51049
                        -----------------------------------------
Magnitude (a.u.)       :      0.96905
Magnitude (Debye)      :      2.46313

Rotational constants in cm-1:     1.145384     0.163891     0.159712
Rotational constants in MHz : 34337.747882  4913.315303  4788.047039

                             ****ORCA TERMINATED NORMALLY****
TOTAL RUN TIME: 0 days 0 hours 3 minutes 15 seconds 67 msec
