                         Program Version 5.0.3 -  RELEASE  -
|  1> ! HF-3c
|  2> !TightSCF
|  3> %scf
|  4>  ConvForced true
|  5>  convergence tight
|  6>  MaxIter 500
|  7> end
|  8>
|  9> %tddft
| 10>  nroots 1
| 11> end
| 12>
| 13> # 	31890
| 14> * xyz 0 1
| 15> 		C   -0.564873  -0.424246   0.036261
| 16> 		O   -0.577047  -1.634635  -0.024583
| 17> 		C    0.591458   0.391689  -0.041350
| 18> 		C    1.873124  -0.128087   0.007616
| 19> 		H   -1.561724   0.234849   0.201944
| 20> 		H    0.395728   1.592206  -0.076349
| 21> 		H    1.883351  -1.206334   0.160866
| 22> 		H    2.753369   0.507467   0.068164
| 23> *
| 24>
| 25>                          ****END OF INPUT****

CARTESIAN COORDINATES (ANGSTROEM)
---------------------------------
  C     -0.564873   -0.424246    0.036261
  O     -0.577047   -1.634635   -0.024583
  C      0.591458    0.391689   -0.041350
  C      1.873124   -0.128087    0.007616
  H     -1.561724    0.234849    0.201944
  H      0.395728    1.592206   -0.076349
  H      1.883351   -1.206334    0.160866
  H      2.753369    0.507467    0.068164

 Total Charge           Charge          ....    0
 Multiplicity           Mult            ....    1
 Number of Electrons    NEL             ....   30
 Basis Dimension        Dim             ....   24

ORBITAL ENERGIES
----------------

  NO   OCC          E(Eh)            E(eV)
   0   2.0000     -20.354208      -553.8662
   1   2.0000     -11.290447      -307.2287
   2   2.0000     -11.190834      -304.5181
   3   2.0000     -11.180867      -304.2469
   4   2.0000      -1.394574       -37.9483
   5   2.0000      -1.066278       -29.0149
   6   2.0000      -0.893087       -24.3021
   7   2.0000      -0.715381       -19.4665
   8   2.0000      -0.686285       -18.6748
   9   2.0000      -0.604510       -16.4496
  10   2.0000      -0.590872       -16.0784
  11   2.0000      -0.539940       -14.6925
  12   2.0000      -0.508746       -13.8437
  13   2.0000      -0.403820       -10.9885
  14   2.0000      -0.375980       -10.2309
  15   0.0000       0.118658         3.2288
  16   0.0000       0.319145         8.6844
  17   0.0000       0.491041        13.3619
  18   0.0000       0.571581        15.5535
  19   0.0000       0.631905        17.1950

MULLIKEN ATOMIC CHARGES
-----------------------
   0 C :    0.164645
   1 O :   -0.363879
   2 C :   -0.163963
   3 C :   -0.214174
   4 H :    0.127465
   5 H :    0.137722
   6 H :    0.162081
   7 H :    0.150103
Sum of atomic charges:   -0.0000000

LOEWDIN ATOMIC CHARGES
----------------------
   0 C :    0.140781
   1 O :   -0.271003
   2 C :   -0.134226
   3 C :   -0.111656
   4 H :    0.073158
   5 H :    0.096262
   6 H :    0.107665
   7 H :    0.099018

  Mayer bond orders larger than 0.100000
B(  0-C ,  1-O ) :   1.8801 B(  0-C ,  2-C ) :   1.0673 B(  0-C ,  4-H ) :   0.9112
B(  2-C ,  3-C ) :   1.9069 B(  2-C ,  5-H ) :   0.9565 B(  3-C ,  6-H ) :   0.9579
B(  3-C ,  7-H ) :   0.9657

-----------------------------------------------------------------------------
         ABSORPTION SPECTRUM VIA TRANSITION ELECTRIC DIPOLE MOMENTS
-----------------------------------------------------------------------------
State   Energy    Wavelength  fosc         T2        TX        TY        TZ
        (cm-1)      (nm)                 (au**2)    (au)      (au)      (au)
-----------------------------------------------------------------------------
   1   31773.4    314.7   0.000028273   0.00029  -0.01102  -0.00226  -0.01290

Dispersion correction           -0.025638637
FINAL SINGLE POINT ENERGY      -189.320306724322

DIPOLE MOMENT
-------------
                                X             Y             Z
Electronic contribution:     -1.73727      -1.82378      -0.22014
Nuclear contribution   :      2.09959       2.84495       0.33271
                        -----------------------------------------
Total Dipole Moment    :      0.36232       1.02117       0.11257
                        -----------------------------------------
Magnitude (a.u.)       :      1.08937
Magnitude (Debye)      :      2.76897

Rotational constants in cm-1:     0.738870     0.210975     0.164513
Rotational constants in MHz : 22150.766179  6324.875911  4931.974051

                             ****ORCA TERMINATED NORMALLY****
TOTAL RUN TIME: 0 days 0 hours 0 minutes 10 seconds 565 msec
