                         Program Version 5.0.3 -  RELEASE  -
|  1> ! HF-3c
|  2> !TightSCF
|  3> %scf
|  4>  ConvForced true
|  5>  convergence tight
|  6>  MaxIter 500
|  7> end
|  8>
|  9> %tddft
| 10>  nroots 1
| 11> end
| 12>
| 13> # 	25631
| 14> * xyz 0 1
| 15> 		C   -0.612352  -0.356023   0.077079
| 16> 		O   -0.534838  -1.646898  -0.056503
| 17> 		C    0.630255   0.413200  -0.045935
| 18> 		C    1.816502  -0.157280   0.020457
| 19> 		H   -1.782717  -0.072503   0.250830
| 20> 		H    0.645969   1.451252  -0.236926
| 21> 		H    2.046579  -1.175268   0.382801
| 22> 		H    2.684390   0.386805  -0.142977
| 23> *
| 24>
| 25>                          ****END OF INPUT****

CARTESIAN COORDINATES (ANGSTROEM)
---------------------------------
  C     -0.612352   -0.356023    0.077079
  O     -0.534838   -1.646898   -0.056503
  C      0.630255    0.413200   -0.045935
  C      1.816502   -0.157280    0.020457
  H     -1.782717   -0.072503    0.250830
  H      0.645969    1.451252   -0.236926
  H      2.046579   -1.175268    0.382801
  H      2.684390    0.386805   -0.142977

 Total Charge           Charge          ....    0
 Multiplicity           Mult            ....    1
 Number of Electrons    NEL             ....   30
 Basis Dimension        Dim             ....   24

ORBITAL ENERGIES
----------------

  NO   OCC          E(Eh)            E(eV)
   0   2.0000     -20.323668      -553.0351
   1   2.0000     -11.267449      -306.6029
   2   2.0000     -11.200915      -304.7924
   3   2.0000     -11.194765      -304.6251
   4   2.0000      -1.333513       -36.2867
   5   2.0000      -1.085694       -29.5432
   6   2.0000      -0.881979       -23.9999
   7   2.0000      -0.746263       -20.3069
   8   2.0000      -0.696562       -18.9544
   9   2.0000      -0.614346       -16.7172
  10   2.0000      -0.569344       -15.4926
  11   2.0000      -0.516673       -14.0594
  12   2.0000      -0.500585       -13.6216
  13   2.0000      -0.408525       -11.1165
  14   2.0000      -0.384698       -10.4682
  15   0.0000       0.123860         3.3704
  16   0.0000       0.295480         8.0404
  17   0.0000       0.459106        12.4929
  18   0.0000       0.625307        17.0155
  19   0.0000       0.639966        17.4144

MULLIKEN ATOMIC CHARGES
-----------------------
   0 C :    0.131922
   1 O :   -0.345436
   2 C :   -0.186912
   3 C :   -0.211151
   4 H :    0.159323
   5 H :    0.149827
   6 H :    0.160572
   7 H :    0.141855
Sum of atomic charges:   -0.0000000

LOEWDIN ATOMIC CHARGES
----------------------
   0 C :    0.125257
   1 O :   -0.277407
   2 C :   -0.131444
   3 C :   -0.111094
   4 H :    0.106305
   5 H :    0.094117
   6 H :    0.106703
   7 H :    0.087562

  Mayer bond orders larger than 0.100000
B(  0-C ,  1-O ) :   1.8802 B(  0-C ,  2-C ) :   1.0528 B(  0-C ,  4-H ) :   0.9307
B(  2-C ,  3-C ) :   1.9364 B(  2-C ,  5-H ) :   0.9551 B(  3-C ,  6-H ) :   0.9597
B(  3-C ,  7-H ) :   0.9664

-----------------------------------------------------------------------------
         ABSORPTION SPECTRUM VIA TRANSITION ELECTRIC DIPOLE MOMENTS
-----------------------------------------------------------------------------
State   Energy    Wavelength  fosc         T2        TX        TY        TZ
        (cm-1)      (nm)                 (au**2)    (au)      (au)      (au)
-----------------------------------------------------------------------------
   1   26833.7    372.7   0.000063750   0.00078  -0.02109   0.00043   0.01836

Dispersion correction           -0.025440208
FINAL SINGLE POINT ENERGY      -189.337559770726

DIPOLE MOMENT
-------------
                                X             Y             Z
Electronic contribution:     -1.98736      -1.41757      -0.10715
Nuclear contribution   :      2.21504       2.34088       0.23912
                        -----------------------------------------
Total Dipole Moment    :      0.22769       0.92331       0.13197
                        -----------------------------------------
Magnitude (a.u.)       :      0.96008
Magnitude (Debye)      :      2.44033

Rotational constants in cm-1:     0.712051     0.214584     0.166325
Rotational constants in MHz : 21346.740177  6433.058512  4986.294702

                             ****ORCA TERMINATED NORMALLY****
TOTAL RUN TIME: 0 days 0 hours 0 minutes 11 seconds 815 msec
