                         Program Version 5.0.3 -  RELEASE  -
|  1> ! HF-3c
|  2> !TightSCF
|  3> %scf
|  4>  ConvForced true
|  5>  convergence tight
|  6>  MaxIter 500
|  7> end
|  8>
|  9> %tddft
| 10>  nroots 1
| 11> end
| 12>
| 13> # 	22408
| 14> * xyz 0 1
| 15> 		C   -0.610334  -0.451226  -0.059649
| 16> 		O   -0.575275  -1.618985   0.014909
| 17> 		C    0.674213   0.426772   0.044177
| 18> 		C    1.822491  -0.133754  -0.014766
| 19> 		H   -1.645548   0.001402   0.108859
| 20> 		H    0.529497   1.521505   0.019089
| 21> 		H    2.076480  -1.109683   0.126526
| 22> 		H    2.662166   0.425999  -0.140420
| 23> *
| 24>
| 25>                          ****END OF INPUT****

CARTESIAN COORDINATES (ANGSTROEM)
---------------------------------
  C     -0.610334   -0.451226   -0.059649
  O     -0.575275   -1.618985    0.014909
  C      0.674213    0.426772    0.044177
  C      1.822491   -0.133754   -0.014766
  H     -1.645548    0.001402    0.108859
  H      0.529497    1.521505    0.019089
  H      2.076480   -1.109683    0.126526
  H      2.662166    0.425999   -0.140420

 Total Charge           Charge          ....    0
 Multiplicity           Mult            ....    1
 Number of Electrons    NEL             ....   30
 Basis Dimension        Dim             ....   24

ORBITAL ENERGIES
----------------

  NO   OCC          E(Eh)            E(eV)
   0   2.0000     -20.380242      -554.5746
   1   2.0000     -11.303183      -307.5752
   2   2.0000     -11.198461      -304.7256
   3   2.0000     -11.191995      -304.5497
   4   2.0000      -1.435511       -39.0622
   5   2.0000      -1.093021       -29.7426
   6   2.0000      -0.878894       -23.9159
   7   2.0000      -0.762795       -20.7567
   8   2.0000      -0.711753       -19.3678
   9   2.0000      -0.633506       -17.2386
  10   2.0000      -0.610584       -16.6148
  11   2.0000      -0.555791       -15.1238
  12   2.0000      -0.543865       -14.7993
  13   2.0000      -0.419829       -11.4241
  14   2.0000      -0.399834       -10.8800
  15   0.0000       0.147675         4.0184
  16   0.0000       0.305234         8.3058
  17   0.0000       0.501061        13.6346
  18   0.0000       0.599276        16.3071
  19   0.0000       0.673031        18.3141

MULLIKEN ATOMIC CHARGES
-----------------------
   0 C :    0.183495
   1 O :   -0.356732
   2 C :   -0.155252
   3 C :   -0.261765
   4 H :    0.137104
   5 H :    0.147795
   6 H :    0.159984
   7 H :    0.145371
Sum of atomic charges:    0.0000000

LOEWDIN ATOMIC CHARGES
----------------------
   0 C :    0.146419
   1 O :   -0.246024
   2 C :   -0.110184
   3 C :   -0.151468
   4 H :    0.075610
   5 H :    0.096002
   6 H :    0.099889
   7 H :    0.089756

  Mayer bond orders larger than 0.100000
B(  0-C ,  1-O ) :   1.9367 B(  0-C ,  2-C ) :   0.9716 B(  0-C ,  4-H ) :   0.9194
B(  2-C ,  3-C ) :   1.9873 B(  2-C ,  5-H ) :   0.9571 B(  3-C ,  6-H ) :   0.9589
B(  3-C ,  7-H ) :   0.9617

-----------------------------------------------------------------------------
         ABSORPTION SPECTRUM VIA TRANSITION ELECTRIC DIPOLE MOMENTS
-----------------------------------------------------------------------------
State   Energy    Wavelength  fosc         T2        TX        TY        TZ
        (cm-1)      (nm)                 (au**2)    (au)      (au)      (au)
-----------------------------------------------------------------------------
   1   34109.7    293.2   0.000894482   0.00863   0.09113   0.01631  -0.00792

Dispersion correction           -0.025544517
FINAL SINGLE POINT ENERGY      -189.314377882206

DIPOLE MOMENT
-------------
                                X             Y             Z
Electronic contribution:     -2.07436      -1.67322      -0.12333
Nuclear contribution   :      2.24068       2.57487       0.10787
                        -----------------------------------------
Total Dipole Moment    :      0.16631       0.90165      -0.01545
                        -----------------------------------------
Magnitude (a.u.)       :      0.91699
Magnitude (Debye)      :      2.33080

Rotational constants in cm-1:     0.790292     0.208385     0.165293
Rotational constants in MHz : 23692.357949  6247.229222  4955.369005

                             ****ORCA TERMINATED NORMALLY****
TOTAL RUN TIME: 0 days 0 hours 0 minutes 13 seconds 431 msec
