                         Program Version 5.0.3 -  RELEASE  -
|  1> ! B3LYP cc-pVDZ
|  2> !TightSCF
|  3> %scf
|  4>  ConvForced true
|  5>  convergence tight
|  6>  MaxIter 500
|  7> end
|  8>
|  9> %tddft
| 10>  nroots 1
| 11> end
| 12>
| 13> # 	4795
| 14> * xyz 0 1
| 15> 		C   -1.186118  -0.296446   0.020690
| 16> 		O   -1.824795  -0.809540   0.929987
| 17> 		C   -0.034956   0.541717   0.228734
| 18> 		C    1.199397   0.048976  -0.236441
| 19> 		H   -1.397820  -0.566406  -0.964880
| 20> 		H   -0.229899   1.297920   0.805229
| 21> 		H    1.239056  -0.948471  -0.708321
| 22> 		H    2.201928   0.664711  -0.123196
| 23> *
| 24>
| 25>                          ****END OF INPUT****

CARTESIAN COORDINATES (ANGSTROEM)
---------------------------------
  C     -1.186118   -0.296446    0.020690
  O     -1.824795   -0.809540    0.929987
  C     -0.034956    0.541717    0.228734
  C      1.199397    0.048976   -0.236441
  H     -1.397820   -0.566406   -0.964880
  H     -0.229899    1.297920    0.805229
  H      1.239056   -0.948471   -0.708321
  H      2.201928    0.664711   -0.123196

 Total Charge           Charge          ....    0
 Multiplicity           Mult            ....    1
 Number of Electrons    NEL             ....   30
 Basis Dimension        Dim             ....   76

ORBITAL ENERGIES
----------------

  NO   OCC          E(Eh)            E(eV)
   0   2.0000     -19.137433      -520.7560
   1   2.0000     -10.267377      -279.3895
   2   2.0000     -10.231570      -278.4152
   3   2.0000     -10.204388      -277.6755
   4   2.0000      -1.039744       -28.2929
   5   2.0000      -0.796745       -21.6805
   6   2.0000      -0.650971       -17.7138
   7   2.0000      -0.588896       -16.0247
   8   2.0000      -0.484663       -13.1884
   9   2.0000      -0.462326       -12.5805
  10   2.0000      -0.432872       -11.7791
  11   2.0000      -0.397874       -10.8267
  12   2.0000      -0.374048       -10.1784
  13   2.0000      -0.279120        -7.5952
  14   2.0000      -0.252968        -6.8836
  15   0.0000      -0.061330        -1.6689
  16   0.0000       0.003665         0.0997
  17   0.0000       0.074893         2.0380
  18   0.0000       0.097254         2.6464
  19   0.0000       0.119833         3.2608

MULLIKEN ATOMIC CHARGES
-----------------------
   0 C :    0.178460
   1 O :   -0.205943
   2 C :    0.029816
   3 C :   -0.037945
   4 H :   -0.028255
   5 H :   -0.042027
   6 H :    0.042000
   7 H :    0.063894
Sum of atomic charges:   -0.0000000

LOEWDIN ATOMIC CHARGES
----------------------
   0 C :   -0.018035
   1 O :   -0.007969
   2 C :   -0.022323
   3 C :   -0.015112
   4 H :   -0.013660
   5 H :   -0.003338
   6 H :    0.031418
   7 H :    0.049019

  Mayer bond orders larger than 0.100000
B(  0-C ,  1-O ) :   2.1830 B(  0-C ,  2-C ) :   1.0486 B(  0-C ,  4-H ) :   0.9345
B(  2-C ,  3-C ) :   1.9493 B(  2-C ,  5-H ) :   0.9522 B(  3-C ,  6-H ) :   0.9456
B(  3-C ,  7-H ) :   0.9495

-----------------------------------------------------------------------------
         ABSORPTION SPECTRUM VIA TRANSITION ELECTRIC DIPOLE MOMENTS
-----------------------------------------------------------------------------
State   Energy    Wavelength  fosc         T2        TX        TY        TZ
        (cm-1)      (nm)                 (au**2)    (au)      (au)      (au)
-----------------------------------------------------------------------------
   1   29217.8    342.3   0.001065894   0.01201  -0.09455  -0.00012   0.05542

FINAL SINGLE POINT ENERGY      -191.636646007789

DIPOLE MOMENT
-------------
                                X             Y             Z
Electronic contribution:     -2.83090      -0.57881       1.25465
Nuclear contribution   :      3.53074       1.01063      -1.85933
                        -----------------------------------------
Total Dipole Moment    :      0.69984       0.43182      -0.60469
                        -----------------------------------------
Magnitude (a.u.)       :      1.02073
Magnitude (Debye)      :      2.59449

Rotational constants in cm-1:     1.110524     0.162810     0.156893
Rotational constants in MHz : 33292.669020  4880.928313  4703.537120

                             ****ORCA TERMINATED NORMALLY****
TOTAL RUN TIME: 0 days 0 hours 3 minutes 14 seconds 973 msec
