                         Program Version 5.0.3 -  RELEASE  -
|  1> ! HF-3c
|  2> !TightSCF
|  3> %scf
|  4>  ConvForced true
|  5>  convergence tight
|  6>  MaxIter 500
|  7> end
|  8>
|  9> %tddft
| 10>  nroots 1
| 11> end
| 12>
| 13> # 	12656
| 14> * xyz 0 1
| 15> 		C   -1.167367  -0.337262  -0.110861
| 16> 		O   -2.048754  -0.421186  -0.877404
| 17> 		C   -0.033144   0.523463  -0.224914
| 18> 		C    1.187946   0.031256   0.196881
| 19> 		H   -1.235687  -0.884759   0.833704
| 20> 		H   -0.238015   1.295882  -0.753954
| 21> 		H    1.204129  -0.839864   0.938777
| 22> 		H    2.334940   0.633254  -0.040546
| 23> *
| 24>
| 25>                          ****END OF INPUT****

CARTESIAN COORDINATES (ANGSTROEM)
---------------------------------
  C     -1.167367   -0.337262   -0.110861
  O     -2.048754   -0.421186   -0.877404
  C     -0.033144    0.523463   -0.224914
  C      1.187946    0.031256    0.196881
  H     -1.235687   -0.884759    0.833704
  H     -0.238015    1.295882   -0.753954
  H      1.204129   -0.839864    0.938777
  H      2.334940    0.633254   -0.040546

 Total Charge           Charge          ....    0
 Multiplicity           Mult            ....    1
 Number of Electrons    NEL             ....   30
 Basis Dimension        Dim             ....   24

ORBITAL ENERGIES
----------------

  NO   OCC          E(Eh)            E(eV)
   0   2.0000     -20.365863      -554.1833
   1   2.0000     -11.299955      -307.4874
   2   2.0000     -11.199461      -304.7528
   3   2.0000     -11.184091      -304.3346
   4   2.0000      -1.427186       -38.8357
   5   2.0000      -1.081255       -29.4224
   6   2.0000      -0.866026       -23.5658
   7   2.0000      -0.796156       -21.6645
   8   2.0000      -0.668886       -18.2013
   9   2.0000      -0.631363       -17.1803
  10   2.0000      -0.595625       -16.2078
  11   2.0000      -0.538595       -14.6559
  12   2.0000      -0.526437       -14.3251
  13   2.0000      -0.406144       -11.0517
  14   2.0000      -0.381415       -10.3788
  15   0.0000       0.139730         3.8022
  16   0.0000       0.283960         7.7269
  17   0.0000       0.434785        11.8311
  18   0.0000       0.572193        15.5702
  19   0.0000       0.677881        18.4461

MULLIKEN ATOMIC CHARGES
-----------------------
   0 C :    0.177706
   1 O :   -0.364224
   2 C :   -0.219310
   3 C :   -0.167003
   4 H :    0.124242
   5 H :    0.151340
   6 H :    0.141804
   7 H :    0.155446
Sum of atomic charges:   -0.0000000

LOEWDIN ATOMIC CHARGES
----------------------
   0 C :    0.151082
   1 O :   -0.258790
   2 C :   -0.166852
   3 C :   -0.087522
   4 H :    0.059629
   5 H :    0.087473
   6 H :    0.095576
   7 H :    0.119404

  Mayer bond orders larger than 0.100000
B(  0-C ,  1-O ) :   1.9011 B(  0-C ,  2-C ) :   1.0335 B(  0-C ,  4-H ) :   0.9201
B(  2-C ,  3-C ) :   1.9239 B(  2-C ,  5-H ) :   0.9600 B(  3-C ,  6-H ) :   0.9613
B(  3-C ,  7-H ) :   0.9539

-----------------------------------------------------------------------------
         ABSORPTION SPECTRUM VIA TRANSITION ELECTRIC DIPOLE MOMENTS
-----------------------------------------------------------------------------
State   Energy    Wavelength  fosc         T2        TX        TY        TZ
        (cm-1)      (nm)                 (au**2)    (au)      (au)      (au)
-----------------------------------------------------------------------------
   1   35680.3    280.3   0.000020654   0.00019  -0.00136  -0.00047   0.01373

Dispersion correction           -0.025750228
FINAL SINGLE POINT ENERGY      -189.261261280260

DIPOLE MOMENT
-------------
                                X             Y             Z
Electronic contribution:     -2.80682      -0.38021      -1.21642
Nuclear contribution   :      3.98030       0.44910       1.89373
                        -----------------------------------------
Total Dipole Moment    :      1.17348       0.06889       0.67731
                        -----------------------------------------
Magnitude (a.u.)       :      1.35667
Magnitude (Debye)      :      3.44837

Rotational constants in cm-1:     1.406065     0.160660     0.149781
Rotational constants in MHz : 42152.780331  4816.462256  4490.326410

                             ****ORCA TERMINATED NORMALLY****
TOTAL RUN TIME: 0 days 0 hours 0 minutes 13 seconds 676 msec
