                         Program Version 5.0.3 -  RELEASE  -
|  1> ! B3LYP cc-pVDZ
|  2> !TightSCF
|  3> %scf
|  4>  ConvForced true
|  5>  convergence tight
|  6>  MaxIter 500
|  7> end
|  8>
|  9> %tddft
| 10>  nroots 1
| 11> end
| 12>
| 13> # 	25316
| 14> * xyz 0 1
| 15> 		C   -0.600465  -0.481499   0.041432
| 16> 		O   -0.596500  -1.649947  -0.020381
| 17> 		C    0.612912   0.444344  -0.055592
| 18> 		C    1.888245  -0.091433   0.020502
| 19> 		H   -1.624767   0.103666   0.246548
| 20> 		H    0.486043   1.648905  -0.170646
| 21> 		H    1.991998  -1.153570  -0.095697
| 22> 		H    2.925158   0.369063   0.272243
| 23> *
| 24>
| 25>                          ****END OF INPUT****

CARTESIAN COORDINATES (ANGSTROEM)
---------------------------------
  C     -0.600465   -0.481499    0.041432
  O     -0.596500   -1.649947   -0.020381
  C      0.612912    0.444344   -0.055592
  C      1.888245   -0.091433    0.020502
  H     -1.624767    0.103666    0.246548
  H      0.486043    1.648905   -0.170646
  H      1.991998   -1.153570   -0.095697
  H      2.925158    0.369063    0.272243

 Total Charge           Charge          ....    0
 Multiplicity           Mult            ....    1
 Number of Electrons    NEL             ....   30
 Basis Dimension        Dim             ....   76

ORBITAL ENERGIES
----------------

  NO   OCC          E(Eh)            E(eV)
   0   2.0000     -19.146084      -520.9914
   1   2.0000     -10.287234      -279.9299
   2   2.0000     -10.225767      -278.2573
   3   2.0000     -10.224005      -278.2093
   4   2.0000      -1.074918       -29.2500
   5   2.0000      -0.776968       -21.1424
   6   2.0000      -0.641370       -17.4526
   7   2.0000      -0.535351       -14.5676
   8   2.0000      -0.491122       -13.3641
   9   2.0000      -0.452296       -12.3076
  10   2.0000      -0.423728       -11.5302
  11   2.0000      -0.412003       -11.2112
  12   2.0000      -0.373927       -10.1751
  13   2.0000      -0.279766        -7.6128
  14   2.0000      -0.258489        -7.0338
  15   0.0000      -0.068781        -1.8716
  16   0.0000       0.039823         1.0836
  17   0.0000       0.065955         1.7947
  18   0.0000       0.084944         2.3114
  19   0.0000       0.096565         2.6277

MULLIKEN ATOMIC CHARGES
-----------------------
   0 C :    0.163958
   1 O :   -0.144357
   2 C :   -0.166755
   3 C :    0.029620
   4 H :   -0.016436
   5 H :    0.036769
   6 H :    0.037835
   7 H :    0.059365
Sum of atomic charges:   -0.0000000

LOEWDIN ATOMIC CHARGES
----------------------
   0 C :   -0.064052
   1 O :    0.038926
   2 C :   -0.096845
   3 C :    0.010977
   4 H :   -0.006890
   5 H :    0.048057
   6 H :    0.023540
   7 H :    0.046287

  Mayer bond orders larger than 0.100000
B(  0-C ,  1-O ) :   2.2447 B(  0-C ,  2-C ) :   0.9897 B(  0-C ,  4-H ) :   0.8916
B(  2-C ,  3-C ) :   1.9260 B(  2-C ,  5-H ) :   0.9389 B(  3-C ,  6-H ) :   0.9417
B(  3-C ,  7-H ) :   0.9578

-----------------------------------------------------------------------------
         ABSORPTION SPECTRUM VIA TRANSITION ELECTRIC DIPOLE MOMENTS
-----------------------------------------------------------------------------
State   Energy    Wavelength  fosc         T2        TX        TY        TZ
        (cm-1)      (nm)                 (au**2)    (au)      (au)      (au)
-----------------------------------------------------------------------------
   1   29685.9    336.9   0.000152311   0.00169  -0.03656  -0.00275  -0.01856

FINAL SINGLE POINT ENERGY      -191.647962017013

DIPOLE MOMENT
-------------
                                X             Y             Z
Electronic contribution:     -1.94503      -1.95595      -0.18857
Nuclear contribution   :      2.38727       2.69594       0.23623
                        -----------------------------------------
Total Dipole Moment    :      0.44224       0.73998       0.04766
                        -----------------------------------------
Magnitude (a.u.)       :      0.86338
Magnitude (Debye)      :      2.19454

Rotational constants in cm-1:     0.737574     0.197455     0.156462
Rotational constants in MHz : 22111.901264  5919.550194  4690.602365

                             ****ORCA TERMINATED NORMALLY****
TOTAL RUN TIME: 0 days 0 hours 3 minutes 27 seconds 924 msec
