                         Program Version 5.0.3 -  RELEASE  -
|  1> ! HF-3c
|  2> !TightSCF
|  3> %scf
|  4>  ConvForced true
|  5>  convergence tight
|  6>  MaxIter 500
|  7> end
|  8>
|  9> %tddft
| 10>  nroots 1
| 11> end
| 12>
| 13> # 	25892
| 14> * xyz 0 1
| 15> 		C   -0.605173  -0.455180   0.061403
| 16> 		O   -0.611585  -1.681697  -0.039486
| 17> 		C    0.642679   0.443051  -0.038097
| 18> 		C    1.890122  -0.086529   0.019667
| 19> 		H   -1.506359   0.287427   0.205912
| 20> 		H    0.459651   1.441828  -0.268015
| 21> 		H    2.091653  -1.129388   0.113433
| 22> 		H    2.655220   0.541322   0.048935
| 23> *
| 24>
| 25>                          ****END OF INPUT****

CARTESIAN COORDINATES (ANGSTROEM)
---------------------------------
  C     -0.605173   -0.455180    0.061403
  O     -0.611585   -1.681697   -0.039486
  C      0.642679    0.443051   -0.038097
  C      1.890122   -0.086529    0.019667
  H     -1.506359    0.287427    0.205912
  H      0.459651    1.441828   -0.268015
  H      2.091653   -1.129388    0.113433
  H      2.655220    0.541322    0.048935

 Total Charge           Charge          ....    0
 Multiplicity           Mult            ....    1
 Number of Electrons    NEL             ....   30
 Basis Dimension        Dim             ....   24

ORBITAL ENERGIES
----------------

  NO   OCC          E(Eh)            E(eV)
   0   2.0000     -20.369003      -554.2688
   1   2.0000     -11.292900      -307.2954
   2   2.0000     -11.192763      -304.5706
   3   2.0000     -11.187611      -304.4304
   4   2.0000      -1.386449       -37.7272
   5   2.0000      -1.073537       -29.2124
   6   2.0000      -0.894520       -24.3411
   7   2.0000      -0.751938       -20.4613
   8   2.0000      -0.695972       -18.9384
   9   2.0000      -0.615451       -16.7473
  10   2.0000      -0.597743       -16.2654
  11   2.0000      -0.556492       -15.1429
  12   2.0000      -0.524565       -14.2741
  13   2.0000      -0.405969       -11.0470
  14   2.0000      -0.391688       -10.6584
  15   0.0000       0.128104         3.4859
  16   0.0000       0.283627         7.7179
  17   0.0000       0.522336        14.2135
  18   0.0000       0.591521        16.0961
  19   0.0000       0.656336        17.8598

MULLIKEN ATOMIC CHARGES
-----------------------
   0 C :    0.181026
   1 O :   -0.351597
   2 C :   -0.167456
   3 C :   -0.239223
   4 H :    0.134614
   5 H :    0.139955
   6 H :    0.161028
   7 H :    0.141653
Sum of atomic charges:   -0.0000000

LOEWDIN ATOMIC CHARGES
----------------------
   0 C :    0.159479
   1 O :   -0.260561
   2 C :   -0.122470
   3 C :   -0.129292
   4 H :    0.077831
   5 H :    0.085256
   6 H :    0.105190
   7 H :    0.084568

  Mayer bond orders larger than 0.100000
B(  0-C ,  1-O ) :   1.9294 B(  0-C ,  2-C ) :   1.0007 B(  0-C ,  4-H ) :   0.9147
B(  2-C ,  3-C ) :   1.9550 B(  2-C ,  5-H ) :   0.9646 B(  3-C ,  6-H ) :   0.9617
B(  3-C ,  7-H ) :   0.9689

-----------------------------------------------------------------------------
         ABSORPTION SPECTRUM VIA TRANSITION ELECTRIC DIPOLE MOMENTS
-----------------------------------------------------------------------------
State   Energy    Wavelength  fosc         T2        TX        TY        TZ
        (cm-1)      (nm)                 (au**2)    (au)      (au)      (au)
-----------------------------------------------------------------------------
   1   32189.2    310.7   0.000004858   0.00005  -0.00445  -0.00383  -0.00390

Dispersion correction           -0.025267363
FINAL SINGLE POINT ENERGY      -189.328900340247

DIPOLE MOMENT
-------------
                                X             Y             Z
Electronic contribution:     -2.09170      -1.88710      -0.02291
Nuclear contribution   :      2.31340       2.85614       0.09446
                        -----------------------------------------
Total Dipole Moment    :      0.22170       0.96904       0.07155
                        -----------------------------------------
Magnitude (a.u.)       :      0.99665
Magnitude (Debye)      :      2.53327

Rotational constants in cm-1:     0.742647     0.196475     0.156011
Rotational constants in MHz : 22263.995611  5890.185461  4677.091716

                             ****ORCA TERMINATED NORMALLY****
TOTAL RUN TIME: 0 days 0 hours 0 minutes 13 seconds 797 msec
