                         Program Version 5.0.3 -  RELEASE  -
|  1> ! HF-3c
|  2> !TightSCF
|  3> %scf
|  4>  ConvForced true
|  5>  convergence tight
|  6>  MaxIter 500
|  7> end
|  8>
|  9> %tddft
| 10>  nroots 1
| 11> end
| 12>
| 13> # 	27510
| 14> * xyz 0 1
| 15> 		C   -0.626829  -0.462543   0.070128
| 16> 		O   -0.575161  -1.598953  -0.049769
| 17> 		C    0.631992   0.421323  -0.022354
| 18> 		C    1.897456  -0.129416   0.012461
| 19> 		H   -1.576138   0.012300   0.115275
| 20> 		H    0.306028   1.427272  -0.228591
| 21> 		H    1.986231  -1.280338   0.349746
| 22> 		H    2.665062   0.498002  -0.192128
| 23> *
| 24>
| 25>                          ****END OF INPUT****

CARTESIAN COORDINATES (ANGSTROEM)
---------------------------------
  C     -0.626829   -0.462543    0.070128
  O     -0.575161   -1.598953   -0.049769
  C      0.631992    0.421323   -0.022354
  C      1.897456   -0.129416    0.012461
  H     -1.576138    0.012300    0.115275
  H      0.306028    1.427272   -0.228591
  H      1.986231   -1.280338    0.349746
  H      2.665062    0.498002   -0.192128

 Total Charge           Charge          ....    0
 Multiplicity           Mult            ....    1
 Number of Electrons    NEL             ....   30
 Basis Dimension        Dim             ....   24

ORBITAL ENERGIES
----------------

  NO   OCC          E(Eh)            E(eV)
   0   2.0000     -20.383721      -554.6693
   1   2.0000     -11.308024      -307.7070
   2   2.0000     -11.184276      -304.3396
   3   2.0000     -11.174687      -304.0787
   4   2.0000      -1.454985       -39.5922
   5   2.0000      -1.050835       -28.5947
   6   2.0000      -0.884430       -24.0666
   7   2.0000      -0.762478       -20.7481
   8   2.0000      -0.695407       -18.9230
   9   2.0000      -0.614382       -16.7182
  10   2.0000      -0.607249       -16.5241
  11   2.0000      -0.565557       -15.3896
  12   2.0000      -0.533928       -14.5289
  13   2.0000      -0.403493       -10.9796
  14   2.0000      -0.381959       -10.3936
  15   0.0000       0.145584         3.9615
  16   0.0000       0.301594         8.2068
  17   0.0000       0.501093        13.6354
  18   0.0000       0.586064        15.9476
  19   0.0000       0.662432        18.0257

MULLIKEN ATOMIC CHARGES
-----------------------
   0 C :    0.175417
   1 O :   -0.364984
   2 C :   -0.163110
   3 C :   -0.228180
   4 H :    0.132753
   5 H :    0.135331
   6 H :    0.170742
   7 H :    0.142031
Sum of atomic charges:   -0.0000000

LOEWDIN ATOMIC CHARGES
----------------------
   0 C :    0.140787
   1 O :   -0.245199
   2 C :   -0.124539
   3 C :   -0.132221
   4 H :    0.064334
   5 H :    0.084633
   6 H :    0.125500
   7 H :    0.086705

  Mayer bond orders larger than 0.100000
B(  0-C ,  1-O ) :   1.9243 B(  0-C ,  2-C ) :   0.9868 B(  0-C ,  4-H ) :   0.9236
B(  2-C ,  3-C ) :   1.9620 B(  2-C ,  5-H ) :   0.9640 B(  3-C ,  6-H ) :   0.9527
B(  3-C ,  7-H ) :   0.9682

-----------------------------------------------------------------------------
         ABSORPTION SPECTRUM VIA TRANSITION ELECTRIC DIPOLE MOMENTS
-----------------------------------------------------------------------------
State   Energy    Wavelength  fosc         T2        TX        TY        TZ
        (cm-1)      (nm)                 (au**2)    (au)      (au)      (au)
-----------------------------------------------------------------------------
   1   35956.1    278.1   0.000003122   0.00003   0.00005  -0.00160   0.00510

Dispersion correction           -0.025431000
FINAL SINGLE POINT ENERGY      -189.296137490041

DIPOLE MOMENT
-------------
                                X             Y             Z
Electronic contribution:     -1.81443      -1.62347       0.03569
Nuclear contribution   :      2.01730       2.40525       0.04272
                        -----------------------------------------
Total Dipole Moment    :      0.20288       0.78178       0.07840
                        -----------------------------------------
Magnitude (a.u.)       :      0.81147
Magnitude (Debye)      :      2.06260

Rotational constants in cm-1:     0.759636     0.205930     0.163053
Rotational constants in MHz : 22773.307367  6173.639655  4888.198672

                             ****ORCA TERMINATED NORMALLY****
TOTAL RUN TIME: 0 days 0 hours 0 minutes 11 seconds 276 msec
