                         Program Version 5.0.3 -  RELEASE  -
|  1> ! HF-3c
|  2> !TightSCF
|  3> %scf
|  4>  ConvForced true
|  5>  convergence tight
|  6>  MaxIter 500
|  7> end
|  8>
|  9> %tddft
| 10>  nroots 1
| 11> end
| 12>
| 13> # 	6220
| 14> * xyz 0 1
| 15> 		C   -1.166956  -0.300850   0.058485
| 16> 		O   -1.279542  -1.549219  -0.005713
| 17> 		C    0.028637   0.530009   0.036641
| 18> 		C    1.225447   0.036821   0.035227
| 19> 		H   -2.223788   0.151791  -0.033879
| 20> 		H   -0.211058   1.487862  -0.180651
| 21> 		H    1.467121  -1.001054   0.029840
| 22> 		H    2.224957   0.632660   0.006618
| 23> *
| 24>
| 25>                          ****END OF INPUT****

CARTESIAN COORDINATES (ANGSTROEM)
---------------------------------
  C     -1.166956   -0.300850    0.058485
  O     -1.279542   -1.549219   -0.005713
  C      0.028637    0.530009    0.036641
  C      1.225447    0.036821    0.035227
  H     -2.223788    0.151791   -0.033879
  H     -0.211058    1.487862   -0.180651
  H      1.467121   -1.001054    0.029840
  H      2.224957    0.632660    0.006618

 Total Charge           Charge          ....    0
 Multiplicity           Mult            ....    1
 Number of Electrons    NEL             ....   30
 Basis Dimension        Dim             ....   24

ORBITAL ENERGIES
----------------

  NO   OCC          E(Eh)            E(eV)
   0   2.0000     -20.340908      -553.5042
   1   2.0000     -11.276215      -306.8414
   2   2.0000     -11.206871      -304.9545
   3   2.0000     -11.204989      -304.9032
   4   2.0000      -1.362337       -37.0711
   5   2.0000      -1.100470       -29.9453
   6   2.0000      -0.896132       -24.3850
   7   2.0000      -0.753123       -20.4935
   8   2.0000      -0.699676       -19.0392
   9   2.0000      -0.636912       -17.3312
  10   2.0000      -0.572570       -15.5804
  11   2.0000      -0.533522       -14.5179
  12   2.0000      -0.516553       -14.0561
  13   2.0000      -0.406692       -11.0667
  14   2.0000      -0.399658       -10.8752
  15   0.0000       0.125938         3.4269
  16   0.0000       0.309752         8.4288
  17   0.0000       0.488824        13.3016
  18   0.0000       0.637457        17.3461
  19   0.0000       0.648112        17.6360

MULLIKEN ATOMIC CHARGES
-----------------------
   0 C :    0.152645
   1 O :   -0.348858
   2 C :   -0.209456
   3 C :   -0.194261
   4 H :    0.137941
   5 H :    0.151877
   6 H :    0.157673
   7 H :    0.152439
Sum of atomic charges:    0.0000000

LOEWDIN ATOMIC CHARGES
----------------------
   0 C :    0.139060
   1 O :   -0.269205
   2 C :   -0.151218
   3 C :   -0.096505
   4 H :    0.079694
   5 H :    0.092264
   6 H :    0.100512
   7 H :    0.105399

  Mayer bond orders larger than 0.100000
B(  0-C ,  1-O ) :   1.8923 B(  0-C ,  2-C ) :   1.0387 B(  0-C ,  4-H ) :   0.9345
B(  2-C ,  3-C ) :   1.9425 B(  2-C ,  5-H ) :   0.9551 B(  3-C ,  6-H ) :   0.9594
B(  3-C ,  7-H ) :   0.9587

-----------------------------------------------------------------------------
         ABSORPTION SPECTRUM VIA TRANSITION ELECTRIC DIPOLE MOMENTS
-----------------------------------------------------------------------------
State   Energy    Wavelength  fosc         T2        TX        TY        TZ
        (cm-1)      (nm)                 (au**2)    (au)      (au)      (au)
-----------------------------------------------------------------------------
   1   28809.7    347.1   0.000030801   0.00035  -0.00442   0.00048  -0.01823

Dispersion correction           -0.025442081
FINAL SINGLE POINT ENERGY      -189.336055365340

DIPOLE MOMENT
-------------
                                X             Y             Z
Electronic contribution:     -1.87755      -1.60801       0.21363
Nuclear contribution   :      2.38077       2.53457      -0.25416
                        -----------------------------------------
Total Dipole Moment    :      0.50322       0.92656      -0.04052
                        -----------------------------------------
Magnitude (a.u.)       :      1.05517
Magnitude (Debye)      :      2.68204

Rotational constants in cm-1:     0.816178     0.196957     0.158889
Rotational constants in MHz : 24468.404797  5904.615464  4763.381804

                             ****ORCA TERMINATED NORMALLY****
TOTAL RUN TIME: 0 days 0 hours 0 minutes 10 seconds 939 msec
