                         Program Version 5.0.3 -  RELEASE  -
|  1> ! B3LYP cc-pVDZ
|  2> !TightSCF
|  3> %scf
|  4>  ConvForced true
|  5>  convergence tight
|  6>  MaxIter 500
|  7> end
|  8>
|  9> %tddft
| 10>  nroots 1
| 11> end
| 12>
| 13> # 	29517
| 14> * xyz 0 1
| 15> 		C   -0.593240  -0.464796   0.010485
| 16> 		O   -0.563583  -1.606750  -0.008558
| 17> 		C    0.620774   0.459519   0.037401
| 18> 		C    1.834778  -0.169017  -0.044143
| 19> 		H   -1.415479   0.117140  -0.097973
| 20> 		H    0.258430   1.469373  -0.092799
| 21> 		H    1.903025  -1.175337   0.255825
| 22> 		H    2.927033   0.424599   0.020962
| 23> *
| 24>
| 25>                          ****END OF INPUT****

CARTESIAN COORDINATES (ANGSTROEM)
---------------------------------
  C     -0.593240   -0.464796    0.010485
  O     -0.563583   -1.606750   -0.008558
  C      0.620774    0.459519    0.037401
  C      1.834778   -0.169017   -0.044143
  H     -1.415479    0.117140   -0.097973
  H      0.258430    1.469373   -0.092799
  H      1.903025   -1.175337    0.255825
  H      2.927033    0.424599    0.020962

 Total Charge           Charge          ....    0
 Multiplicity           Mult            ....    1
 Number of Electrons    NEL             ....   30
 Basis Dimension        Dim             ....   76

ORBITAL ENERGIES
----------------

  NO   OCC          E(Eh)            E(eV)
   0   2.0000     -19.138750      -520.7919
   1   2.0000     -10.261139      -279.2198
   2   2.0000     -10.222410      -278.1659
   3   2.0000     -10.204017      -277.6654
   4   2.0000      -1.086045       -29.5528
   5   2.0000      -0.782002       -21.2794
   6   2.0000      -0.659836       -17.9551
   7   2.0000      -0.548624       -14.9288
   8   2.0000      -0.497129       -13.5276
   9   2.0000      -0.457168       -12.4402
  10   2.0000      -0.427665       -11.6373
  11   2.0000      -0.418082       -11.3766
  12   2.0000      -0.374435       -10.1889
  13   2.0000      -0.283461        -7.7134
  14   2.0000      -0.251400        -6.8409
  15   0.0000      -0.064579        -1.7573
  16   0.0000       0.057408         1.5622
  17   0.0000       0.063130         1.7179
  18   0.0000       0.085522         2.3272
  19   0.0000       0.139684         3.8010

MULLIKEN ATOMIC CHARGES
-----------------------
   0 C :    0.218271
   1 O :   -0.136004
   2 C :   -0.124051
   3 C :    0.023541
   4 H :   -0.065692
   5 H :   -0.011310
   6 H :    0.039974
   7 H :    0.055271
Sum of atomic charges:   -0.0000000

LOEWDIN ATOMIC CHARGES
----------------------
   0 C :   -0.067879
   1 O :    0.069544
   2 C :   -0.072622
   3 C :    0.007051
   4 H :   -0.028953
   5 H :    0.021460
   6 H :    0.020798
   7 H :    0.050600

  Mayer bond orders larger than 0.100000
B(  0-C ,  1-O ) :   2.2802 B(  0-C ,  2-C ) :   1.0347 B(  0-C ,  4-H ) :   0.9197
B(  2-C ,  3-C ) :   1.9385 B(  2-C ,  5-H ) :   0.9555 B(  3-C ,  6-H ) :   0.9300
B(  3-C ,  7-H ) :   0.9496

-----------------------------------------------------------------------------
         ABSORPTION SPECTRUM VIA TRANSITION ELECTRIC DIPOLE MOMENTS
-----------------------------------------------------------------------------
State   Energy    Wavelength  fosc         T2        TX        TY        TZ
        (cm-1)      (nm)                 (au**2)    (au)      (au)      (au)
-----------------------------------------------------------------------------
   1   28826.3    346.9   0.000244129   0.00279  -0.04983   0.00309   0.01719

FINAL SINGLE POINT ENERGY      -191.635214789997

DIPOLE MOMENT
-------------
                                X             Y             Z
Electronic contribution:     -2.08747      -1.82450      -0.03123
Nuclear contribution   :      2.29158       2.57187       0.08092
                        -----------------------------------------
Total Dipole Moment    :      0.20411       0.74737       0.04969
                        -----------------------------------------
Magnitude (a.u.)       :      0.77633
Magnitude (Debye)      :      1.97328

Rotational constants in cm-1:     0.745947     0.213947     0.166680
Rotational constants in MHz : 22362.916278  6413.983013  4996.954408

                             ****ORCA TERMINATED NORMALLY****
TOTAL RUN TIME: 0 days 0 hours 3 minutes 23 seconds 305 msec
