                         Program Version 5.0.3 -  RELEASE  -
|  1> ! B3LYP cc-pVDZ
|  2> !TightSCF
|  3> %scf
|  4>  ConvForced true
|  5>  convergence tight
|  6>  MaxIter 500
|  7> end
|  8>
|  9> %tddft
| 10>  nroots 1
| 11> end
| 12>
| 13> # 	31705
| 14> * xyz 0 1
| 15> 		C   -0.582937  -0.398834  -0.028089
| 16> 		O   -0.578147  -1.661513   0.000646
| 17> 		C    0.589881   0.404921   0.058787
| 18> 		C    1.879346  -0.121890   0.013879
| 19> 		H   -1.524472   0.202804  -0.049817
| 20> 		H    0.514206   1.536157  -0.166536
| 21> 		H    2.046763  -1.125171  -0.018610
| 22> 		H    2.615940   0.415318  -0.330144
| 23> *
| 24>
| 25>                          ****END OF INPUT****

CARTESIAN COORDINATES (ANGSTROEM)
---------------------------------
  C     -0.582937   -0.398834   -0.028089
  O     -0.578147   -1.661513    0.000646
  C      0.589881    0.404921    0.058787
  C      1.879346   -0.121890    0.013879
  H     -1.524472    0.202804   -0.049817
  H      0.514206    1.536157   -0.166536
  H      2.046763   -1.125171   -0.018610
  H      2.615940    0.415318   -0.330144

 Total Charge           Charge          ....    0
 Multiplicity           Mult            ....    1
 Number of Electrons    NEL             ....   30
 Basis Dimension        Dim             ....   76

ORBITAL ENERGIES
----------------

  NO   OCC          E(Eh)            E(eV)
   0   2.0000     -19.136201      -520.7225
   1   2.0000     -10.275366      -279.6069
   2   2.0000     -10.217195      -278.0240
   3   2.0000     -10.208784      -277.7951
   4   2.0000      -1.016221       -27.6528
   5   2.0000      -0.796560       -21.6755
   6   2.0000      -0.681929       -18.5562
   7   2.0000      -0.549731       -14.9589
   8   2.0000      -0.508036       -13.8244
   9   2.0000      -0.442770       -12.0484
  10   2.0000      -0.427237       -11.6257
  11   2.0000      -0.388037       -10.5590
  12   2.0000      -0.380488       -10.3536
  13   2.0000      -0.280073        -7.6212
  14   2.0000      -0.256282        -6.9738
  15   0.0000      -0.090953        -2.4750
  16   0.0000       0.049428         1.3450
  17   0.0000       0.063969         1.7407
  18   0.0000       0.099585         2.7098
  19   0.0000       0.123642         3.3645

MULLIKEN ATOMIC CHARGES
-----------------------
   0 C :    0.203182
   1 O :   -0.234660
   2 C :   -0.158270
   3 C :    0.169801
   4 H :   -0.007958
   5 H :    0.016174
   6 H :    0.014460
   7 H :   -0.002729
Sum of atomic charges:    0.0000000

LOEWDIN ATOMIC CHARGES
----------------------
   0 C :   -0.022913
   1 O :   -0.053416
   2 C :   -0.071328
   3 C :    0.085647
   4 H :    0.002978
   5 H :    0.042433
   6 H :    0.015793
   7 H :    0.000806

  Mayer bond orders larger than 0.100000
B(  0-C ,  1-O ) :   2.1140 B(  0-C ,  2-C ) :   1.1140 B(  0-C ,  4-H ) :   0.9189
B(  1-O ,  3-C ) :   0.1193 B(  2-C ,  3-C ) :   1.9154 B(  2-C ,  5-H ) :   0.9363
B(  3-C ,  6-H ) :   0.9539 B(  3-C ,  7-H ) :   0.9478

-----------------------------------------------------------------------------
         ABSORPTION SPECTRUM VIA TRANSITION ELECTRIC DIPOLE MOMENTS
-----------------------------------------------------------------------------
State   Energy    Wavelength  fosc         T2        TX        TY        TZ
        (cm-1)      (nm)                 (au**2)    (au)      (au)      (au)
-----------------------------------------------------------------------------
   1   23769.8    420.7   0.000185385   0.00257  -0.04648  -0.01046   0.01725

FINAL SINGLE POINT ENERGY      -191.668284698254

DIPOLE MOMENT
-------------
                                X             Y             Z
Electronic contribution:     -1.75977      -1.78944       0.38685
Nuclear contribution   :      2.26976       2.75102      -0.52856
                        -----------------------------------------
Total Dipole Moment    :      0.50999       0.96158      -0.14171
                        -----------------------------------------
Magnitude (a.u.)       :      1.09764
Magnitude (Debye)      :      2.78997

Rotational constants in cm-1:     0.722303     0.208749     0.162552
Rotational constants in MHz : 21654.089403  6258.144758  4873.179259

                             ****ORCA TERMINATED NORMALLY****
TOTAL RUN TIME: 0 days 0 hours 3 minutes 19 seconds 405 msec
