                         Program Version 5.0.3 -  RELEASE  -
|  1> ! HF-3c
|  2> !TightSCF
|  3> %scf
|  4>  ConvForced true
|  5>  convergence tight
|  6>  MaxIter 500
|  7> end
|  8>
|  9> %tddft
| 10>  nroots 1
| 11> end
| 12>
| 13> # 	2983
| 14> * xyz 0 1
| 15> 		C   -1.246715  -0.338857  -0.001304
| 16> 		O   -1.243907  -1.422049   0.383664
| 17> 		C    0.041701   0.571004   0.051760
| 18> 		C    1.252715   0.010198  -0.090857
| 19> 		H   -2.208767  -0.057512  -0.393047
| 20> 		H   -0.195414   1.693042   0.429308
| 21> 		H    1.266990  -1.023244  -0.212797
| 22> 		H    2.291069   0.567913  -0.119965
| 23> *
| 24>
| 25>                          ****END OF INPUT****

CARTESIAN COORDINATES (ANGSTROEM)
---------------------------------
  C     -1.246715   -0.338857   -0.001304
  O     -1.243907   -1.422049    0.383664
  C      0.041701    0.571004    0.051760
  C      1.252715    0.010198   -0.090857
  H     -2.208767   -0.057512   -0.393047
  H     -0.195414    1.693042    0.429308
  H      1.266990   -1.023244   -0.212797
  H      2.291069    0.567913   -0.119965

 Total Charge           Charge          ....    0
 Multiplicity           Mult            ....    1
 Number of Electrons    NEL             ....   30
 Basis Dimension        Dim             ....   24

ORBITAL ENERGIES
----------------

  NO   OCC          E(Eh)            E(eV)
   0   2.0000     -20.381638      -554.6126
   1   2.0000     -11.306868      -307.6755
   2   2.0000     -11.182407      -304.2888
   3   2.0000     -11.177446      -304.1538
   4   2.0000      -1.452542       -39.5257
   5   2.0000      -1.051981       -28.6259
   6   2.0000      -0.859806       -23.3965
   7   2.0000      -0.757581       -20.6148
   8   2.0000      -0.688587       -18.7374
   9   2.0000      -0.611722       -16.6458
  10   2.0000      -0.600824       -16.3493
  11   2.0000      -0.552038       -15.0217
  12   2.0000      -0.519647       -14.1403
  13   2.0000      -0.405846       -11.0436
  14   2.0000      -0.386122       -10.5069
  15   0.0000       0.169055         4.6002
  16   0.0000       0.277804         7.5594
  17   0.0000       0.466183        12.6855
  18   0.0000       0.539255        14.6739
  19   0.0000       0.627878        17.0854

MULLIKEN ATOMIC CHARGES
-----------------------
   0 C :    0.168441
   1 O :   -0.361703
   2 C :   -0.143937
   3 C :   -0.243874
   4 H :    0.141261
   5 H :    0.142979
   6 H :    0.146614
   7 H :    0.150219
Sum of atomic charges:    0.0000000

LOEWDIN ATOMIC CHARGES
----------------------
   0 C :    0.135376
   1 O :   -0.244687
   2 C :   -0.112402
   3 C :   -0.150858
   4 H :    0.073452
   5 H :    0.100685
   6 H :    0.091711
   7 H :    0.106722

  Mayer bond orders larger than 0.100000
B(  0-C ,  1-O ) :   1.9389 B(  0-C ,  2-C ) :   0.9625 B(  0-C ,  4-H ) :   0.9250
B(  2-C ,  3-C ) :   1.9900 B(  2-C ,  5-H ) :   0.9539 B(  3-C ,  6-H ) :   0.9611
B(  3-C ,  7-H ) :   0.9592

-----------------------------------------------------------------------------
         ABSORPTION SPECTRUM VIA TRANSITION ELECTRIC DIPOLE MOMENTS
-----------------------------------------------------------------------------
State   Energy    Wavelength  fosc         T2        TX        TY        TZ
        (cm-1)      (nm)                 (au**2)    (au)      (au)      (au)
-----------------------------------------------------------------------------
   1   36744.3    272.2   0.000133603   0.00120  -0.03393   0.00317   0.00598

Dispersion correction           -0.024864807
FINAL SINGLE POINT ENERGY      -189.288296655004

DIPOLE MOMENT
-------------
                                X             Y             Z
Electronic contribution:     -2.06252      -1.48915       0.38511
Nuclear contribution   :      2.28485       2.33954      -0.63229
                        -----------------------------------------
Total Dipole Moment    :      0.22233       0.85039      -0.24718
                        -----------------------------------------
Magnitude (a.u.)       :      0.91307
Magnitude (Debye)      :      2.32084

Rotational constants in cm-1:     0.787750     0.195398     0.160451
Rotational constants in MHz : 23616.145930  5857.875967  4810.208687

                             ****ORCA TERMINATED NORMALLY****
TOTAL RUN TIME: 0 days 0 hours 0 minutes 11 seconds 219 msec
