                         Program Version 5.0.3 -  RELEASE  -
|  1> ! B3LYP cc-pVDZ
|  2> !TightSCF
|  3> %scf
|  4>  ConvForced true
|  5>  convergence tight
|  6>  MaxIter 500
|  7> end
|  8>
|  9> %tddft
| 10>  nroots 1
| 11> end
| 12>
| 13> # 	12878
| 14> * xyz 0 1
| 15> 		C   -1.268950  -0.369183  -0.054448
| 16> 		O   -2.146369  -0.304074  -0.612086
| 17> 		C    0.023043   0.381973  -0.422234
| 18> 		C    1.252670   0.115226   0.272746
| 19> 		H   -1.174968  -0.997820   0.803657
| 20> 		H   -0.119752   1.283715  -1.099722
| 21> 		H    1.159968  -0.719249   0.869312
| 22> 		H    2.267769   0.592417   0.260711
| 23> *
| 24>
| 25>                          ****END OF INPUT****

CARTESIAN COORDINATES (ANGSTROEM)
---------------------------------
  C     -1.268950   -0.369183   -0.054448
  O     -2.146369   -0.304074   -0.612086
  C      0.023043    0.381973   -0.422234
  C      1.252670    0.115226    0.272746
  H     -1.174968   -0.997820    0.803657
  H     -0.119752    1.283715   -1.099722
  H      1.159968   -0.719249    0.869312
  H      2.267769    0.592417    0.260711

 Total Charge           Charge          ....    0
 Multiplicity           Mult            ....    1
 Number of Electrons    NEL             ....   30
 Basis Dimension        Dim             ....   76

ORBITAL ENERGIES
----------------

  NO   OCC          E(Eh)            E(eV)
   0   2.0000     -19.139980      -520.8253
   1   2.0000     -10.263039      -279.2715
   2   2.0000     -10.216004      -277.9916
   3   2.0000     -10.209027      -277.8018
   4   2.0000      -1.155612       -31.4458
   5   2.0000      -0.766587       -20.8599
   6   2.0000      -0.631057       -17.1719
   7   2.0000      -0.577881       -15.7249
   8   2.0000      -0.492182       -13.3930
   9   2.0000      -0.475406       -12.9365
  10   2.0000      -0.462026       -12.5724
  11   2.0000      -0.435343       -11.8463
  12   2.0000      -0.382046       -10.3960
  13   2.0000      -0.272597        -7.4177
  14   2.0000      -0.250072        -6.8048
  15   0.0000      -0.050320        -1.3693
  16   0.0000       0.063565         1.7297
  17   0.0000       0.082037         2.2323
  18   0.0000       0.092379         2.5138
  19   0.0000       0.127454         3.4682

MULLIKEN ATOMIC CHARGES
-----------------------
   0 C :    0.183237
   1 O :   -0.033809
   2 C :   -0.175429
   3 C :    0.035704
   4 H :   -0.083570
   5 H :    0.014536
   6 H :    0.007932
   7 H :    0.051398
Sum of atomic charges:   -0.0000000

LOEWDIN ATOMIC CHARGES
----------------------
   0 C :   -0.148019
   1 O :    0.180909
   2 C :   -0.063891
   3 C :   -0.007617
   4 H :   -0.031896
   5 H :    0.028028
   6 H :    0.005920
   7 H :    0.036566

  Mayer bond orders larger than 0.100000
B(  0-C ,  1-O ) :   2.3917 B(  0-C ,  2-C ) :   0.9793 B(  0-C ,  4-H ) :   0.8942
B(  2-C ,  3-C ) :   1.9168 B(  2-C ,  5-H ) :   0.9487 B(  3-C ,  6-H ) :   0.9417
B(  3-C ,  7-H ) :   0.9601

-----------------------------------------------------------------------------
         ABSORPTION SPECTRUM VIA TRANSITION ELECTRIC DIPOLE MOMENTS
-----------------------------------------------------------------------------
State   Energy    Wavelength  fosc         T2        TX        TY        TZ
        (cm-1)      (nm)                 (au**2)    (au)      (au)      (au)
-----------------------------------------------------------------------------
   1   32766.7    305.2   0.000716250   0.00720  -0.06755  -0.03147   0.04054

FINAL SINGLE POINT ENERGY      -191.575205459138

DIPOLE MOMENT
-------------
                                X             Y             Z
Electronic contribution:     -3.48813      -0.32763      -1.20525
Nuclear contribution   :      4.12709       0.35755       1.53953
                        -----------------------------------------
Total Dipole Moment    :      0.63896       0.02992       0.33428
                        -----------------------------------------
Magnitude (a.u.)       :      0.72174
Magnitude (Debye)      :      1.83452

Rotational constants in cm-1:     1.565075     0.155058     0.141546
Rotational constants in MHz : 46919.770174  4648.528831  4243.441705

                             ****ORCA TERMINATED NORMALLY****
TOTAL RUN TIME: 0 days 0 hours 3 minutes 5 seconds 6 msec
