                         Program Version 5.0.3 -  RELEASE  -
|  1> ! HF-3c
|  2> !TightSCF
|  3> %scf
|  4>  ConvForced true
|  5>  convergence tight
|  6>  MaxIter 500
|  7> end
|  8>
|  9> %tddft
| 10>  nroots 1
| 11> end
| 12>
| 13> # 	17091
| 14> * xyz 0 1
| 15> 		C   -1.175331  -0.405321  -0.003438
| 16> 		O   -1.688333  -1.169460   0.797028
| 17> 		C    0.049674   0.420493   0.218462
| 18> 		C    1.224283   0.168980  -0.157656
| 19> 		H   -1.542345  -0.203653  -1.018534
| 20> 		H   -0.159122   1.239908   0.788714
| 21> 		H    1.231046  -0.664023  -0.736516
| 22> 		H    2.021209   0.601020   0.145898
| 23> *
| 24>
| 25>                          ****END OF INPUT****

CARTESIAN COORDINATES (ANGSTROEM)
---------------------------------
  C     -1.175331   -0.405321   -0.003438
  O     -1.688333   -1.169460    0.797028
  C      0.049674    0.420493    0.218462
  C      1.224283    0.168980   -0.157656
  H     -1.542345   -0.203653   -1.018534
  H     -0.159122    1.239908    0.788714
  H      1.231046   -0.664023   -0.736516
  H      2.021209    0.601020    0.145898

 Total Charge           Charge          ....    0
 Multiplicity           Mult            ....    1
 Number of Electrons    NEL             ....   30
 Basis Dimension        Dim             ....   24

ORBITAL ENERGIES
----------------

  NO   OCC          E(Eh)            E(eV)
   0   2.0000     -20.391473      -554.8802
   1   2.0000     -11.310418      -307.7721
   2   2.0000     -11.208092      -304.9877
   3   2.0000     -11.198466      -304.7257
   4   2.0000      -1.409298       -38.3489
   5   2.0000      -1.127051       -30.6686
   6   2.0000      -0.916976       -24.9522
   7   2.0000      -0.789699       -21.4888
   8   2.0000      -0.715415       -19.4674
   9   2.0000      -0.674710       -18.3598
  10   2.0000      -0.621460       -16.9108
  11   2.0000      -0.573049       -15.5935
  12   2.0000      -0.511243       -13.9116
  13   2.0000      -0.445423       -12.1206
  14   2.0000      -0.415228       -11.2989
  15   0.0000       0.175702         4.7811
  16   0.0000       0.225178         6.1274
  17   0.0000       0.558255        15.1909
  18   0.0000       0.661389        17.9973
  19   0.0000       0.755226        20.5507

MULLIKEN ATOMIC CHARGES
-----------------------
   0 C :    0.179045
   1 O :   -0.332690
   2 C :   -0.156595
   3 C :   -0.289549
   4 H :    0.142039
   5 H :    0.152456
   6 H :    0.150818
   7 H :    0.154476
Sum of atomic charges:   -0.0000000

LOEWDIN ATOMIC CHARGES
----------------------
   0 C :    0.162025
   1 O :   -0.239173
   2 C :   -0.100647
   3 C :   -0.179488
   4 H :    0.076875
   5 H :    0.092976
   6 H :    0.095055
   7 H :    0.092378

  Mayer bond orders larger than 0.100000
B(  0-C ,  1-O ) :   1.9611 B(  0-C ,  2-C ) :   0.9788 B(  0-C ,  4-H ) :   0.9186
B(  2-C ,  3-C ) :   2.0067 B(  2-C ,  5-H ) :   0.9475 B(  3-C ,  6-H ) :   0.9599
B(  3-C ,  7-H ) :   0.9625

-----------------------------------------------------------------------------
         ABSORPTION SPECTRUM VIA TRANSITION ELECTRIC DIPOLE MOMENTS
-----------------------------------------------------------------------------
State   Energy    Wavelength  fosc         T2        TX        TY        TZ
        (cm-1)      (nm)                 (au**2)    (au)      (au)      (au)
-----------------------------------------------------------------------------
   1   34348.3    291.1   0.000041515   0.00040   0.01612   0.00883  -0.00775

Dispersion correction           -0.026046590
FINAL SINGLE POINT ENERGY      -189.291508765279

DIPOLE MOMENT
-------------
                                X             Y             Z
Electronic contribution:     -2.66614      -1.35493       1.02111
Nuclear contribution   :      3.06047       1.93855      -1.60557
                        -----------------------------------------
Total Dipole Moment    :      0.39433       0.58362      -0.58446
                        -----------------------------------------
Magnitude (a.u.)       :      0.91526
Magnitude (Debye)      :      2.32640

Rotational constants in cm-1:     1.192594     0.161189     0.158133
Rotational constants in MHz : 35753.054542  4832.319520  4740.703646

                             ****ORCA TERMINATED NORMALLY****
TOTAL RUN TIME: 0 days 0 hours 0 minutes 16 seconds 66 msec
