                         Program Version 5.0.3 -  RELEASE  -
|  1> ! B3LYP cc-pVDZ
|  2> !TightSCF
|  3> %scf
|  4>  ConvForced true
|  5>  convergence tight
|  6>  MaxIter 500
|  7> end
|  8>
|  9> %tddft
| 10>  nroots 1
| 11> end
| 12>
| 13> # 	13288
| 14> * xyz 0 1
| 15> 		C   -1.210195  -0.325757   0.036958
| 16> 		O   -1.715426  -1.019630   0.822383
| 17> 		C    0.006563   0.473143   0.248328
| 18> 		C    1.181911   0.068307  -0.096141
| 19> 		H   -1.580551  -0.354433  -0.968787
| 20> 		H   -0.215242   1.493178   0.633980
| 21> 		H    1.399943  -0.914289  -0.705422
| 22> 		H    2.088920   0.568213  -0.020007
| 23> *
| 24>
| 25>                          ****END OF INPUT****

CARTESIAN COORDINATES (ANGSTROEM)
---------------------------------
  C     -1.210195   -0.325757    0.036958
  O     -1.715426   -1.019630    0.822383
  C      0.006563    0.473143    0.248328
  C      1.181911    0.068307   -0.096141
  H     -1.580551   -0.354433   -0.968787
  H     -0.215242    1.493178    0.633980
  H      1.399943   -0.914289   -0.705422
  H      2.088920    0.568213   -0.020007

 Total Charge           Charge          ....    0
 Multiplicity           Mult            ....    1
 Number of Electrons    NEL             ....   30
 Basis Dimension        Dim             ....   76

ORBITAL ENERGIES
----------------

  NO   OCC          E(Eh)            E(eV)
   0   2.0000     -19.141325      -520.8619
   1   2.0000     -10.270681      -279.4794
   2   2.0000     -10.202909      -277.6353
   3   2.0000     -10.201577      -277.5990
   4   2.0000      -1.077431       -29.3184
   5   2.0000      -0.803369       -21.8608
   6   2.0000      -0.653195       -17.7743
   7   2.0000      -0.562049       -15.2941
   8   2.0000      -0.492455       -13.4004
   9   2.0000      -0.482255       -13.1228
  10   2.0000      -0.448932       -12.2161
  11   2.0000      -0.394481       -10.7344
  12   2.0000      -0.369803       -10.0629
  13   2.0000      -0.292970        -7.9721
  14   2.0000      -0.252214        -6.8631
  15   0.0000      -0.023236        -0.6323
  16   0.0000       0.000574         0.0156
  17   0.0000       0.077151         2.0994
  18   0.0000       0.089120         2.4251
  19   0.0000       0.111161         3.0248

MULLIKEN ATOMIC CHARGES
-----------------------
   0 C :    0.173674
   1 O :   -0.144597
   2 C :   -0.082034
   3 C :    0.028269
   4 H :   -0.035383
   5 H :    0.020907
   6 H :    0.028654
   7 H :    0.010509
Sum of atomic charges:   -0.0000000

LOEWDIN ATOMIC CHARGES
----------------------
   0 C :   -0.048573
   1 O :    0.056483
   2 C :   -0.063482
   3 C :   -0.029593
   4 H :   -0.016311
   5 H :    0.043647
   6 H :    0.041617
   7 H :    0.016211

  Mayer bond orders larger than 0.100000
B(  0-C ,  1-O ) :   2.2860 B(  0-C ,  2-C ) :   0.9781 B(  0-C ,  4-H ) :   0.9204
B(  2-C ,  3-C ) :   2.0505 B(  2-C ,  5-H ) :   0.9287 B(  3-C ,  6-H ) :   0.9444
B(  3-C ,  7-H ) :   0.9467

-----------------------------------------------------------------------------
         ABSORPTION SPECTRUM VIA TRANSITION ELECTRIC DIPOLE MOMENTS
-----------------------------------------------------------------------------
State   Energy    Wavelength  fosc         T2        TX        TY        TZ
        (cm-1)      (nm)                 (au**2)    (au)      (au)      (au)
-----------------------------------------------------------------------------
   1   35217.7    283.9   0.000164713   0.00154   0.00687  -0.00292  -0.03852

FINAL SINGLE POINT ENERGY      -191.618833179769

DIPOLE MOMENT
-------------
                                X             Y             Z
Electronic contribution:     -2.79659      -1.02612       1.42356
Nuclear contribution   :      3.31018       1.59703      -1.94754
                        -----------------------------------------
Total Dipole Moment    :      0.51360       0.57091      -0.52399
                        -----------------------------------------
Magnitude (a.u.)       :      0.92967
Magnitude (Debye)      :      2.36303

Rotational constants in cm-1:     1.085264     0.169347     0.162493
Rotational constants in MHz : 32535.384180  5076.907317  4871.423554

                             ****ORCA TERMINATED NORMALLY****
TOTAL RUN TIME: 0 days 0 hours 2 minutes 49 seconds 875 msec
