                         Program Version 5.0.3 -  RELEASE  -
|  1> ! B3LYP cc-pVDZ
|  2> !TightSCF
|  3> %scf
|  4>  ConvForced true
|  5>  convergence tight
|  6>  MaxIter 500
|  7> end
|  8>
|  9> %tddft
| 10>  nroots 1
| 11> end
| 12>
| 13> # 	22515
| 14> * xyz 0 1
| 15> 		C   -0.620172  -0.472433  -0.084056
| 16> 		O   -0.587610  -1.643715   0.055211
| 17> 		C    0.639376   0.427005   0.053635
| 18> 		C    1.879329  -0.116879  -0.052839
| 19> 		H   -1.604439   0.195478  -0.281197
| 20> 		H    0.497488   1.641097   0.410663
| 21> 		H    2.047488  -1.200473  -0.029860
| 22> 		H    2.752196   0.659403   0.041821
| 23> *
| 24>
| 25>                          ****END OF INPUT****

CARTESIAN COORDINATES (ANGSTROEM)
---------------------------------
  C     -0.620172   -0.472433   -0.084056
  O     -0.587610   -1.643715    0.055211
  C      0.639376    0.427005    0.053635
  C      1.879329   -0.116879   -0.052839
  H     -1.604439    0.195478   -0.281197
  H      0.497488    1.641097    0.410663
  H      2.047488   -1.200473   -0.029860
  H      2.752196    0.659403    0.041821

 Total Charge           Charge          ....    0
 Multiplicity           Mult            ....    1
 Number of Electrons    NEL             ....   30
 Basis Dimension        Dim             ....   76

ORBITAL ENERGIES
----------------

  NO   OCC          E(Eh)            E(eV)
   0   2.0000     -19.151848      -521.1483
   1   2.0000     -10.290867      -280.0287
   2   2.0000     -10.222508      -278.1686
   3   2.0000     -10.219053      -278.0746
   4   2.0000      -1.072752       -29.1911
   5   2.0000      -0.776719       -21.1356
   6   2.0000      -0.635391       -17.2899
   7   2.0000      -0.524442       -14.2708
   8   2.0000      -0.490421       -13.3450
   9   2.0000      -0.454231       -12.3602
  10   2.0000      -0.419843       -11.4245
  11   2.0000      -0.402958       -10.9650
  12   2.0000      -0.376175       -10.2362
  13   2.0000      -0.283989        -7.7277
  14   2.0000      -0.258579        -7.0363
  15   0.0000      -0.062848        -1.7102
  16   0.0000       0.029433         0.8009
  17   0.0000       0.057057         1.5526
  18   0.0000       0.080380         2.1872
  19   0.0000       0.095557         2.6002

MULLIKEN ATOMIC CHARGES
-----------------------
   0 C :    0.163498
   1 O :   -0.149538
   2 C :   -0.186007
   3 C :    0.034612
   4 H :   -0.006942
   5 H :    0.043309
   6 H :    0.049398
   7 H :    0.051669
Sum of atomic charges:   -0.0000000

LOEWDIN ATOMIC CHARGES
----------------------
   0 C :   -0.052510
   1 O :    0.034592
   2 C :   -0.102383
   3 C :   -0.010524
   4 H :   -0.004404
   5 H :    0.051833
   6 H :    0.034320
   7 H :    0.049075

  Mayer bond orders larger than 0.100000
B(  0-C ,  1-O ) :   2.2415 B(  0-C ,  2-C ) :   0.9792 B(  0-C ,  4-H ) :   0.8858
B(  2-C ,  3-C ) :   1.9685 B(  2-C ,  5-H ) :   0.9265 B(  3-C ,  6-H ) :   0.9381
B(  3-C ,  7-H ) :   0.9396

-----------------------------------------------------------------------------
         ABSORPTION SPECTRUM VIA TRANSITION ELECTRIC DIPOLE MOMENTS
-----------------------------------------------------------------------------
State   Energy    Wavelength  fosc         T2        TX        TY        TZ
        (cm-1)      (nm)                 (au**2)    (au)      (au)      (au)
-----------------------------------------------------------------------------
   1   30585.4    327.0   0.000156357   0.00168   0.02411   0.01641   0.02885

FINAL SINGLE POINT ENERGY      -191.639610078360

DIPOLE MOMENT
-------------
                                X             Y             Z
Electronic contribution:     -1.97706      -2.26456      -0.12638
Nuclear contribution   :      2.30499       3.00156       0.13176
                        -----------------------------------------
Total Dipole Moment    :      0.32793       0.73700       0.00539
                        -----------------------------------------
Magnitude (a.u.)       :      0.80668
Magnitude (Debye)      :      2.05042

Rotational constants in cm-1:     0.729923     0.198977     0.157683
Rotational constants in MHz : 21882.531407  5965.191952  4727.206867

                             ****ORCA TERMINATED NORMALLY****
TOTAL RUN TIME: 0 days 0 hours 3 minutes 23 seconds 141 msec
