                         Program Version 5.0.3 -  RELEASE  -
|  1> ! B3LYP cc-pVDZ
|  2> !TightSCF
|  3> %scf
|  4>  ConvForced true
|  5>  convergence tight
|  6>  MaxIter 500
|  7> end
|  8>
|  9> %tddft
| 10>  nroots 1
| 11> end
| 12>
| 13> # 	19747
| 14> * xyz 0 1
| 15> 		C   -1.262624  -0.331532   0.032639
| 16> 		O   -1.719486  -1.141239   0.840394
| 17> 		C    0.046474   0.437358   0.293202
| 18> 		C    1.221037   0.078494  -0.126147
| 19> 		H   -1.701583  -0.266742  -1.051522
| 20> 		H   -0.120504   1.378479   0.803541
| 21> 		H    1.313178  -0.808362  -0.787195
| 22> 		H    2.170313   0.633236  -0.100925
| 23> *
| 24>
| 25>                          ****END OF INPUT****

CARTESIAN COORDINATES (ANGSTROEM)
---------------------------------
  C     -1.262624   -0.331532    0.032639
  O     -1.719486   -1.141239    0.840394
  C      0.046474    0.437358    0.293202
  C      1.221037    0.078494   -0.126147
  H     -1.701583   -0.266742   -1.051522
  H     -0.120504    1.378479    0.803541
  H      1.313178   -0.808362   -0.787195
  H      2.170313    0.633236   -0.100925

 Total Charge           Charge          ....    0
 Multiplicity           Mult            ....    1
 Number of Electrons    NEL             ....   30
 Basis Dimension        Dim             ....   76

ORBITAL ENERGIES
----------------

  NO   OCC          E(Eh)            E(eV)
   0   2.0000     -19.152151      -521.1565
   1   2.0000     -10.294345      -280.1234
   2   2.0000     -10.207565      -277.7620
   3   2.0000     -10.203338      -277.6469
   4   2.0000      -1.043969       -28.4079
   5   2.0000      -0.796703       -21.6794
   6   2.0000      -0.643242       -17.5035
   7   2.0000      -0.557021       -15.1573
   8   2.0000      -0.483129       -13.1466
   9   2.0000      -0.468134       -12.7386
  10   2.0000      -0.441900       -12.0247
  11   2.0000      -0.384377       -10.4594
  12   2.0000      -0.368064       -10.0155
  13   2.0000      -0.293024        -7.9736
  14   2.0000      -0.258460        -7.0330
  15   0.0000      -0.045150        -1.2286
  16   0.0000      -0.002560        -0.0697
  17   0.0000       0.082959         2.2574
  18   0.0000       0.086710         2.3595
  19   0.0000       0.094040         2.5590

MULLIKEN ATOMIC CHARGES
-----------------------
   0 C :    0.140923
   1 O :   -0.186100
   2 C :   -0.064666
   3 C :    0.028165
   4 H :    0.014895
   5 H :    0.013976
   6 H :    0.019472
   7 H :    0.033335
Sum of atomic charges:   -0.0000000

LOEWDIN ATOMIC CHARGES
----------------------
   0 C :   -0.000571
   1 O :   -0.005315
   2 C :   -0.060953
   3 C :   -0.037256
   4 H :    0.005712
   5 H :    0.033116
   6 H :    0.030772
   7 H :    0.034495

  Mayer bond orders larger than 0.100000
B(  0-C ,  1-O ) :   2.2088 B(  0-C ,  2-C ) :   0.9506 B(  0-C ,  4-H ) :   0.9024
B(  2-C ,  3-C ) :   2.0548 B(  2-C ,  5-H ) :   0.9374 B(  3-C ,  6-H ) :   0.9395
B(  3-C ,  7-H ) :   0.9461

-----------------------------------------------------------------------------
         ABSORPTION SPECTRUM VIA TRANSITION ELECTRIC DIPOLE MOMENTS
-----------------------------------------------------------------------------
State   Energy    Wavelength  fosc         T2        TX        TY        TZ
        (cm-1)      (nm)                 (au**2)    (au)      (au)      (au)
-----------------------------------------------------------------------------
   1   31516.6    317.3   0.000408395   0.00427   0.00871   0.01127   0.06374

FINAL SINGLE POINT ENERGY      -191.645529661290

DIPOLE MOMENT
-------------
                                X             Y             Z
Electronic contribution:     -2.77327      -1.23570       1.46836
Nuclear contribution   :      3.26545       1.87659      -2.04119
                        -----------------------------------------
Total Dipole Moment    :      0.49218       0.64089      -0.57283
                        -----------------------------------------
Magnitude (a.u.)       :      0.99052
Magnitude (Debye)      :      2.51770

Rotational constants in cm-1:     1.025224     0.157910     0.153395
Rotational constants in MHz : 30735.436336  4734.035675  4598.664050

                             ****ORCA TERMINATED NORMALLY****
TOTAL RUN TIME: 0 days 0 hours 3 minutes 22 seconds 85 msec
