                         Program Version 5.0.3 -  RELEASE  -
|  1> ! B3LYP cc-pVDZ
|  2> !TightSCF
|  3> %scf
|  4>  ConvForced true
|  5>  convergence tight
|  6>  MaxIter 500
|  7> end
|  8>
|  9> %tddft
| 10>  nroots 1
| 11> end
| 12>
| 13> # 	17855
| 14> * xyz 0 1
| 15> 		C   -1.209665  -0.318359  -0.024630
| 16> 		O   -2.092628  -0.548773  -0.833082
| 17> 		C    0.089897   0.489377  -0.292371
| 18> 		C    1.234614   0.058155   0.189304
| 19> 		H   -1.437426  -0.867997   0.896233
| 20> 		H    0.080757   1.185608  -0.956365
| 21> 		H    1.256931  -0.577830   0.821015
| 22> 		H    2.095434   0.516827   0.137458
| 23> *
| 24>
| 25>                          ****END OF INPUT****

CARTESIAN COORDINATES (ANGSTROEM)
---------------------------------
  C     -1.209665   -0.318359   -0.024630
  O     -2.092628   -0.548773   -0.833082
  C      0.089897    0.489377   -0.292371
  C      1.234614    0.058155    0.189304
  H     -1.437426   -0.867997    0.896233
  H      0.080757    1.185608   -0.956365
  H      1.256931   -0.577830    0.821015
  H      2.095434    0.516827    0.137458

 Total Charge           Charge          ....    0
 Multiplicity           Mult            ....    1
 Number of Electrons    NEL             ....   30
 Basis Dimension        Dim             ....   76

ORBITAL ENERGIES
----------------

  NO   OCC          E(Eh)            E(eV)
   0   2.0000     -19.137188      -520.7494
   1   2.0000     -10.278630      -279.6958
   2   2.0000     -10.202287      -277.6183
   3   2.0000     -10.181786      -277.0605
   4   2.0000      -1.041791       -28.3486
   5   2.0000      -0.813998       -22.1500
   6   2.0000      -0.659298       -17.9404
   7   2.0000      -0.591062       -16.0836
   8   2.0000      -0.499813       -13.6006
   9   2.0000      -0.481621       -13.1056
  10   2.0000      -0.426514       -11.6060
  11   2.0000      -0.407716       -11.0945
  12   2.0000      -0.386387       -10.5141
  13   2.0000      -0.297144        -8.0857
  14   2.0000      -0.249408        -6.7867
  15   0.0000      -0.056756        -1.5444
  16   0.0000       0.027238         0.7412
  17   0.0000       0.092353         2.5131
  18   0.0000       0.097403         2.6505
  19   0.0000       0.130547         3.5524

MULLIKEN ATOMIC CHARGES
-----------------------
   0 C :    0.158361
   1 O :   -0.198424
   2 C :   -0.040043
   3 C :    0.245379
   4 H :   -0.014298
   5 H :   -0.056051
   6 H :   -0.078095
   7 H :   -0.016828
Sum of atomic charges:   -0.0000000

LOEWDIN ATOMIC CHARGES
----------------------
   0 C :   -0.010110
   1 O :   -0.011264
   2 C :   -0.004876
   3 C :    0.052888
   4 H :   -0.002861
   5 H :   -0.005674
   6 H :   -0.029438
   7 H :    0.011334

  Mayer bond orders larger than 0.100000
B(  0-C ,  1-O ) :   2.1715 B(  0-C ,  2-C ) :   0.9902 B(  0-C ,  4-H ) :   0.9372
B(  2-C ,  3-C ) :   2.0002 B(  2-C ,  5-H ) :   0.9535 B(  3-C ,  6-H ) :   0.9282
B(  3-C ,  7-H ) :   0.9435

-----------------------------------------------------------------------------
         ABSORPTION SPECTRUM VIA TRANSITION ELECTRIC DIPOLE MOMENTS
-----------------------------------------------------------------------------
State   Energy    Wavelength  fosc         T2        TX        TY        TZ
        (cm-1)      (nm)                 (au**2)    (au)      (au)      (au)
-----------------------------------------------------------------------------
   1   28996.1    344.9   0.000618220   0.00702   0.07854  -0.01604   0.02436

FINAL SINGLE POINT ENERGY      -191.596992555033

DIPOLE MOMENT
-------------
                                X             Y             Z
Electronic contribution:     -2.95084      -0.37448      -1.20851
Nuclear contribution   :      3.86334       0.62027       1.76837
                        -----------------------------------------
Total Dipole Moment    :      0.91250       0.24579       0.55987
                        -----------------------------------------
Magnitude (a.u.)       :      1.09841
Magnitude (Debye)      :      2.79194

Rotational constants in cm-1:     1.463970     0.151347     0.142338
Rotational constants in MHz : 43888.718785  4537.274208  4267.198679

                             ****ORCA TERMINATED NORMALLY****
TOTAL RUN TIME: 0 days 0 hours 2 minutes 55 seconds 787 msec
