                         Program Version 5.0.3 -  RELEASE  -
|  1> ! HF-3c
|  2> !TightSCF
|  3> %scf
|  4>  ConvForced true
|  5>  convergence tight
|  6>  MaxIter 500
|  7> end
|  8>
|  9> %tddft
| 10>  nroots 1
| 11> end
| 12>
| 13> # 	16231
| 14> * xyz 0 1
| 15> 		C   -1.194896  -0.318142  -0.074185
| 16> 		O   -1.556099  -1.258182  -0.802670
| 17> 		C    0.010917   0.496911  -0.286589
| 18> 		C    1.223147   0.024308   0.167236
| 19> 		H   -1.687495  -0.105055   0.855693
| 20> 		H   -0.185589   1.546304  -0.521285
| 21> 		H    1.451986  -0.977395   0.547269
| 22> 		H    1.981160   0.627779   0.067950
| 23> *
| 24>
| 25>                          ****END OF INPUT****

CARTESIAN COORDINATES (ANGSTROEM)
---------------------------------
  C     -1.194896   -0.318142   -0.074185
  O     -1.556099   -1.258182   -0.802670
  C      0.010917    0.496911   -0.286589
  C      1.223147    0.024308    0.167236
  H     -1.687495   -0.105055    0.855693
  H     -0.185589    1.546304   -0.521285
  H      1.451986   -0.977395    0.547269
  H      1.981160    0.627779    0.067950

 Total Charge           Charge          ....    0
 Multiplicity           Mult            ....    1
 Number of Electrons    NEL             ....   30
 Basis Dimension        Dim             ....   24

ORBITAL ENERGIES
----------------

  NO   OCC          E(Eh)            E(eV)
   0   2.0000     -20.369193      -554.2739
   1   2.0000     -11.294122      -307.3287
   2   2.0000     -11.198023      -304.7137
   3   2.0000     -11.186067      -304.3884
   4   2.0000      -1.383105       -37.6362
   5   2.0000      -1.078270       -29.3412
   6   2.0000      -0.906637       -24.6709
   7   2.0000      -0.769742       -20.9457
   8   2.0000      -0.688391       -18.7321
   9   2.0000      -0.635829       -17.3018
  10   2.0000      -0.607316       -16.5259
  11   2.0000      -0.561365       -15.2755
  12   2.0000      -0.489261       -13.3135
  13   2.0000      -0.420144       -11.4327
  14   2.0000      -0.393331       -10.7031
  15   0.0000       0.168042         4.5727
  16   0.0000       0.199388         5.4256
  17   0.0000       0.574449        15.6316
  18   0.0000       0.613635        16.6979
  19   0.0000       0.718091        19.5403

MULLIKEN ATOMIC CHARGES
-----------------------
   0 C :    0.151936
   1 O :   -0.332378
   2 C :   -0.150050
   3 C :   -0.255052
   4 H :    0.142049
   5 H :    0.154043
   6 H :    0.151942
   7 H :    0.137510
Sum of atomic charges:   -0.0000000

LOEWDIN ATOMIC CHARGES
----------------------
   0 C :    0.146080
   1 O :   -0.247549
   2 C :   -0.103484
   3 C :   -0.154472
   4 H :    0.076496
   5 H :    0.101758
   6 H :    0.101219
   7 H :    0.079953

  Mayer bond orders larger than 0.100000
B(  0-C ,  1-O ) :   1.9414 B(  0-C ,  2-C ) :   1.0050 B(  0-C ,  4-H ) :   0.9236
B(  2-C ,  3-C ) :   1.9798 B(  2-C ,  5-H ) :   0.9507 B(  3-C ,  6-H ) :   0.9655
B(  3-C ,  7-H ) :   0.9700

-----------------------------------------------------------------------------
         ABSORPTION SPECTRUM VIA TRANSITION ELECTRIC DIPOLE MOMENTS
-----------------------------------------------------------------------------
State   Energy    Wavelength  fosc         T2        TX        TY        TZ
        (cm-1)      (nm)                 (au**2)    (au)      (au)      (au)
-----------------------------------------------------------------------------
   1   32546.5    307.3   0.000016313   0.00017  -0.00300   0.00674   0.01051

Dispersion correction           -0.025180471
FINAL SINGLE POINT ENERGY      -189.314383656803

DIPOLE MOMENT
-------------
                                X             Y             Z
Electronic contribution:     -2.57563      -1.38429      -1.20081
Nuclear contribution   :      2.97632       2.12039       1.83391
                        -----------------------------------------
Total Dipole Moment    :      0.40069       0.73610       0.63310
                        -----------------------------------------
Magnitude (a.u.)       :      1.05034
Magnitude (Debye)      :      2.66975

Rotational constants in cm-1:     0.895464     0.173272     0.158213
Rotational constants in MHz : 26845.331692  5194.568394  4743.100143

                             ****ORCA TERMINATED NORMALLY****
TOTAL RUN TIME: 0 days 0 hours 0 minutes 9 seconds 636 msec
