                         Program Version 5.0.3 -  RELEASE  -
|  1> ! HF-3c
|  2> !TightSCF
|  3> %scf
|  4>  ConvForced true
|  5>  convergence tight
|  6>  MaxIter 500
|  7> end
|  8>
|  9> %tddft
| 10>  nroots 1
| 11> end
| 12>
| 13> # 	30387
| 14> * xyz 0 1
| 15> 		C   -0.639448  -0.456960  -0.020697
| 16> 		O   -0.584507  -1.622615   0.008500
| 17> 		C    0.635119   0.405829  -0.010777
| 18> 		C    1.881276  -0.122806   0.003784
| 19> 		H   -1.533658   0.135997   0.127867
| 20> 		H    0.478259   1.441232   0.042958
| 21> 		H    2.161132  -1.210143  -0.052057
| 22> 		H    2.771304   0.732270   0.081568
| 23> *
| 24>
| 25>                          ****END OF INPUT****

CARTESIAN COORDINATES (ANGSTROEM)
---------------------------------
  C     -0.639448   -0.456960   -0.020697
  O     -0.584507   -1.622615    0.008500
  C      0.635119    0.405829   -0.010777
  C      1.881276   -0.122806    0.003784
  H     -1.533658    0.135997    0.127867
  H      0.478259    1.441232    0.042958
  H      2.161132   -1.210143   -0.052057
  H      2.771304    0.732270    0.081568

 Total Charge           Charge          ....    0
 Multiplicity           Mult            ....    1
 Number of Electrons    NEL             ....   30
 Basis Dimension        Dim             ....   24

ORBITAL ENERGIES
----------------

  NO   OCC          E(Eh)            E(eV)
   0   2.0000     -20.379946      -554.5665
   1   2.0000     -11.305124      -307.6281
   2   2.0000     -11.181917      -304.2754
   3   2.0000     -11.169761      -303.9446
   4   2.0000      -1.434536       -39.0357
   5   2.0000      -1.051568       -28.6146
   6   2.0000      -0.873910       -23.7803
   7   2.0000      -0.743869       -20.2417
   8   2.0000      -0.697784       -18.9877
   9   2.0000      -0.616511       -16.7761
  10   2.0000      -0.575803       -15.6684
  11   2.0000      -0.555313       -15.1108
  12   2.0000      -0.524447       -14.2709
  13   2.0000      -0.401248       -10.9185
  14   2.0000      -0.385004       -10.4765
  15   0.0000       0.147582         4.0159
  16   0.0000       0.307064         8.3556
  17   0.0000       0.490317        13.3422
  18   0.0000       0.570675        15.5288
  19   0.0000       0.636578        17.3222

MULLIKEN ATOMIC CHARGES
-----------------------
   0 C :    0.180662
   1 O :   -0.360759
   2 C :   -0.189197
   3 C :   -0.195936
   4 H :    0.135051
   5 H :    0.132020
   6 H :    0.156912
   7 H :    0.141248
Sum of atomic charges:   -0.0000000

LOEWDIN ATOMIC CHARGES
----------------------
   0 C :    0.151855
   1 O :   -0.249109
   2 C :   -0.150757
   3 C :   -0.109670
   4 H :    0.068606
   5 H :    0.080046
   6 H :    0.106203
   7 H :    0.102825

  Mayer bond orders larger than 0.100000
B(  0-C ,  1-O ) :   1.9281 B(  0-C ,  2-C ) :   0.9894 B(  0-C ,  4-H ) :   0.9206
B(  2-C ,  3-C ) :   1.9585 B(  2-C ,  5-H ) :   0.9651 B(  3-C ,  6-H ) :   0.9591
B(  3-C ,  7-H ) :   0.9591

-----------------------------------------------------------------------------
         ABSORPTION SPECTRUM VIA TRANSITION ELECTRIC DIPOLE MOMENTS
-----------------------------------------------------------------------------
State   Energy    Wavelength  fosc         T2        TX        TY        TZ
        (cm-1)      (nm)                 (au**2)    (au)      (au)      (au)
-----------------------------------------------------------------------------
   1   35023.3    285.5   0.000065505   0.00062   0.02474   0.00180   0.00066

Dispersion correction           -0.025132658
FINAL SINGLE POINT ENERGY      -189.312831649663

DIPOLE MOMENT
-------------
                                X             Y             Z
Electronic contribution:     -2.14766      -1.92483      -0.16024
Nuclear contribution   :      2.47955       2.81784       0.18772
                        -----------------------------------------
Total Dipole Moment    :      0.33189       0.89301       0.02748
                        -----------------------------------------
Magnitude (a.u.)       :      0.95309
Magnitude (Debye)      :      2.42256

Rotational constants in cm-1:     0.769220     0.201415     0.159728
Rotational constants in MHz : 23060.629363  6038.282468  4788.513528

                             ****ORCA TERMINATED NORMALLY****
TOTAL RUN TIME: 0 days 0 hours 0 minutes 11 seconds 938 msec
