                         Program Version 5.0.3 -  RELEASE  -
|  1> ! HF-3c
|  2> !TightSCF
|  3> %scf
|  4>  ConvForced true
|  5>  convergence tight
|  6>  MaxIter 500
|  7> end
|  8>
|  9> %tddft
| 10>  nroots 1
| 11> end
| 12>
| 13> # 	26802
| 14> * xyz 0 1
| 15> 		C   -0.583489  -0.426823   0.065093
| 16> 		O   -0.597860  -1.646447  -0.033650
| 17> 		C    0.631605   0.389585  -0.041768
| 18> 		C    1.862472  -0.082478   0.033005
| 19> 		H   -1.592063   0.159996   0.013090
| 20> 		H    0.373400   1.394244  -0.099685
| 21> 		H    1.992520  -1.239554   0.067360
| 22> 		H    2.886286   0.502885  -0.131187
| 23> *
| 24>
| 25>                          ****END OF INPUT****

CARTESIAN COORDINATES (ANGSTROEM)
---------------------------------
  C     -0.583489   -0.426823    0.065093
  O     -0.597860   -1.646447   -0.033650
  C      0.631605    0.389585   -0.041768
  C      1.862472   -0.082478    0.033005
  H     -1.592063    0.159996    0.013090
  H      0.373400    1.394244   -0.099685
  H      1.992520   -1.239554    0.067360
  H      2.886286    0.502885   -0.131187

 Total Charge           Charge          ....    0
 Multiplicity           Mult            ....    1
 Number of Electrons    NEL             ....   30
 Basis Dimension        Dim             ....   24

ORBITAL ENERGIES
----------------

  NO   OCC          E(Eh)            E(eV)
   0   2.0000     -20.352978      -553.8327
   1   2.0000     -11.285995      -307.1075
   2   2.0000     -11.193506      -304.5908
   3   2.0000     -11.184975      -304.3587
   4   2.0000      -1.386113       -37.7181
   5   2.0000      -1.075867       -29.2758
   6   2.0000      -0.882618       -24.0173
   7   2.0000      -0.730056       -19.8658
   8   2.0000      -0.691558       -18.8182
   9   2.0000      -0.612155       -16.6576
  10   2.0000      -0.578644       -15.7457
  11   2.0000      -0.532957       -14.5025
  12   2.0000      -0.509321       -13.8593
  13   2.0000      -0.406130       -11.0514
  14   2.0000      -0.392315       -10.6754
  15   0.0000       0.132941         3.6175
  16   0.0000       0.314158         8.5487
  17   0.0000       0.483432        13.1548
  18   0.0000       0.572986        15.5917
  19   0.0000       0.624428        16.9915

MULLIKEN ATOMIC CHARGES
-----------------------
   0 C :    0.168046
   1 O :   -0.357193
   2 C :   -0.204668
   3 C :   -0.187661
   4 H :    0.134199
   5 H :    0.138579
   6 H :    0.156407
   7 H :    0.152292
Sum of atomic charges:   -0.0000000

LOEWDIN ATOMIC CHARGES
----------------------
   0 C :    0.146266
   1 O :   -0.266461
   2 C :   -0.156911
   3 C :   -0.100186
   4 H :    0.076898
   5 H :    0.084054
   6 H :    0.108260
   7 H :    0.108081

  Mayer bond orders larger than 0.100000
B(  0-C ,  1-O ) :   1.8995 B(  0-C ,  2-C ) :   1.0308 B(  0-C ,  4-H ) :   0.9216
B(  2-C ,  3-C ) :   1.9411 B(  2-C ,  5-H ) :   0.9587 B(  3-C ,  6-H ) :   0.9540
B(  3-C ,  7-H ) :   0.9584

-----------------------------------------------------------------------------
         ABSORPTION SPECTRUM VIA TRANSITION ELECTRIC DIPOLE MOMENTS
-----------------------------------------------------------------------------
State   Energy    Wavelength  fosc         T2        TX        TY        TZ
        (cm-1)      (nm)                 (au**2)    (au)      (au)      (au)
-----------------------------------------------------------------------------
   1   31583.0    316.6   0.000129132   0.00135   0.03507  -0.00407   0.00998

Dispersion correction           -0.025445359
FINAL SINGLE POINT ENERGY      -189.330842769859

DIPOLE MOMENT
-------------
                                X             Y             Z
Electronic contribution:     -1.85983      -1.65261       0.15990
Nuclear contribution   :      2.27776       2.55407      -0.14072
                        -----------------------------------------
Total Dipole Moment    :      0.41793       0.90146       0.01918
                        -----------------------------------------
Magnitude (a.u.)       :      0.99381
Magnitude (Debye)      :      2.52607

Rotational constants in cm-1:     0.776483     0.203078     0.161393
Rotational constants in MHz : 23278.383093  6088.119384  4838.444827

                             ****ORCA TERMINATED NORMALLY****
TOTAL RUN TIME: 0 days 0 hours 0 minutes 10 seconds 305 msec
