                         Program Version 5.0.3 -  RELEASE  -
|  1> ! B3LYP cc-pVDZ
|  2> !TightSCF
|  3> %scf
|  4>  ConvForced true
|  5>  convergence tight
|  6>  MaxIter 500
|  7> end
|  8>
|  9> %tddft
| 10>  nroots 1
| 11> end
| 12>
| 13> # 	10539
| 14> * xyz 0 1
| 15> 		C   -1.216556  -0.362641  -0.044565
| 16> 		O   -2.239386  -0.399482  -0.565505
| 17> 		C   -0.018362   0.407871  -0.395574
| 18> 		C    1.132613   0.290847   0.345613
| 19> 		H   -0.869629  -1.174559   0.570905
| 20> 		H   -0.047511   1.232788  -1.240106
| 21> 		H    1.215403  -0.646087   1.241297
| 22> 		H    2.009879   0.669870   0.089644
| 23> *
| 24>
| 25>                          ****END OF INPUT****

CARTESIAN COORDINATES (ANGSTROEM)
---------------------------------
  C     -1.216556   -0.362641   -0.044565
  O     -2.239386   -0.399482   -0.565505
  C     -0.018362    0.407871   -0.395574
  C      1.132613    0.290847    0.345613
  H     -0.869629   -1.174559    0.570905
  H     -0.047511    1.232788   -1.240106
  H      1.215403   -0.646087    1.241297
  H      2.009879    0.669870    0.089644

 Total Charge           Charge          ....    0
 Multiplicity           Mult            ....    1
 Number of Electrons    NEL             ....   30
 Basis Dimension        Dim             ....   76

ORBITAL ENERGIES
----------------

  NO   OCC          E(Eh)            E(eV)
   0   2.0000     -19.139977      -520.8252
   1   2.0000     -10.267296      -279.3873
   2   2.0000     -10.230995      -278.3995
   3   2.0000     -10.218657      -278.0638
   4   2.0000      -1.083442       -29.4819
   5   2.0000      -0.796453       -21.6726
   6   2.0000      -0.654199       -17.8017
   7   2.0000      -0.561165       -15.2701
   8   2.0000      -0.485188       -13.2026
   9   2.0000      -0.462799       -12.5934
  10   2.0000      -0.435015       -11.8374
  11   2.0000      -0.414953       -11.2914
  12   2.0000      -0.370847       -10.0912
  13   2.0000      -0.293261        -7.9800
  14   2.0000      -0.254278        -6.9192
  15   0.0000      -0.067945        -1.8489
  16   0.0000       0.041943         1.1413
  17   0.0000       0.055632         1.5138
  18   0.0000       0.078330         2.1315
  19   0.0000       0.129133         3.5139

MULLIKEN ATOMIC CHARGES
-----------------------
   0 C :    0.211406
   1 O :   -0.138280
   2 C :   -0.138542
   3 C :    0.028824
   4 H :   -0.056243
   5 H :    0.029020
   6 H :    0.056142
   7 H :    0.007673
Sum of atomic charges:    0.0000000

LOEWDIN ATOMIC CHARGES
----------------------
   0 C :   -0.096475
   1 O :    0.068794
   2 C :   -0.063527
   3 C :    0.012999
   4 H :   -0.018148
   5 H :    0.045563
   6 H :    0.054940
   7 H :   -0.004146

  Mayer bond orders larger than 0.100000
B(  0-C ,  1-O ) :   2.2501 B(  0-C ,  2-C ) :   1.0553 B(  0-C ,  4-H ) :   0.9057
B(  2-C ,  3-C ) :   1.9176 B(  2-C ,  5-H ) :   0.9338 B(  3-C ,  6-H ) :   0.9327
B(  3-C ,  7-H ) :   0.9440

-----------------------------------------------------------------------------
         ABSORPTION SPECTRUM VIA TRANSITION ELECTRIC DIPOLE MOMENTS
-----------------------------------------------------------------------------
State   Energy    Wavelength  fosc         T2        TX        TY        TZ
        (cm-1)      (nm)                 (au**2)    (au)      (au)      (au)
-----------------------------------------------------------------------------
   1   28836.8    346.8   0.000076723   0.00088   0.00327   0.02941   0.00074

FINAL SINGLE POINT ENERGY      -191.631481905885

DIPOLE MOMENT
-------------
                                X             Y             Z
Electronic contribution:     -3.45209      -0.06935      -0.99486
Nuclear contribution   :      4.46619       0.22371       1.25193
                        -----------------------------------------
Total Dipole Moment    :      1.01410       0.15436       0.25707
                        -----------------------------------------
Magnitude (a.u.)       :      1.05750
Magnitude (Debye)      :      2.68795

Rotational constants in cm-1:     1.542962     0.155298     0.141366
Rotational constants in MHz : 46256.840766  4655.722213  4238.058732

                             ****ORCA TERMINATED NORMALLY****
TOTAL RUN TIME: 0 days 0 hours 2 minutes 34 seconds 877 msec
