                         Program Version 5.0.3 -  RELEASE  -
|  1> ! B3LYP cc-pVDZ
|  2> !TightSCF
|  3> %scf
|  4>  ConvForced true
|  5>  convergence tight
|  6>  MaxIter 500
|  7> end
|  8>
|  9> %tddft
| 10>  nroots 1
| 11> end
| 12>
| 13> # 	1643
| 14> * xyz 0 1
| 15> 		C   -1.166695  -0.270912  -0.064827
| 16> 		O   -1.216996  -1.432952  -0.140556
| 17> 		C    0.024345   0.501756   0.040266
| 18> 		C    1.247277   0.030570   0.051392
| 19> 		H   -2.152369   0.180272  -0.051049
| 20> 		H    0.010032   1.554061   0.006661
| 21> 		H    1.072122  -1.147658   0.037398
| 22> 		H    2.150811   0.605861   0.091704
| 23> *
| 24>
| 25>                          ****END OF INPUT****

CARTESIAN COORDINATES (ANGSTROEM)
---------------------------------
  C     -1.166695   -0.270912   -0.064827
  O     -1.216996   -1.432952   -0.140556
  C      0.024345    0.501756    0.040266
  C      1.247277    0.030570    0.051392
  H     -2.152369    0.180272   -0.051049
  H      0.010032    1.554061    0.006661
  H      1.072122   -1.147658    0.037398
  H      2.150811    0.605861    0.091704

 Total Charge           Charge          ....    0
 Multiplicity           Mult            ....    1
 Number of Electrons    NEL             ....   30
 Basis Dimension        Dim             ....   76

ORBITAL ENERGIES
----------------

  NO   OCC          E(Eh)            E(eV)
   0   2.0000     -19.134049      -520.6639
   1   2.0000     -10.264492      -279.3110
   2   2.0000     -10.213018      -277.9103
   3   2.0000     -10.189900      -277.2813
   4   2.0000      -1.074177       -29.2299
   5   2.0000      -0.807164       -21.9641
   6   2.0000      -0.657742       -17.8981
   7   2.0000      -0.541902       -14.7459
   8   2.0000      -0.525920       -14.3110
   9   2.0000      -0.451557       -12.2875
  10   2.0000      -0.439518       -11.9599
  11   2.0000      -0.416546       -11.3348
  12   2.0000      -0.352617        -9.5952
  13   2.0000      -0.293436        -7.9848
  14   2.0000      -0.255376        -6.9491
  15   0.0000      -0.064591        -1.7576
  16   0.0000       0.069450         1.8898
  17   0.0000       0.082360         2.2411
  18   0.0000       0.091487         2.4895
  19   0.0000       0.128010         3.4833

MULLIKEN ATOMIC CHARGES
-----------------------
   0 C :    0.190759
   1 O :   -0.159893
   2 C :   -0.088353
   3 C :    0.061595
   4 H :   -0.041180
   5 H :   -0.038837
   6 H :    0.047799
   7 H :    0.028110
Sum of atomic charges:    0.0000000

LOEWDIN ATOMIC CHARGES
----------------------
   0 C :   -0.069905
   1 O :    0.041187
   2 C :   -0.090459
   3 C :    0.025069
   4 H :   -0.007348
   5 H :    0.018266
   6 H :    0.053555
   7 H :    0.029636

  Mayer bond orders larger than 0.100000
B(  0-C ,  1-O ) :   2.2095 B(  0-C ,  2-C ) :   1.0519 B(  0-C ,  4-H ) :   0.9350
B(  2-C ,  3-C ) :   1.9724 B(  2-C ,  5-H ) :   0.9510 B(  3-C ,  6-H ) :   0.9048
B(  3-C ,  7-H ) :   0.9361

-----------------------------------------------------------------------------
         ABSORPTION SPECTRUM VIA TRANSITION ELECTRIC DIPOLE MOMENTS
-----------------------------------------------------------------------------
State   Energy    Wavelength  fosc         T2        TX        TY        TZ
        (cm-1)      (nm)                 (au**2)    (au)      (au)      (au)
-----------------------------------------------------------------------------
   1   29000.8    344.8   0.000253950   0.00288   0.02466   0.00731  -0.04713

FINAL SINGLE POINT ENERGY      -191.647303314280

DIPOLE MOMENT
-------------
                                X             Y             Z
Electronic contribution:     -1.75419      -1.48770      -0.14860
Nuclear contribution   :      2.14633       2.34645       0.20112
                        -----------------------------------------
Total Dipole Moment    :      0.39215       0.85875       0.05252
                        -----------------------------------------
Magnitude (a.u.)       :      0.94551
Magnitude (Debye)      :      2.40330

Rotational constants in cm-1:     0.873129     0.211115     0.170058
Rotational constants in MHz : 26175.744249  6329.074283  5098.211574

                             ****ORCA TERMINATED NORMALLY****
TOTAL RUN TIME: 0 days 0 hours 3 minutes 21 seconds 236 msec
