                         Program Version 5.0.3 -  RELEASE  -
|  1> ! B3LYP cc-pVDZ
|  2> !TightSCF
|  3> %scf
|  4>  ConvForced true
|  5>  convergence tight
|  6>  MaxIter 500
|  7> end
|  8>
|  9> %tddft
| 10>  nroots 1
| 11> end
| 12>
| 13> # 	3355
| 14> * xyz 0 1
| 15> 		C   -1.244409  -0.387685  -0.063032
| 16> 		O   -1.918593  -0.790074  -0.940584
| 17> 		C    0.067152   0.388619  -0.306180
| 18> 		C    1.207728   0.070933   0.223324
| 19> 		H   -1.434235  -0.482839   1.206255
| 20> 		H    0.017964   1.249360  -1.096472
| 21> 		H    1.260736  -0.687807   0.917562
| 22> 		H    2.017040   0.614712   0.010836
| 23> *
| 24>
| 25>                          ****END OF INPUT****

CARTESIAN COORDINATES (ANGSTROEM)
---------------------------------
  C     -1.244409   -0.387685   -0.063032
  O     -1.918593   -0.790074   -0.940584
  C      0.067152    0.388619   -0.306180
  C      1.207728    0.070933    0.223324
  H     -1.434235   -0.482839    1.206255
  H      0.017964    1.249360   -1.096472
  H      1.260736   -0.687807    0.917562
  H      2.017040    0.614712    0.010836

 Total Charge           Charge          ....    0
 Multiplicity           Mult            ....    1
 Number of Electrons    NEL             ....   30
 Basis Dimension        Dim             ....   76

ORBITAL ENERGIES
----------------

  NO   OCC          E(Eh)            E(eV)
   0   2.0000     -19.158518      -521.3298
   1   2.0000     -10.298064      -280.2246
   2   2.0000     -10.208844      -277.7968
   3   2.0000     -10.188549      -277.2445
   4   2.0000      -1.078685       -29.3525
   5   2.0000      -0.802565       -21.8389
   6   2.0000      -0.641230       -17.4487
   7   2.0000      -0.548304       -14.9201
   8   2.0000      -0.487741       -13.2721
   9   2.0000      -0.469553       -12.7772
  10   2.0000      -0.445721       -12.1287
  11   2.0000      -0.410530       -11.1711
  12   2.0000      -0.380910       -10.3651
  13   2.0000      -0.295179        -8.0322
  14   2.0000      -0.259809        -7.0698
  15   0.0000      -0.047562        -1.2942
  16   0.0000       0.022914         0.6235
  17   0.0000       0.065380         1.7791
  18   0.0000       0.084802         2.3076
  19   0.0000       0.109873         2.9898

MULLIKEN ATOMIC CHARGES
-----------------------
   0 C :    0.128580
   1 O :   -0.135541
   2 C :   -0.159523
   3 C :    0.165752
   4 H :   -0.009915
   5 H :    0.028301
   6 H :   -0.010407
   7 H :   -0.007245
Sum of atomic charges:   -0.0000000

LOEWDIN ATOMIC CHARGES
----------------------
   0 C :   -0.049234
   1 O :    0.049803
   2 C :   -0.063530
   3 C :   -0.002807
   4 H :   -0.007865
   5 H :    0.046559
   6 H :    0.015636
   7 H :    0.011439

  Mayer bond orders larger than 0.100000
B(  0-C ,  1-O ) :   2.2520 B(  0-C ,  2-C ) :   0.9661 B(  0-C ,  4-H ) :   0.8576
B(  2-C ,  3-C ) :   2.0417 B(  2-C ,  5-H ) :   0.9304 B(  3-C ,  6-H ) :   0.9378
B(  3-C ,  7-H ) :   0.9279

-----------------------------------------------------------------------------
         ABSORPTION SPECTRUM VIA TRANSITION ELECTRIC DIPOLE MOMENTS
-----------------------------------------------------------------------------
State   Energy    Wavelength  fosc         T2        TX        TY        TZ
        (cm-1)      (nm)                 (au**2)    (au)      (au)      (au)
-----------------------------------------------------------------------------
   1   33254.6    300.7   0.000528328   0.00523   0.07228   0.00020  -0.00240

FINAL SINGLE POINT ENERGY      -191.623804008826

DIPOLE MOMENT
-------------
                                X             Y             Z
Electronic contribution:     -2.94180      -1.01940      -1.57505
Nuclear contribution   :      3.63010       1.38333       2.01877
                        -----------------------------------------
Total Dipole Moment    :      0.68830       0.36393       0.44372
                        -----------------------------------------
Magnitude (a.u.)       :      0.89615
Magnitude (Debye)      :      2.27783

Rotational constants in cm-1:     1.237368     0.156089     0.148496
Rotational constants in MHz : 37095.359722  4679.438721  4451.807521

                             ****ORCA TERMINATED NORMALLY****
TOTAL RUN TIME: 0 days 0 hours 3 minutes 12 seconds 741 msec
