                         Program Version 5.0.3 -  RELEASE  -
|  1> ! HF-3c
|  2> !TightSCF
|  3> %scf
|  4>  ConvForced true
|  5>  convergence tight
|  6>  MaxIter 500
|  7> end
|  8>
|  9> %tddft
| 10>  nroots 1
| 11> end
| 12>
| 13> # 	29481
| 14> * xyz 0 1
| 15> 		C   -0.607974  -0.451973  -0.006255
| 16> 		O   -0.597518  -1.672131   0.013569
| 17> 		C    0.655654   0.446590  -0.021538
| 18> 		C    1.832518  -0.096230   0.009841
| 19> 		H   -1.469839   0.045216   0.071724
| 20> 		H    0.780132   1.592384  -0.038956
| 21> 		H    2.057139  -1.187646  -0.328702
| 22> 		H    2.743206   0.541707   0.313532
| 23> *
| 24>
| 25>                          ****END OF INPUT****

CARTESIAN COORDINATES (ANGSTROEM)
---------------------------------
  C     -0.607974   -0.451973   -0.006255
  O     -0.597518   -1.672131    0.013569
  C      0.655654    0.446590   -0.021538
  C      1.832518   -0.096230    0.009841
  H     -1.469839    0.045216    0.071724
  H      0.780132    1.592384   -0.038956
  H      2.057139   -1.187646   -0.328702
  H      2.743206    0.541707    0.313532

 Total Charge           Charge          ....    0
 Multiplicity           Mult            ....    1
 Number of Electrons    NEL             ....   30
 Basis Dimension        Dim             ....   24

ORBITAL ENERGIES
----------------

  NO   OCC          E(Eh)            E(eV)
   0   2.0000     -20.372962      -554.3765
   1   2.0000     -11.303636      -307.5876
   2   2.0000     -11.178633      -304.1861
   3   2.0000     -11.176380      -304.1248
   4   2.0000      -1.399470       -38.0815
   5   2.0000      -1.073101       -29.2006
   6   2.0000      -0.886379       -24.1196
   7   2.0000      -0.741994       -20.1907
   8   2.0000      -0.696165       -18.9436
   9   2.0000      -0.606204       -16.4957
  10   2.0000      -0.580935       -15.8080
  11   2.0000      -0.540547       -14.7090
  12   2.0000      -0.507921       -13.8212
  13   2.0000      -0.422142       -11.4871
  14   2.0000      -0.385946       -10.5021
  15   0.0000       0.140784         3.8309
  16   0.0000       0.295612         8.0440
  17   0.0000       0.494872        13.4661
  18   0.0000       0.550513        14.9802
  19   0.0000       0.591199        16.0873

MULLIKEN ATOMIC CHARGES
-----------------------
   0 C :    0.158694
   1 O :   -0.344215
   2 C :   -0.190070
   3 C :   -0.204432
   4 H :    0.139157
   5 H :    0.152568
   6 H :    0.152100
   7 H :    0.136198
Sum of atomic charges:    0.0000000

LOEWDIN ATOMIC CHARGES
----------------------
   0 C :    0.153588
   1 O :   -0.252068
   2 C :   -0.153010
   3 C :   -0.116767
   4 H :    0.065980
   5 H :    0.106193
   6 H :    0.104409
   7 H :    0.091675

  Mayer bond orders larger than 0.100000
B(  0-C ,  1-O ) :   1.9250 B(  0-C ,  2-C ) :   0.9952 B(  0-C ,  4-H ) :   0.9369
B(  2-C ,  3-C ) :   1.9652 B(  2-C ,  5-H ) :   0.9521 B(  3-C ,  6-H ) :   0.9562
B(  3-C ,  7-H ) :   0.9620

-----------------------------------------------------------------------------
         ABSORPTION SPECTRUM VIA TRANSITION ELECTRIC DIPOLE MOMENTS
-----------------------------------------------------------------------------
State   Energy    Wavelength  fosc         T2        TX        TY        TZ
        (cm-1)      (nm)                 (au**2)    (au)      (au)      (au)
-----------------------------------------------------------------------------
   1   33091.2    302.2   0.000048953   0.00049  -0.02002  -0.00802   0.00468

Dispersion correction           -0.025176337
FINAL SINGLE POINT ENERGY      -189.304375766986

DIPOLE MOMENT
-------------
                                X             Y             Z
Electronic contribution:     -2.31152      -1.77883      -0.03496
Nuclear contribution   :      2.69405       2.71823       0.01542
                        -----------------------------------------
Total Dipole Moment    :      0.38254       0.93939      -0.01954
                        -----------------------------------------
Magnitude (a.u.)       :      1.01448
Magnitude (Debye)      :      2.57861

Rotational constants in cm-1:     0.777066     0.198833     0.158993
Rotational constants in MHz : 23295.861657  5960.857197  4766.494550

                             ****ORCA TERMINATED NORMALLY****
TOTAL RUN TIME: 0 days 0 hours 0 minutes 13 seconds 734 msec
