                         Program Version 5.0.3 -  RELEASE  -
|  1> ! B3LYP cc-pVDZ
|  2> !TightSCF
|  3> %scf
|  4>  ConvForced true
|  5>  convergence tight
|  6>  MaxIter 500
|  7> end
|  8>
|  9> %tddft
| 10>  nroots 1
| 11> end
| 12>
| 13> # 	26347
| 14> * xyz 0 1
| 15> 		C   -0.512652  -0.411268  -0.018083
| 16> 		O   -0.605935  -1.677010   0.008110
| 17> 		C    0.638197   0.443231   0.043730
| 18> 		C    1.811473  -0.129617  -0.027262
| 19> 		H   -1.454192   0.269140  -0.106069
| 20> 		H    0.331661   1.431867  -0.048014
| 21> 		H    1.895734  -1.131445   0.046992
| 22> 		H    2.722710   0.480087  -0.003506
| 23> *
| 24>
| 25>                          ****END OF INPUT****

CARTESIAN COORDINATES (ANGSTROEM)
---------------------------------
  C     -0.512652   -0.411268   -0.018083
  O     -0.605935   -1.677010    0.008110
  C      0.638197    0.443231    0.043730
  C      1.811473   -0.129617   -0.027262
  H     -1.454192    0.269140   -0.106069
  H      0.331661    1.431867   -0.048014
  H      1.895734   -1.131445    0.046992
  H      2.722710    0.480087   -0.003506

 Total Charge           Charge          ....    0
 Multiplicity           Mult            ....    1
 Number of Electrons    NEL             ....   30
 Basis Dimension        Dim             ....   76

ORBITAL ENERGIES
----------------

  NO   OCC          E(Eh)            E(eV)
   0   2.0000     -19.138304      -520.7797
   1   2.0000     -10.275602      -279.6133
   2   2.0000     -10.212047      -277.8839
   3   2.0000     -10.201207      -277.5890
   4   2.0000      -1.012116       -27.5411
   5   2.0000      -0.819531       -22.3006
   6   2.0000      -0.676931       -18.4202
   7   2.0000      -0.546061       -14.8591
   8   2.0000      -0.510595       -13.8940
   9   2.0000      -0.458898       -12.4873
  10   2.0000      -0.410150       -11.1607
  11   2.0000      -0.390935       -10.6379
  12   2.0000      -0.386723       -10.5233
  13   2.0000      -0.295024        -8.0280
  14   2.0000      -0.253321        -6.8932
  15   0.0000      -0.079876        -2.1735
  16   0.0000       0.059801         1.6273
  17   0.0000       0.061593         1.6760
  18   0.0000       0.092698         2.5224
  19   0.0000       0.136163         3.7052

MULLIKEN ATOMIC CHARGES
-----------------------
   0 C :    0.156529
   1 O :   -0.237636
   2 C :   -0.070276
   3 C :    0.163596
   4 H :   -0.020689
   5 H :   -0.030432
   6 H :    0.007993
   7 H :    0.030914
Sum of atomic charges:    0.0000000

LOEWDIN ATOMIC CHARGES
----------------------
   0 C :   -0.007740
   1 O :   -0.062890
   2 C :   -0.072420
   3 C :    0.069097
   4 H :   -0.001714
   5 H :    0.023403
   6 H :    0.014931
   7 H :    0.037333

  Mayer bond orders larger than 0.100000
B(  0-C ,  1-O ) :   2.1245 B(  0-C ,  2-C ) :   1.1157 B(  0-C ,  4-H ) :   0.9068
B(  2-C ,  3-C ) :   1.9409 B(  2-C ,  5-H ) :   0.9534 B(  3-C ,  6-H ) :   0.9234
B(  3-C ,  7-H ) :   0.9434

-----------------------------------------------------------------------------
         ABSORPTION SPECTRUM VIA TRANSITION ELECTRIC DIPOLE MOMENTS
-----------------------------------------------------------------------------
State   Energy    Wavelength  fosc         T2        TX        TY        TZ
        (cm-1)      (nm)                 (au**2)    (au)      (au)      (au)
-----------------------------------------------------------------------------
   1   25222.6    396.5   0.000244894   0.00320   0.03974   0.00128  -0.04020

FINAL SINGLE POINT ENERGY      -191.671838821096

DIPOLE MOMENT
-------------
                                X             Y             Z
Electronic contribution:     -1.52665      -1.77416       0.08050
Nuclear contribution   :      2.12204       2.77068      -0.10356
                        -----------------------------------------
Total Dipole Moment    :      0.59539       0.99652      -0.02306
                        -----------------------------------------
Magnitude (a.u.)       :      1.16106
Magnitude (Debye)      :      2.95119

Rotational constants in cm-1:     0.762834     0.211334     0.165659
Rotational constants in MHz : 22869.190095  6335.637061  4966.342683

                             ****ORCA TERMINATED NORMALLY****
TOTAL RUN TIME: 0 days 0 hours 3 minutes 23 seconds 420 msec
