                         Program Version 5.0.3 -  RELEASE  -
|  1> ! HF-3c
|  2> !TightSCF
|  3> %scf
|  4>  ConvForced true
|  5>  convergence tight
|  6>  MaxIter 500
|  7> end
|  8>
|  9> %tddft
| 10>  nroots 1
| 11> end
| 12>
| 13> # 	6304
| 14> * xyz 0 1
| 15> 		C   -1.232388  -0.328387  -0.044268
| 16> 		O   -1.312324  -1.371799   0.439302
| 17> 		C    0.072481   0.527118   0.169768
| 18> 		C    1.235550  -0.012629  -0.058628
| 19> 		H   -1.988303  -0.025580  -0.746637
| 20> 		H   -0.256989   1.456622   0.493377
| 21> 		H    1.385644  -0.988793  -0.426877
| 22> 		H    2.142751   0.753916   0.102483
| 23> *
| 24>
| 25>                          ****END OF INPUT****

CARTESIAN COORDINATES (ANGSTROEM)
---------------------------------
  C     -1.232388   -0.328387   -0.044268
  O     -1.312324   -1.371799    0.439302
  C      0.072481    0.527118    0.169768
  C      1.235550   -0.012629   -0.058628
  H     -1.988303   -0.025580   -0.746637
  H     -0.256989    1.456622    0.493377
  H      1.385644   -0.988793   -0.426877
  H      2.142751    0.753916    0.102483

 Total Charge           Charge          ....    0
 Multiplicity           Mult            ....    1
 Number of Electrons    NEL             ....   30
 Basis Dimension        Dim             ....   24

ORBITAL ENERGIES
----------------

  NO   OCC          E(Eh)            E(eV)
   0   2.0000     -20.383781      -554.6709
   1   2.0000     -11.302814      -307.5652
   2   2.0000     -11.185647      -304.3769
   3   2.0000     -11.184699      -304.3511
   4   2.0000      -1.448410       -39.4132
   5   2.0000      -1.073294       -29.2058
   6   2.0000      -0.871278       -23.7087
   7   2.0000      -0.769550       -20.9405
   8   2.0000      -0.700339       -19.0572
   9   2.0000      -0.626296       -17.0424
  10   2.0000      -0.615728       -16.7548
  11   2.0000      -0.542610       -14.7652
  12   2.0000      -0.539519       -14.6810
  13   2.0000      -0.411740       -11.2040
  14   2.0000      -0.391394       -10.6504
  15   0.0000       0.187423         5.1001
  16   0.0000       0.265947         7.2368
  17   0.0000       0.481312        13.0972
  18   0.0000       0.583984        15.8910
  19   0.0000       0.653761        17.7897

MULLIKEN ATOMIC CHARGES
-----------------------
   0 C :    0.178192
   1 O :   -0.358780
   2 C :   -0.166502
   3 C :   -0.235596
   4 H :    0.137024
   5 H :    0.143681
   6 H :    0.152997
   7 H :    0.148983
Sum of atomic charges:   -0.0000000

LOEWDIN ATOMIC CHARGES
----------------------
   0 C :    0.142429
   1 O :   -0.241560
   2 C :   -0.118996
   3 C :   -0.145608
   4 H :    0.070099
   5 H :    0.088432
   6 H :    0.098182
   7 H :    0.107022

  Mayer bond orders larger than 0.100000
B(  0-C ,  1-O ) :   1.9511 B(  0-C ,  2-C ) :   0.9529 B(  0-C ,  4-H ) :   0.9209
B(  2-C ,  3-C ) :   2.0064 B(  2-C ,  5-H ) :   0.9599 B(  3-C ,  6-H ) :   0.9611
B(  3-C ,  7-H ) :   0.9542

-----------------------------------------------------------------------------
         ABSORPTION SPECTRUM VIA TRANSITION ELECTRIC DIPOLE MOMENTS
-----------------------------------------------------------------------------
State   Energy    Wavelength  fosc         T2        TX        TY        TZ
        (cm-1)      (nm)                 (au**2)    (au)      (au)      (au)
-----------------------------------------------------------------------------
   1   36894.8    271.0   0.000468181   0.00418  -0.06400  -0.00872  -0.00231

Dispersion correction           -0.025399919
FINAL SINGLE POINT ENERGY      -189.294120872548

DIPOLE MOMENT
-------------
                                X             Y             Z
Electronic contribution:     -2.17942      -1.53900       0.62017
Nuclear contribution   :      2.44732       2.34555      -1.02260
                        -----------------------------------------
Total Dipole Moment    :      0.26790       0.80656      -0.40242
                        -----------------------------------------
Magnitude (a.u.)       :      0.94035
Magnitude (Debye)      :      2.39017

Rotational constants in cm-1:     0.832194     0.193996     0.165837
Rotational constants in MHz : 24948.538182  5815.861218  4971.657562

                             ****ORCA TERMINATED NORMALLY****
TOTAL RUN TIME: 0 days 0 hours 0 minutes 15 seconds 802 msec
