                         Program Version 5.0.3 -  RELEASE  -
|  1> ! B3LYP cc-pVDZ
|  2> !TightSCF
|  3> %scf
|  4>  ConvForced true
|  5>  convergence tight
|  6>  MaxIter 500
|  7> end
|  8>
|  9> %tddft
| 10>  nroots 1
| 11> end
| 12>
| 13> # 	2058
| 14> * xyz 0 1
| 15> 		C   -1.187537  -0.311933  -0.040068
| 16> 		O   -2.164202  -0.420555  -0.828609
| 17> 		C    0.086314   0.373441  -0.387152
| 18> 		C    1.222414   0.110576   0.194867
| 19> 		H   -1.256083  -0.833885   0.986153
| 20> 		H   -0.139865   0.996590  -1.096101
| 21> 		H    1.201285  -0.598421   1.168029
| 22> 		H    2.200260   0.689998  -0.007564
| 23> *
| 24>
| 25>                          ****END OF INPUT****

CARTESIAN COORDINATES (ANGSTROEM)
---------------------------------
  C     -1.187537   -0.311933   -0.040068
  O     -2.164202   -0.420555   -0.828609
  C      0.086314    0.373441   -0.387152
  C      1.222414    0.110576    0.194867
  H     -1.256083   -0.833885    0.986153
  H     -0.139865    0.996590   -1.096101
  H      1.201285   -0.598421    1.168029
  H      2.200260    0.689998   -0.007564

 Total Charge           Charge          ....    0
 Multiplicity           Mult            ....    1
 Number of Electrons    NEL             ....   30
 Basis Dimension        Dim             ....   76

ORBITAL ENERGIES
----------------

  NO   OCC          E(Eh)            E(eV)
   0   2.0000     -19.143048      -520.9088
   1   2.0000     -10.283149      -279.8187
   2   2.0000     -10.232790      -278.4484
   3   2.0000     -10.201002      -277.5834
   4   2.0000      -1.022559       -27.8252
   5   2.0000      -0.811976       -22.0950
   6   2.0000      -0.647518       -17.6199
   7   2.0000      -0.575970       -15.6729
   8   2.0000      -0.479206       -13.0399
   9   2.0000      -0.463538       -12.6135
  10   2.0000      -0.422334       -11.4923
  11   2.0000      -0.386760       -10.5243
  12   2.0000      -0.377116       -10.2619
  13   2.0000      -0.299910        -8.1610
  14   2.0000      -0.256711        -6.9855
  15   0.0000      -0.070484        -1.9180
  16   0.0000       0.039038         1.0623
  17   0.0000       0.056817         1.5461
  18   0.0000       0.083571         2.2741
  19   0.0000       0.104930         2.8553

MULLIKEN ATOMIC CHARGES
-----------------------
   0 C :    0.130951
   1 O :   -0.228110
   2 C :    0.068351
   3 C :   -0.010279
   4 H :   -0.010223
   5 H :   -0.062486
   6 H :    0.051964
   7 H :    0.059833
Sum of atomic charges:   -0.0000000

LOEWDIN ATOMIC CHARGES
----------------------
   0 C :    0.005144
   1 O :   -0.045080
   2 C :   -0.047477
   3 C :   -0.011824
   4 H :   -0.000392
   5 H :   -0.000719
   6 H :    0.051355
   7 H :    0.048993

  Mayer bond orders larger than 0.100000
B(  0-C ,  1-O ) :   2.1135 B(  0-C ,  2-C ) :   1.0726 B(  0-C ,  4-H ) :   0.9156
B(  2-C ,  3-C ) :   1.9351 B(  2-C ,  5-H ) :   0.9541 B(  3-C ,  6-H ) :   0.9243
B(  3-C ,  7-H ) :   0.9340

-----------------------------------------------------------------------------
         ABSORPTION SPECTRUM VIA TRANSITION ELECTRIC DIPOLE MOMENTS
-----------------------------------------------------------------------------
State   Energy    Wavelength  fosc         T2        TX        TY        TZ
        (cm-1)      (nm)                 (au**2)    (au)      (au)      (au)
-----------------------------------------------------------------------------
   1   27541.9    363.1   0.000267992   0.00320  -0.04287   0.03485  -0.01227

FINAL SINGLE POINT ENERGY      -191.654606202177

DIPOLE MOMENT
-------------
                                X             Y             Z
Electronic contribution:     -2.92050      -0.28067      -1.43729
Nuclear contribution   :      3.94273       0.52837       1.98056
                        -----------------------------------------
Total Dipole Moment    :      1.02222       0.24770       0.54327
                        -----------------------------------------
Magnitude (a.u.)       :      1.18382
Magnitude (Debye)      :      3.00904

Rotational constants in cm-1:     1.530518     0.151574     0.139846
Rotational constants in MHz : 45883.765001  4544.085964  4192.463042

                             ****ORCA TERMINATED NORMALLY****
TOTAL RUN TIME: 0 days 0 hours 3 minutes 23 seconds 532 msec
