                         Program Version 5.0.3 -  RELEASE  -
|  1> ! B3LYP cc-pVDZ
|  2> !TightSCF
|  3> %scf
|  4>  ConvForced true
|  5>  convergence tight
|  6>  MaxIter 500
|  7> end
|  8>
|  9> %tddft
| 10>  nroots 1
| 11> end
| 12>
| 13> # 	2410
| 14> * xyz 0 1
| 15> 		C   -1.204485  -0.345948   0.067481
| 16> 		O   -1.546798  -1.205860   0.802433
| 17> 		C    0.013937   0.482596   0.278998
| 18> 		C    1.154952   0.095376  -0.236135
| 19> 		H   -1.808640  -0.152558  -0.864448
| 20> 		H   -0.096950   1.563111   0.516272
| 21> 		H    1.264589  -1.014652  -0.500183
| 22> 		H    2.190106   0.644276  -0.081749
| 23> *
| 24>
| 25>                          ****END OF INPUT****

CARTESIAN COORDINATES (ANGSTROEM)
---------------------------------
  C     -1.204485   -0.345948    0.067481
  O     -1.546798   -1.205860    0.802433
  C      0.013937    0.482596    0.278998
  C      1.154952    0.095376   -0.236135
  H     -1.808640   -0.152558   -0.864448
  H     -0.096950    1.563111    0.516272
  H      1.264589   -1.014652   -0.500183
  H      2.190106    0.644276   -0.081749

 Total Charge           Charge          ....    0
 Multiplicity           Mult            ....    1
 Number of Electrons    NEL             ....   30
 Basis Dimension        Dim             ....   76

ORBITAL ENERGIES
----------------

  NO   OCC          E(Eh)            E(eV)
   0   2.0000     -19.144890      -520.9589
   1   2.0000     -10.281576      -279.7759
   2   2.0000     -10.213735      -277.9299
   3   2.0000     -10.205851      -277.7153
   4   2.0000      -1.069145       -29.0929
   5   2.0000      -0.800102       -21.7719
   6   2.0000      -0.639218       -17.3940
   7   2.0000      -0.548820       -14.9342
   8   2.0000      -0.500640       -13.6231
   9   2.0000      -0.456791       -12.4299
  10   2.0000      -0.443301       -12.0628
  11   2.0000      -0.387267       -10.5381
  12   2.0000      -0.370152       -10.0723
  13   2.0000      -0.293224        -7.9790
  14   2.0000      -0.256268        -6.9734
  15   0.0000      -0.028716        -0.7814
  16   0.0000      -0.012233        -0.3329
  17   0.0000       0.074191         2.0188
  18   0.0000       0.088319         2.4033
  19   0.0000       0.102755         2.7961

MULLIKEN ATOMIC CHARGES
-----------------------
   0 C :    0.156825
   1 O :   -0.157478
   2 C :   -0.050677
   3 C :   -0.051105
   4 H :   -0.010628
   5 H :    0.021955
   6 H :    0.038840
   7 H :    0.052269
Sum of atomic charges:   -0.0000000

LOEWDIN ATOMIC CHARGES
----------------------
   0 C :   -0.038778
   1 O :    0.036328
   2 C :   -0.068374
   3 C :   -0.048639
   4 H :   -0.004222
   5 H :    0.040894
   6 H :    0.036023
   7 H :    0.046768

  Mayer bond orders larger than 0.100000
B(  0-C ,  1-O ) :   2.2511 B(  0-C ,  2-C ) :   0.9708 B(  0-C ,  4-H ) :   0.9115
B(  2-C ,  3-C ) :   2.0293 B(  2-C ,  5-H ) :   0.9257 B(  3-C ,  6-H ) :   0.9408
B(  3-C ,  7-H ) :   0.9423

-----------------------------------------------------------------------------
         ABSORPTION SPECTRUM VIA TRANSITION ELECTRIC DIPOLE MOMENTS
-----------------------------------------------------------------------------
State   Energy    Wavelength  fosc         T2        TX        TY        TZ
        (cm-1)      (nm)                 (au**2)    (au)      (au)      (au)
-----------------------------------------------------------------------------
   1   34725.6    288.0   0.000039711   0.00038  -0.00909   0.00732   0.01550

FINAL SINGLE POINT ENERGY      -191.625747979461

DIPOLE MOMENT
-------------
                                X             Y             Z
Electronic contribution:     -2.61529      -1.34881       1.30027
Nuclear contribution   :      3.01727       1.99676      -1.74952
                        -----------------------------------------
Total Dipole Moment    :      0.40198       0.64795      -0.44924
                        -----------------------------------------
Magnitude (a.u.)       :      0.88501
Magnitude (Debye)      :      2.24952

Rotational constants in cm-1:     0.973916     0.174167     0.162412
Rotational constants in MHz : 29197.269560  5221.404398  4868.984275

                             ****ORCA TERMINATED NORMALLY****
TOTAL RUN TIME: 0 days 0 hours 3 minutes 25 seconds 943 msec
