                         Program Version 5.0.3 -  RELEASE  -
|  1> ! HF-3c
|  2> !TightSCF
|  3> %scf
|  4>  ConvForced true
|  5>  convergence tight
|  6>  MaxIter 500
|  7> end
|  8>
|  9> %tddft
| 10>  nroots 1
| 11> end
| 12>
| 13> # 	15898
| 14> * xyz 0 1
| 15> 		C   -1.172826  -0.428729   0.041025
| 16> 		O   -2.194393  -0.430814   0.797870
| 17> 		C   -0.010305   0.376530   0.304459
| 18> 		C    1.219093   0.214721  -0.259910
| 19> 		H   -1.163490  -0.743111  -0.886628
| 20> 		H    0.015407   1.058307   1.225266
| 21> 		H    1.274882  -0.638123  -1.083878
| 22> 		H    1.938786   0.634081  -0.062328
| 23> *
| 24>
| 25>                          ****END OF INPUT****

CARTESIAN COORDINATES (ANGSTROEM)
---------------------------------
  C     -1.172826   -0.428729    0.041025
  O     -2.194393   -0.430814    0.797870
  C     -0.010305    0.376530    0.304459
  C      1.219093    0.214721   -0.259910
  H     -1.163490   -0.743111   -0.886628
  H      0.015407    1.058307    1.225266
  H      1.274882   -0.638123   -1.083878
  H      1.938786    0.634081   -0.062328

 Total Charge           Charge          ....    0
 Multiplicity           Mult            ....    1
 Number of Electrons    NEL             ....   30
 Basis Dimension        Dim             ....   24

ORBITAL ENERGIES
----------------

  NO   OCC          E(Eh)            E(eV)
   0   2.0000     -20.372049      -554.3516
   1   2.0000     -11.300403      -307.4996
   2   2.0000     -11.205075      -304.9056
   3   2.0000     -11.200851      -304.7907
   4   2.0000      -1.371649       -37.3245
   5   2.0000      -1.095592       -29.8126
   6   2.0000      -0.934135       -25.4191
   7   2.0000      -0.801107       -21.7992
   8   2.0000      -0.689792       -18.7702
   9   2.0000      -0.658214       -17.9109
  10   2.0000      -0.591299       -16.0901
  11   2.0000      -0.532206       -14.4821
  12   2.0000      -0.515710       -14.0332
  13   2.0000      -0.436569       -11.8797
  14   2.0000      -0.389775       -10.6063
  15   0.0000       0.097302         2.6477
  16   0.0000       0.280586         7.6351
  17   0.0000       0.521947        14.2029
  18   0.0000       0.607770        16.5383
  19   0.0000       0.650190        17.6926

MULLIKEN ATOMIC CHARGES
-----------------------
   0 C :    0.119792
   1 O :   -0.315650
   2 C :   -0.139231
   3 C :   -0.251779
   4 H :    0.144809
   5 H :    0.158229
   6 H :    0.149333
   7 H :    0.134498
Sum of atomic charges:   -0.0000000

LOEWDIN ATOMIC CHARGES
----------------------
   0 C :    0.129752
   1 O :   -0.239456
   2 C :   -0.096996
   3 C :   -0.147127
   4 H :    0.071511
   5 H :    0.107125
   6 H :    0.106422
   7 H :    0.068768

  Mayer bond orders larger than 0.100000
B(  0-C ,  1-O ) :   1.8865 B(  0-C ,  2-C ) :   1.0633 B(  0-C ,  4-H ) :   0.9389
B(  2-C ,  3-C ) :   1.9248 B(  2-C ,  5-H ) :   0.9501 B(  3-C ,  6-H ) :   0.9613
B(  3-C ,  7-H ) :   0.9751

-----------------------------------------------------------------------------
         ABSORPTION SPECTRUM VIA TRANSITION ELECTRIC DIPOLE MOMENTS
-----------------------------------------------------------------------------
State   Energy    Wavelength  fosc         T2        TX        TY        TZ
        (cm-1)      (nm)                 (au**2)    (au)      (au)      (au)
-----------------------------------------------------------------------------
   1   27881.8    358.7   0.000113226   0.00134  -0.02938  -0.02038  -0.00763

Dispersion correction           -0.025765999
FINAL SINGLE POINT ENERGY      -189.258229232539

DIPOLE MOMENT
-------------
                                X             Y             Z
Electronic contribution:     -3.20386      -0.56313       1.07525
Nuclear contribution   :      4.09575       0.59647      -1.61802
                        -----------------------------------------
Total Dipole Moment    :      0.89189       0.03334      -0.54277
                        -----------------------------------------
Magnitude (a.u.)       :      1.04459
Magnitude (Debye)      :      2.65514

Rotational constants in cm-1:     1.630185     0.151042     0.139425
Rotational constants in MHz : 48871.717673  4528.120065  4179.850058

                             ****ORCA TERMINATED NORMALLY****
TOTAL RUN TIME: 0 days 0 hours 0 minutes 13 seconds 869 msec
