                         Program Version 5.0.3 -  RELEASE  -
|  1> ! HF-3c
|  2> !TightSCF
|  3> %scf
|  4>  ConvForced true
|  5>  convergence tight
|  6>  MaxIter 500
|  7> end
|  8>
|  9> %tddft
| 10>  nroots 1
| 11> end
| 12>
| 13> # 	16253
| 14> * xyz 0 1
| 15> 		C   -1.209351  -0.357907   0.013904
| 16> 		O   -1.783363  -0.934611   0.849525
| 17> 		C   -0.017899   0.480667   0.309874
| 18> 		C    1.180628   0.066616  -0.150091
| 19> 		H   -1.462923  -0.408005  -1.132480
| 20> 		H   -0.211294   1.343604   0.863963
| 21> 		H    1.411536  -0.917182  -0.770515
| 22> 		H    2.032793   0.700982   0.034366
| 23> *
| 24>
| 25>                          ****END OF INPUT****

CARTESIAN COORDINATES (ANGSTROEM)
---------------------------------
  C     -1.209351   -0.357907    0.013904
  O     -1.783363   -0.934611    0.849525
  C     -0.017899    0.480667    0.309874
  C      1.180628    0.066616   -0.150091
  H     -1.462923   -0.408005   -1.132480
  H     -0.211294    1.343604    0.863963
  H      1.411536   -0.917182   -0.770515
  H      2.032793    0.700982    0.034366

 Total Charge           Charge          ....    0
 Multiplicity           Mult            ....    1
 Number of Electrons    NEL             ....   30
 Basis Dimension        Dim             ....   24

ORBITAL ENERGIES
----------------

  NO   OCC          E(Eh)            E(eV)
   0   2.0000     -20.384637      -554.6942
   1   2.0000     -11.306236      -307.6583
   2   2.0000     -11.184411      -304.3433
   3   2.0000     -11.179906      -304.2207
   4   2.0000      -1.438751       -39.1504
   5   2.0000      -1.071932       -29.1688
   6   2.0000      -0.869116       -23.6498
   7   2.0000      -0.763266       -20.7695
   8   2.0000      -0.675759       -18.3883
   9   2.0000      -0.644354       -17.5338
  10   2.0000      -0.606187       -16.4952
  11   2.0000      -0.543558       -14.7910
  12   2.0000      -0.527579       -14.3562
  13   2.0000      -0.400960       -10.9107
  14   2.0000      -0.393943       -10.7197
  15   0.0000       0.179620         4.8877
  16   0.0000       0.246725         6.7137
  17   0.0000       0.517112        14.0713
  18   0.0000       0.571924        15.5628
  19   0.0000       0.656101        17.8534

MULLIKEN ATOMIC CHARGES
-----------------------
   0 C :    0.194679
   1 O :   -0.356974
   2 C :   -0.179486
   3 C :   -0.226576
   4 H :    0.133303
   5 H :    0.153295
   6 H :    0.145587
   7 H :    0.136173
Sum of atomic charges:    0.0000000

LOEWDIN ATOMIC CHARGES
----------------------
   0 C :    0.157756
   1 O :   -0.245032
   2 C :   -0.132743
   3 C :   -0.140012
   4 H :    0.074068
   5 H :    0.097040
   6 H :    0.102692
   7 H :    0.086230

  Mayer bond orders larger than 0.100000
B(  0-C ,  1-O ) :   1.9512 B(  0-C ,  2-C ) :   0.9816 B(  0-C ,  4-H ) :   0.9043
B(  2-C ,  3-C ) :   1.9896 B(  2-C ,  5-H ) :   0.9541 B(  3-C ,  6-H ) :   0.9624
B(  3-C ,  7-H ) :   0.9655

-----------------------------------------------------------------------------
         ABSORPTION SPECTRUM VIA TRANSITION ELECTRIC DIPOLE MOMENTS
-----------------------------------------------------------------------------
State   Energy    Wavelength  fosc         T2        TX        TY        TZ
        (cm-1)      (nm)                 (au**2)    (au)      (au)      (au)
-----------------------------------------------------------------------------
   1   37214.8    268.7   0.000036469   0.00032  -0.00081   0.00548   0.01708

Dispersion correction           -0.025175906
FINAL SINGLE POINT ENERGY      -189.300600472606

DIPOLE MOMENT
-------------
                                X             Y             Z
Electronic contribution:     -2.84401      -1.03470       1.20720
Nuclear contribution   :      3.46938       1.46435      -1.91548
                        -----------------------------------------
Total Dipole Moment    :      0.62537       0.42965      -0.70828
                        -----------------------------------------
Magnitude (a.u.)       :      1.03796
Magnitude (Debye)      :      2.63828

Rotational constants in cm-1:     1.067575     0.165977     0.160557
Rotational constants in MHz : 32005.085479  4975.868435  4813.377633

                             ****ORCA TERMINATED NORMALLY****
TOTAL RUN TIME: 0 days 0 hours 0 minutes 13 seconds 38 msec
