                         Program Version 5.0.3 -  RELEASE  -
|  1> ! HF-3c
|  2> !TightSCF
|  3> %scf
|  4>  ConvForced true
|  5>  convergence tight
|  6>  MaxIter 500
|  7> end
|  8>
|  9> %tddft
| 10>  nroots 1
| 11> end
| 12>
| 13> # 	12933
| 14> * xyz 0 1
| 15> 		C   -1.187900  -0.322303  -0.014065
| 16> 		O   -2.034657  -0.617767  -0.818778
| 17> 		C    0.041495   0.483902  -0.272946
| 18> 		C    1.181318   0.032333   0.203373
| 19> 		H   -1.174303  -0.614907   0.993515
| 20> 		H   -0.132030   1.295333  -1.058810
| 21> 		H    1.112637  -0.934977   0.894060
| 22> 		H    2.176001   0.726148   0.046826
| 23> *
| 24>
| 25>                          ****END OF INPUT****

CARTESIAN COORDINATES (ANGSTROEM)
---------------------------------
  C     -1.187900   -0.322303   -0.014065
  O     -2.034657   -0.617767   -0.818778
  C      0.041495    0.483902   -0.272946
  C      1.181318    0.032333    0.203373
  H     -1.174303   -0.614907    0.993515
  H     -0.132030    1.295333   -1.058810
  H      1.112637   -0.934977    0.894060
  H      2.176001    0.726148    0.046826

 Total Charge           Charge          ....    0
 Multiplicity           Mult            ....    1
 Number of Electrons    NEL             ....   30
 Basis Dimension        Dim             ....   24

ORBITAL ENERGIES
----------------

  NO   OCC          E(Eh)            E(eV)
   0   2.0000     -20.373146      -554.3815
   1   2.0000     -11.295715      -307.3720
   2   2.0000     -11.183081      -304.3071
   3   2.0000     -11.177598      -304.1579
   4   2.0000      -1.405877       -38.2559
   5   2.0000      -1.081396       -29.4263
   6   2.0000      -0.869259       -23.6538
   7   2.0000      -0.766304       -20.8522
   8   2.0000      -0.650437       -17.6993
   9   2.0000      -0.629514       -17.1299
  10   2.0000      -0.583265       -15.8715
  11   2.0000      -0.525825       -14.3084
  12   2.0000      -0.521425       -14.1887
  13   2.0000      -0.404904       -11.0180
  14   2.0000      -0.397368       -10.8129
  15   0.0000       0.152635         4.1534
  16   0.0000       0.285969         7.7816
  17   0.0000       0.495247        13.4763
  18   0.0000       0.508196        13.8287
  19   0.0000       0.624362        16.9897

MULLIKEN ATOMIC CHARGES
-----------------------
   0 C :    0.165682
   1 O :   -0.349303
   2 C :   -0.178530
   3 C :   -0.216346
   4 H :    0.130642
   5 H :    0.153325
   6 H :    0.142085
   7 H :    0.152445
Sum of atomic charges:   -0.0000000

LOEWDIN ATOMIC CHARGES
----------------------
   0 C :    0.150578
   1 O :   -0.251634
   2 C :   -0.139441
   3 C :   -0.138851
   4 H :    0.063262
   5 H :    0.104113
   6 H :    0.100618
   7 H :    0.111355

  Mayer bond orders larger than 0.100000
B(  0-C ,  1-O ) :   1.9280 B(  0-C ,  2-C ) :   0.9984 B(  0-C ,  4-H ) :   0.9263
B(  2-C ,  3-C ) :   1.9746 B(  2-C ,  5-H ) :   0.9495 B(  3-C ,  6-H ) :   0.9552
B(  3-C ,  7-H ) :   0.9541

-----------------------------------------------------------------------------
         ABSORPTION SPECTRUM VIA TRANSITION ELECTRIC DIPOLE MOMENTS
-----------------------------------------------------------------------------
State   Energy    Wavelength  fosc         T2        TX        TY        TZ
        (cm-1)      (nm)                 (au**2)    (au)      (au)      (au)
-----------------------------------------------------------------------------
   1   33979.9    294.3   0.000003394   0.00003   0.00573   0.00005   0.00027

Dispersion correction           -0.025657135
FINAL SINGLE POINT ENERGY      -189.304551671748

DIPOLE MOMENT
-------------
                                X             Y             Z
Electronic contribution:     -2.92726      -0.63615      -1.08181
Nuclear contribution   :      3.85473       0.90901       1.69784
                        -----------------------------------------
Total Dipole Moment    :      0.92747       0.27286       0.61603
                        -----------------------------------------
Magnitude (a.u.)       :      1.14636
Magnitude (Debye)      :      2.91382

Rotational constants in cm-1:     1.287109     0.159496     0.149173
Rotational constants in MHz : 38586.555606  4781.575678  4472.084771

                             ****ORCA TERMINATED NORMALLY****
TOTAL RUN TIME: 0 days 0 hours 0 minutes 12 seconds 278 msec
