                         Program Version 5.0.3 -  RELEASE  -
|  1> ! B3LYP cc-pVDZ
|  2> !TightSCF
|  3> %scf
|  4>  ConvForced true
|  5>  convergence tight
|  6>  MaxIter 500
|  7> end
|  8>
|  9> %tddft
| 10>  nroots 1
| 11> end
| 12>
| 13> # 	31293
| 14> * xyz 0 1
| 15> 		C   -0.571165  -0.452534   0.008843
| 16> 		O   -0.582172  -1.635609   0.002710
| 17> 		C    0.625176   0.419301  -0.006306
| 18> 		C    1.841882  -0.120829   0.020223
| 19> 		H   -1.564467   0.183518  -0.054575
| 20> 		H    0.656815   1.599359  -0.063740
| 21> 		H    1.932495  -1.286233  -0.242481
| 22> 		H    2.631897   0.553846   0.050859
| 23> *
| 24>
| 25>                          ****END OF INPUT****

CARTESIAN COORDINATES (ANGSTROEM)
---------------------------------
  C     -0.571165   -0.452534    0.008843
  O     -0.582172   -1.635609    0.002710
  C      0.625176    0.419301   -0.006306
  C      1.841882   -0.120829    0.020223
  H     -1.564467    0.183518   -0.054575
  H      0.656815    1.599359   -0.063740
  H      1.932495   -1.286233   -0.242481
  H      2.631897    0.553846    0.050859

 Total Charge           Charge          ....    0
 Multiplicity           Mult            ....    1
 Number of Electrons    NEL             ....   30
 Basis Dimension        Dim             ....   76

ORBITAL ENERGIES
----------------

  NO   OCC          E(Eh)            E(eV)
   0   2.0000     -19.144991      -520.9617
   1   2.0000     -10.281802      -279.7820
   2   2.0000     -10.213850      -277.9330
   3   2.0000     -10.208958      -277.7999
   4   2.0000      -1.066501       -29.0210
   5   2.0000      -0.796498       -21.6738
   6   2.0000      -0.649860       -17.6836
   7   2.0000      -0.524058       -14.2603
   8   2.0000      -0.508309       -13.8318
   9   2.0000      -0.448871       -12.2144
  10   2.0000      -0.420779       -11.4500
  11   2.0000      -0.410629       -11.1738
  12   2.0000      -0.373199       -10.1553
  13   2.0000      -0.289133        -7.8677
  14   2.0000      -0.258750        -7.0410
  15   0.0000      -0.068273        -1.8578
  16   0.0000       0.055322         1.5054
  17   0.0000       0.063874         1.7381
  18   0.0000       0.081684         2.2227
  19   0.0000       0.110058         2.9948

MULLIKEN ATOMIC CHARGES
-----------------------
   0 C :    0.177217
   1 O :   -0.160449
   2 C :   -0.161850
   3 C :    0.070032
   4 H :   -0.024403
   5 H :    0.019618
   6 H :    0.066225
   7 H :    0.013611
Sum of atomic charges:    0.0000000

LOEWDIN ATOMIC CHARGES
----------------------
   0 C :   -0.058388
   1 O :    0.027350
   2 C :   -0.100014
   3 C :    0.018240
   4 H :   -0.009506
   5 H :    0.048066
   6 H :    0.057360
   7 H :    0.016892

  Mayer bond orders larger than 0.100000
B(  0-C ,  1-O ) :   2.2279 B(  0-C ,  2-C ) :   1.0199 B(  0-C ,  4-H ) :   0.9015
B(  2-C ,  3-C ) :   1.9679 B(  2-C ,  5-H ) :   0.9382 B(  3-C ,  6-H ) :   0.9309
B(  3-C ,  7-H ) :   0.9328

-----------------------------------------------------------------------------
         ABSORPTION SPECTRUM VIA TRANSITION ELECTRIC DIPOLE MOMENTS
-----------------------------------------------------------------------------
State   Energy    Wavelength  fosc         T2        TX        TY        TZ
        (cm-1)      (nm)                 (au**2)    (au)      (au)      (au)
-----------------------------------------------------------------------------
   1   29253.6    341.8   0.000246451   0.00277  -0.02435   0.01642  -0.04372

FINAL SINGLE POINT ENERGY      -191.653043782043

DIPOLE MOMENT
-------------
                                X             Y             Z
Electronic contribution:     -1.81271      -1.93922       0.22633
Nuclear contribution   :      2.27002       2.77304      -0.29103
                        -----------------------------------------
Total Dipole Moment    :      0.45731       0.83382      -0.06469
                        -----------------------------------------
Magnitude (a.u.)       :      0.95319
Magnitude (Debye)      :      2.42282

Rotational constants in cm-1:     0.769864     0.209111     0.164686
Rotational constants in MHz : 23079.945718  6268.982256  4937.174030

                             ****ORCA TERMINATED NORMALLY****
TOTAL RUN TIME: 0 days 0 hours 3 minutes 20 seconds 156 msec
