                         Program Version 5.0.3 -  RELEASE  -
|  1> ! B3LYP cc-pVDZ
|  2> !TightSCF
|  3> %scf
|  4>  ConvForced true
|  5>  convergence tight
|  6>  MaxIter 500
|  7> end
|  8>
|  9> %tddft
| 10>  nroots 1
| 11> end
| 12>
| 13> # 	1266
| 14> * xyz 0 1
| 15> 		C   -1.171862  -0.351709  -0.039024
| 16> 		O   -1.400239  -1.351004  -0.619274
| 17> 		C   -0.005528   0.545365  -0.228834
| 18> 		C    1.234212   0.034764   0.114959
| 19> 		H   -1.928304  -0.056024   0.798570
| 20> 		H   -0.156977   1.616953  -0.474153
| 21> 		H    1.291202  -1.005946   0.446829
| 22> 		H    2.157884   0.626684  -0.067754
| 23> *
| 24>
| 25>                          ****END OF INPUT****

CARTESIAN COORDINATES (ANGSTROEM)
---------------------------------
  C     -1.171862   -0.351709   -0.039024
  O     -1.400239   -1.351004   -0.619274
  C     -0.005528    0.545365   -0.228834
  C      1.234212    0.034764    0.114959
  H     -1.928304   -0.056024    0.798570
  H     -0.156977    1.616953   -0.474153
  H      1.291202   -1.005946    0.446829
  H      2.157884    0.626684   -0.067754

 Total Charge           Charge          ....    0
 Multiplicity           Mult            ....    1
 Number of Electrons    NEL             ....   30
 Basis Dimension        Dim             ....   76

ORBITAL ENERGIES
----------------

  NO   OCC          E(Eh)            E(eV)
   0   2.0000     -19.142953      -520.9062
   1   2.0000     -10.280358      -279.7428
   2   2.0000     -10.217045      -278.0199
   3   2.0000     -10.214891      -277.9613
   4   2.0000      -1.068910       -29.0865
   5   2.0000      -0.788182       -21.4475
   6   2.0000      -0.644749       -17.5445
   7   2.0000      -0.544511       -14.8169
   8   2.0000      -0.501215       -13.6387
   9   2.0000      -0.449457       -12.2303
  10   2.0000      -0.442641       -12.0449
  11   2.0000      -0.397051       -10.8043
  12   2.0000      -0.386356       -10.5133
  13   2.0000      -0.281600        -7.6627
  14   2.0000      -0.253265        -6.8917
  15   0.0000      -0.044035        -1.1983
  16   0.0000       0.002247         0.0612
  17   0.0000       0.077646         2.1129
  18   0.0000       0.090214         2.4548
  19   0.0000       0.102254         2.7825

MULLIKEN ATOMIC CHARGES
-----------------------
   0 C :    0.148564
   1 O :   -0.152702
   2 C :   -0.090060
   3 C :    0.014788
   4 H :   -0.022224
   5 H :    0.022497
   6 H :    0.036173
   7 H :    0.042963
Sum of atomic charges:    0.0000000

LOEWDIN ATOMIC CHARGES
----------------------
   0 C :   -0.055331
   1 O :    0.035622
   2 C :   -0.060470
   3 C :   -0.012151
   4 H :   -0.010130
   5 H :    0.037443
   6 H :    0.030125
   7 H :    0.034891

  Mayer bond orders larger than 0.100000
B(  0-C ,  1-O ) :   2.2535 B(  0-C ,  2-C ) :   0.9856 B(  0-C ,  4-H ) :   0.8993
B(  2-C ,  3-C ) :   1.9948 B(  2-C ,  5-H ) :   0.9393 B(  3-C ,  6-H ) :   0.9461
B(  3-C ,  7-H ) :   0.9511

-----------------------------------------------------------------------------
         ABSORPTION SPECTRUM VIA TRANSITION ELECTRIC DIPOLE MOMENTS
-----------------------------------------------------------------------------
State   Energy    Wavelength  fosc         T2        TX        TY        TZ
        (cm-1)      (nm)                 (au**2)    (au)      (au)      (au)
-----------------------------------------------------------------------------
   1   32905.2    303.9   0.000935900   0.00936   0.09665  -0.00405  -0.00255

FINAL SINGLE POINT ENERGY      -191.643778924518

DIPOLE MOMENT
-------------
                                X             Y             Z
Electronic contribution:     -2.18201      -1.53608      -1.05145
Nuclear contribution   :      2.62598       2.27673       1.39240
                        -----------------------------------------
Total Dipole Moment    :      0.44397       0.74065       0.34095
                        -----------------------------------------
Magnitude (a.u.)       :      0.92840
Magnitude (Debye)      :      2.35980

Rotational constants in cm-1:     0.834784     0.185360     0.162243
Rotational constants in MHz : 25026.207839  5556.960114  4863.913833

                             ****ORCA TERMINATED NORMALLY****
TOTAL RUN TIME: 0 days 0 hours 3 minutes 16 seconds 822 msec
