                         Program Version 5.0.3 -  RELEASE  -
|  1> ! HF-3c
|  2> !TightSCF
|  3> %scf
|  4>  ConvForced true
|  5>  convergence tight
|  6>  MaxIter 500
|  7> end
|  8>
|  9> %tddft
| 10>  nroots 1
| 11> end
| 12>
| 13> # 	31263
| 14> * xyz 0 1
| 15> 		C   -0.540535  -0.414511   0.006920
| 16> 		O   -0.599909  -1.625198   0.000158
| 17> 		C    0.648909   0.382996   0.040697
| 18> 		C    1.827088  -0.111974  -0.009794
| 19> 		H   -1.615203   0.002032  -0.191617
| 20> 		H    0.478229   1.424229  -0.149612
| 21> 		H    1.904722  -1.172235  -0.086060
| 22> 		H    2.654393   0.484672  -0.029853
| 23> *
| 24>
| 25>                          ****END OF INPUT****

CARTESIAN COORDINATES (ANGSTROEM)
---------------------------------
  C     -0.540535   -0.414511    0.006920
  O     -0.599909   -1.625198    0.000158
  C      0.648909    0.382996    0.040697
  C      1.827088   -0.111974   -0.009794
  H     -1.615203    0.002032   -0.191617
  H      0.478229    1.424229   -0.149612
  H      1.904722   -1.172235   -0.086060
  H      2.654393    0.484672   -0.029853

 Total Charge           Charge          ....    0
 Multiplicity           Mult            ....    1
 Number of Electrons    NEL             ....   30
 Basis Dimension        Dim             ....   24

ORBITAL ENERGIES
----------------

  NO   OCC          E(Eh)            E(eV)
   0   2.0000     -20.353819      -553.8556
   1   2.0000     -11.288544      -307.1769
   2   2.0000     -11.204692      -304.8952
   3   2.0000     -11.203611      -304.8658
   4   2.0000      -1.398796       -38.0632
   5   2.0000      -1.114195       -30.3188
   6   2.0000      -0.902958       -24.5707
   7   2.0000      -0.743979       -20.2447
   8   2.0000      -0.725352       -19.7378
   9   2.0000      -0.633477       -17.2378
  10   2.0000      -0.602609       -16.3978
  11   2.0000      -0.548854       -14.9351
  12   2.0000      -0.531734       -14.4692
  13   2.0000      -0.413933       -11.2637
  14   2.0000      -0.406045       -11.0491
  15   0.0000       0.130049         3.5388
  16   0.0000       0.322960         8.7882
  17   0.0000       0.519174        14.1274
  18   0.0000       0.662974        18.0404
  19   0.0000       0.677355        18.4318

MULLIKEN ATOMIC CHARGES
-----------------------
   0 C :    0.159902
   1 O :   -0.354911
   2 C :   -0.184280
   3 C :   -0.231880
   4 H :    0.140026
   5 H :    0.150579
   6 H :    0.167627
   7 H :    0.152937
Sum of atomic charges:   -0.0000000

LOEWDIN ATOMIC CHARGES
----------------------
   0 C :    0.136124
   1 O :   -0.262981
   2 C :   -0.132296
   3 C :   -0.122925
   4 H :    0.081406
   5 H :    0.095549
   6 H :    0.109738
   7 H :    0.095385

  Mayer bond orders larger than 0.100000
B(  0-C ,  1-O ) :   1.8935 B(  0-C ,  2-C ) :   1.0392 B(  0-C ,  4-H ) :   0.9280
B(  2-C ,  3-C ) :   1.9468 B(  2-C ,  5-H ) :   0.9537 B(  3-C ,  6-H ) :   0.9543
B(  3-C ,  7-H ) :   0.9630

-----------------------------------------------------------------------------
         ABSORPTION SPECTRUM VIA TRANSITION ELECTRIC DIPOLE MOMENTS
-----------------------------------------------------------------------------
State   Energy    Wavelength  fosc         T2        TX        TY        TZ
        (cm-1)      (nm)                 (au**2)    (au)      (au)      (au)
-----------------------------------------------------------------------------
   1   30700.6    325.7   0.000072487   0.00078   0.01014   0.00071  -0.02596

Dispersion correction           -0.026310286
FINAL SINGLE POINT ENERGY      -189.331683631480

DIPOLE MOMENT
-------------
                                X             Y             Z
Electronic contribution:     -1.74332      -1.57642       0.32144
Nuclear contribution   :      2.05269       2.48207      -0.42861
                        -----------------------------------------
Total Dipole Moment    :      0.30936       0.90565      -0.10717
                        -----------------------------------------
Magnitude (a.u.)       :      0.96301
Magnitude (Debye)      :      2.44778

Rotational constants in cm-1:     0.833888     0.211500     0.169013
Rotational constants in MHz : 24999.335826  6340.624217  5066.882699

                             ****ORCA TERMINATED NORMALLY****
TOTAL RUN TIME: 0 days 0 hours 0 minutes 16 seconds 85 msec
