                         Program Version 5.0.3 -  RELEASE  -
|  1> ! B3LYP cc-pVDZ
|  2> !TightSCF
|  3> %scf
|  4>  ConvForced true
|  5>  convergence tight
|  6>  MaxIter 500
|  7> end
|  8>
|  9> %tddft
| 10>  nroots 1
| 11> end
| 12>
| 13> # 	1033
| 14> * xyz 0 1
| 15> 		C   -1.192096  -0.263477  -0.013912
| 16> 		O   -1.806230  -0.682825  -0.974778
| 17> 		C    0.029046   0.504831  -0.209572
| 18> 		C    1.196124   0.055067   0.224046
| 19> 		H   -1.526247  -0.505186   1.078205
| 20> 		H    0.039267   1.376781  -0.835379
| 21> 		H    1.114414  -0.963308   0.811369
| 22> 		H    2.097511   0.458931  -0.047735
| 23> *
| 24>
| 25>                          ****END OF INPUT****

CARTESIAN COORDINATES (ANGSTROEM)
---------------------------------
  C     -1.192096   -0.263477   -0.013912
  O     -1.806230   -0.682825   -0.974778
  C      0.029046    0.504831   -0.209572
  C      1.196124    0.055067    0.224046
  H     -1.526247   -0.505186    1.078205
  H      0.039267    1.376781   -0.835379
  H      1.114414   -0.963308    0.811369
  H      2.097511    0.458931   -0.047735

 Total Charge           Charge          ....    0
 Multiplicity           Mult            ....    1
 Number of Electrons    NEL             ....   30
 Basis Dimension        Dim             ....   76

ORBITAL ENERGIES
----------------

  NO   OCC          E(Eh)            E(eV)
   0   2.0000     -19.144369      -520.9448
   1   2.0000     -10.284561      -279.8571
   2   2.0000     -10.208047      -277.7751
   3   2.0000     -10.202176      -277.6153
   4   2.0000      -1.050210       -28.5777
   5   2.0000      -0.804800       -21.8997
   6   2.0000      -0.648154       -17.6372
   7   2.0000      -0.560748       -15.2587
   8   2.0000      -0.491529       -13.3752
   9   2.0000      -0.470255       -12.7963
  10   2.0000      -0.434358       -11.8195
  11   2.0000      -0.392767       -10.6877
  12   2.0000      -0.372001       -10.1227
  13   2.0000      -0.290137        -7.8950
  14   2.0000      -0.258942        -7.0462
  15   0.0000      -0.049401        -1.3443
  16   0.0000       0.010449         0.2843
  17   0.0000       0.077374         2.1055
  18   0.0000       0.090926         2.4742
  19   0.0000       0.100409         2.7323

MULLIKEN ATOMIC CHARGES
-----------------------
   0 C :    0.150445
   1 O :   -0.186595
   2 C :   -0.051663
   3 C :    0.042542
   4 H :   -0.000212
   5 H :    0.004511
   6 H :    0.030996
   7 H :    0.009978
Sum of atomic charges:    0.0000000

LOEWDIN ATOMIC CHARGES
----------------------
   0 C :   -0.026867
   1 O :    0.003773
   2 C :   -0.056679
   3 C :   -0.011118
   4 H :    0.002710
   5 H :    0.032867
   6 H :    0.042990
   7 H :    0.012325

  Mayer bond orders larger than 0.100000
B(  0-C ,  1-O ) :   2.1898 B(  0-C ,  2-C ) :   1.0147 B(  0-C ,  4-H ) :   0.9065
B(  2-C ,  3-C ) :   2.0006 B(  2-C ,  5-H ) :   0.9443 B(  3-C ,  6-H ) :   0.9396
B(  3-C ,  7-H ) :   0.9417

-----------------------------------------------------------------------------
         ABSORPTION SPECTRUM VIA TRANSITION ELECTRIC DIPOLE MOMENTS
-----------------------------------------------------------------------------
State   Energy    Wavelength  fosc         T2        TX        TY        TZ
        (cm-1)      (nm)                 (au**2)    (au)      (au)      (au)
-----------------------------------------------------------------------------
   1   31996.8    312.5   0.001818596   0.01871   0.13236   0.01044   0.03293

FINAL SINGLE POINT ENERGY      -191.643792167645

DIPOLE MOMENT
-------------
                                X             Y             Z
Electronic contribution:     -2.72030      -0.41814      -1.37338
Nuclear contribution   :      3.38999       0.80442       1.90921
                        -----------------------------------------
Total Dipole Moment    :      0.66968       0.38628       0.53582
                        -----------------------------------------
Magnitude (a.u.)       :      0.94063
Magnitude (Debye)      :      2.39090

Rotational constants in cm-1:     1.108411     0.166187     0.161104
Rotational constants in MHz : 33229.333400  4982.166737  4829.789873

                             ****ORCA TERMINATED NORMALLY****
TOTAL RUN TIME: 0 days 0 hours 3 minutes 13 seconds 266 msec
