                         Program Version 5.0.3 -  RELEASE  -
|  1> ! HF-3c
|  2> !TightSCF
|  3> %scf
|  4>  ConvForced true
|  5>  convergence tight
|  6>  MaxIter 500
|  7> end
|  8>
|  9> %tddft
| 10>  nroots 1
| 11> end
| 12>
| 13> # 	848
| 14> * xyz 0 1
| 15> 		C   -1.173867  -0.346157  -0.076895
| 16> 		O   -1.410108  -1.434255  -0.582102
| 17> 		C    0.009426   0.487909  -0.227768
| 18> 		C    1.210045   0.019668   0.109239
| 19> 		H   -2.017354   0.121874   0.651557
| 20> 		H   -0.032667   1.521890  -0.365489
| 21> 		H    1.411412  -1.113373   0.423010
| 22> 		H    2.000758   0.760462   0.085968
| 23> *
| 24>
| 25>                          ****END OF INPUT****

CARTESIAN COORDINATES (ANGSTROEM)
---------------------------------
  C     -1.173867   -0.346157   -0.076895
  O     -1.410108   -1.434255   -0.582102
  C      0.009426    0.487909   -0.227768
  C      1.210045    0.019668    0.109239
  H     -2.017354    0.121874    0.651557
  H     -0.032667    1.521890   -0.365489
  H      1.411412   -1.113373    0.423010
  H      2.000758    0.760462    0.085968

 Total Charge           Charge          ....    0
 Multiplicity           Mult            ....    1
 Number of Electrons    NEL             ....   30
 Basis Dimension        Dim             ....   24

ORBITAL ENERGIES
----------------

  NO   OCC          E(Eh)            E(eV)
   0   2.0000     -20.360372      -554.0339
   1   2.0000     -11.292417      -307.2823
   2   2.0000     -11.190073      -304.4974
   3   2.0000     -11.188335      -304.4501
   4   2.0000      -1.388505       -37.7832
   5   2.0000      -1.087997       -29.6059
   6   2.0000      -0.879507       -23.9326
   7   2.0000      -0.737416       -20.0661
   8   2.0000      -0.694826       -18.9072
   9   2.0000      -0.607260       -16.5244
  10   2.0000      -0.598567       -16.2878
  11   2.0000      -0.537774       -14.6336
  12   2.0000      -0.505426       -13.7533
  13   2.0000      -0.409219       -11.1354
  14   2.0000      -0.393185       -10.6991
  15   0.0000       0.156228         4.2512
  16   0.0000       0.259295         7.0558
  17   0.0000       0.524447        14.2709
  18   0.0000       0.560339        15.2476
  19   0.0000       0.640355        17.4250

MULLIKEN ATOMIC CHARGES
-----------------------
   0 C :    0.178849
   1 O :   -0.353150
   2 C :   -0.198570
   3 C :   -0.205701
   4 H :    0.129537
   5 H :    0.151011
   6 H :    0.156808
   7 H :    0.141217
Sum of atomic charges:   -0.0000000

LOEWDIN ATOMIC CHARGES
----------------------
   0 C :    0.155564
   1 O :   -0.262646
   2 C :   -0.149161
   3 C :   -0.117081
   4 H :    0.075559
   5 H :    0.095421
   6 H :    0.111613
   7 H :    0.090732

  Mayer bond orders larger than 0.100000
B(  0-C ,  1-O ) :   1.9261 B(  0-C ,  2-C ) :   1.0212 B(  0-C ,  4-H ) :   0.9080
B(  2-C ,  3-C ) :   1.9554 B(  2-C ,  5-H ) :   0.9532 B(  3-C ,  6-H ) :   0.9589
B(  3-C ,  7-H ) :   0.9644

-----------------------------------------------------------------------------
         ABSORPTION SPECTRUM VIA TRANSITION ELECTRIC DIPOLE MOMENTS
-----------------------------------------------------------------------------
State   Energy    Wavelength  fosc         T2        TX        TY        TZ
        (cm-1)      (nm)                 (au**2)    (au)      (au)      (au)
-----------------------------------------------------------------------------
   1   33658.3    297.1   0.000362481   0.00355   0.05892  -0.00295   0.00805

Dispersion correction           -0.025275127
FINAL SINGLE POINT ENERGY      -189.315237272584

DIPOLE MOMENT
-------------
                                X             Y             Z
Electronic contribution:     -2.16043      -1.66215      -0.93984
Nuclear contribution   :      2.64406       2.51412       1.46700
                        -----------------------------------------
Total Dipole Moment    :      0.48363       0.85197       0.52716
                        -----------------------------------------
Magnitude (a.u.)       :      1.11250
Magnitude (Debye)      :      2.82774

Rotational constants in cm-1:     0.855303     0.185666     0.160177
Rotational constants in MHz : 25641.340711  5566.122103  4801.992177

                             ****ORCA TERMINATED NORMALLY****
TOTAL RUN TIME: 0 days 0 hours 0 minutes 15 seconds 520 msec
