                         Program Version 5.0.3 -  RELEASE  -
|  1> ! B3LYP cc-pVDZ
|  2> !TightSCF
|  3> %scf
|  4>  ConvForced true
|  5>  convergence tight
|  6>  MaxIter 500
|  7> end
|  8>
|  9> %tddft
| 10>  nroots 1
| 11> end
| 12>
| 13> # 	23246
| 14> * xyz 0 1
| 15> 		C   -0.521127  -0.421236   0.030592
| 16> 		O   -0.535820  -1.613293  -0.002029
| 17> 		C    0.602790   0.473217  -0.037742
| 18> 		C    1.749729  -0.206455  -0.009925
| 19> 		H   -1.492321   0.135902  -0.102520
| 20> 		H    0.468299   1.581900   0.178912
| 21> 		H    1.837227  -1.311930   0.047517
| 22> 		H    2.842187   0.307398   0.126853
| 23> *
| 24>
| 25>                          ****END OF INPUT****

CARTESIAN COORDINATES (ANGSTROEM)
---------------------------------
  C     -0.521127   -0.421236    0.030592
  O     -0.535820   -1.613293   -0.002029
  C      0.602790    0.473217   -0.037742
  C      1.749729   -0.206455   -0.009925
  H     -1.492321    0.135902   -0.102520
  H      0.468299    1.581900    0.178912
  H      1.837227   -1.311930    0.047517
  H      2.842187    0.307398    0.126853

 Total Charge           Charge          ....    0
 Multiplicity           Mult            ....    1
 Number of Electrons    NEL             ....   30
 Basis Dimension        Dim             ....   76

ORBITAL ENERGIES
----------------

  NO   OCC          E(Eh)            E(eV)
   0   2.0000     -19.133997      -520.6625
   1   2.0000     -10.267952      -279.4052
   2   2.0000     -10.228056      -278.3196
   3   2.0000     -10.208400      -277.7847
   4   2.0000      -1.054533       -28.6953
   5   2.0000      -0.803919       -21.8758
   6   2.0000      -0.650307       -17.6958
   7   2.0000      -0.533938       -14.5292
   8   2.0000      -0.504852       -13.7377
   9   2.0000      -0.453559       -12.3420
  10   2.0000      -0.419125       -11.4050
  11   2.0000      -0.400864       -10.9081
  12   2.0000      -0.368482       -10.0269
  13   2.0000      -0.291235        -7.9249
  14   2.0000      -0.251506        -6.8438
  15   0.0000      -0.070493        -1.9182
  16   0.0000       0.050490         1.3739
  17   0.0000       0.063819         1.7366
  18   0.0000       0.085465         2.3256
  19   0.0000       0.123677         3.3654

MULLIKEN ATOMIC CHARGES
-----------------------
   0 C :    0.187722
   1 O :   -0.182672
   2 C :   -0.116301
   3 C :    0.020979
   4 H :   -0.040631
   5 H :    0.026557
   6 H :    0.059134
   7 H :    0.045212
Sum of atomic charges:    0.0000000

LOEWDIN ATOMIC CHARGES
----------------------
   0 C :   -0.059773
   1 O :    0.008392
   2 C :   -0.098036
   3 C :    0.034868
   4 H :   -0.014054
   5 H :    0.047158
   6 H :    0.038074
   7 H :    0.043372

  Mayer bond orders larger than 0.100000
B(  0-C ,  1-O ) :   2.2009 B(  0-C ,  2-C ) :   1.0708 B(  0-C ,  4-H ) :   0.9161
B(  2-C ,  3-C ) :   1.9158 B(  2-C ,  5-H ) :   0.9450 B(  3-C ,  6-H ) :   0.9325
B(  3-C ,  7-H ) :   0.9477

-----------------------------------------------------------------------------
         ABSORPTION SPECTRUM VIA TRANSITION ELECTRIC DIPOLE MOMENTS
-----------------------------------------------------------------------------
State   Energy    Wavelength  fosc         T2        TX        TY        TZ
        (cm-1)      (nm)                 (au**2)    (au)      (au)      (au)
-----------------------------------------------------------------------------
   1   27286.2    366.5   0.000261110   0.00315   0.03293   0.00764   0.04480

FINAL SINGLE POINT ENERGY      -191.662110896995

DIPOLE MOMENT
-------------
                                X             Y             Z
Electronic contribution:     -1.79228      -1.62218      -0.13220
Nuclear contribution   :      2.27176       2.45618       0.23421
                        -----------------------------------------
Total Dipole Moment    :      0.47948       0.83400       0.10201
                        -----------------------------------------
Magnitude (a.u.)       :      0.96741
Magnitude (Debye)      :      2.45895

Rotational constants in cm-1:     0.719511     0.231159     0.175282
Rotational constants in MHz : 21570.393192  6929.974203  5254.833863

                             ****ORCA TERMINATED NORMALLY****
TOTAL RUN TIME: 0 days 0 hours 3 minutes 22 seconds 403 msec
