                         Program Version 5.0.3 -  RELEASE  -
|  1> ! B3LYP cc-pVDZ
|  2> !TightSCF
|  3> %scf
|  4>  ConvForced true
|  5>  convergence tight
|  6>  MaxIter 500
|  7> end
|  8>
|  9> %tddft
| 10>  nroots 1
| 11> end
| 12>
| 13> # 	26664
| 14> * xyz 0 1
| 15> 		C   -0.645924  -0.402805  -0.079348
| 16> 		O   -0.551874  -1.627126   0.043785
| 17> 		C    0.644555   0.390401   0.036021
| 18> 		C    1.843311  -0.144727  -0.026751
| 19> 		H   -1.582165   0.139529   0.039170
| 20> 		H    0.438001   1.433691   0.100701
| 21> 		H    2.167038  -1.137300  -0.224849
| 22> 		H    2.728497   0.556755   0.246269
| 23> *
| 24>
| 25>                          ****END OF INPUT****

CARTESIAN COORDINATES (ANGSTROEM)
---------------------------------
  C     -0.645924   -0.402805   -0.079348
  O     -0.551874   -1.627126    0.043785
  C      0.644555    0.390401    0.036021
  C      1.843311   -0.144727   -0.026751
  H     -1.582165    0.139529    0.039170
  H      0.438001    1.433691    0.100701
  H      2.167038   -1.137300   -0.224849
  H      2.728497    0.556755    0.246269

 Total Charge           Charge          ....    0
 Multiplicity           Mult            ....    1
 Number of Electrons    NEL             ....   30
 Basis Dimension        Dim             ....   76

ORBITAL ENERGIES
----------------

  NO   OCC          E(Eh)            E(eV)
   0   2.0000     -19.137324      -520.7531
   1   2.0000     -10.275368      -279.6070
   2   2.0000     -10.211402      -277.8664
   3   2.0000     -10.201078      -277.5854
   4   2.0000      -1.033149       -28.1134
   5   2.0000      -0.790008       -21.4972
   6   2.0000      -0.655652       -17.8412
   7   2.0000      -0.551558       -15.0087
   8   2.0000      -0.497496       -13.5376
   9   2.0000      -0.454360       -12.3638
  10   2.0000      -0.421655       -11.4738
  11   2.0000      -0.392037       -10.6679
  12   2.0000      -0.370384       -10.0787
  13   2.0000      -0.285101        -7.7580
  14   2.0000      -0.252254        -6.8642
  15   0.0000      -0.069445        -1.8897
  16   0.0000       0.047014         1.2793
  17   0.0000       0.066812         1.8180
  18   0.0000       0.092373         2.5136
  19   0.0000       0.121729         3.3124

MULLIKEN ATOMIC CHARGES
-----------------------
   0 C :    0.184908
   1 O :   -0.207182
   2 C :   -0.082765
   3 C :    0.063301
   4 H :   -0.008538
   5 H :   -0.018098
   6 H :    0.028658
   7 H :    0.039716
Sum of atomic charges:   -0.0000000

LOEWDIN ATOMIC CHARGES
----------------------
   0 C :   -0.010528
   1 O :   -0.022506
   2 C :   -0.076312
   3 C :    0.018481
   4 H :   -0.002704
   5 H :    0.020736
   6 H :    0.025901
   7 H :    0.046932

  Mayer bond orders larger than 0.100000
B(  0-C ,  1-O ) :   2.1638 B(  0-C ,  2-C ) :   1.0547 B(  0-C ,  4-H ) :   0.9194
B(  2-C ,  3-C ) :   1.9818 B(  2-C ,  5-H ) :   0.9366 B(  3-C ,  6-H ) :   0.9461
B(  3-C ,  7-H ) :   0.9372

-----------------------------------------------------------------------------
         ABSORPTION SPECTRUM VIA TRANSITION ELECTRIC DIPOLE MOMENTS
-----------------------------------------------------------------------------
State   Energy    Wavelength  fosc         T2        TX        TY        TZ
        (cm-1)      (nm)                 (au**2)    (au)      (au)      (au)
-----------------------------------------------------------------------------
   1   26603.1    375.9   0.000084673   0.00105  -0.02605  -0.00314   0.01896

FINAL SINGLE POINT ENERGY      -191.671369892799

DIPOLE MOMENT
-------------
                                X             Y             Z
Electronic contribution:     -2.10019      -1.83555      -0.19567
Nuclear contribution   :      2.36381       2.71620       0.15053
                        -----------------------------------------
Total Dipole Moment    :      0.26362       0.88065      -0.04514
                        -----------------------------------------
Magnitude (a.u.)       :      0.92037
Magnitude (Debye)      :      2.33940

Rotational constants in cm-1:     0.737093     0.210068     0.164288
Rotational constants in MHz : 22097.504375  6297.689039  4925.228128

                             ****ORCA TERMINATED NORMALLY****
TOTAL RUN TIME: 0 days 0 hours 3 minutes 12 seconds 28 msec
