                         Program Version 5.0.3 -  RELEASE  -
|  1> ! HF-3c
|  2> !TightSCF
|  3> %scf
|  4>  ConvForced true
|  5>  convergence tight
|  6>  MaxIter 500
|  7> end
|  8>
|  9> %tddft
| 10>  nroots 1
| 11> end
| 12>
| 13> # 	29176
| 14> * xyz 0 1
| 15> 		C   -0.603565  -0.431026   0.044753
| 16> 		O   -0.532494  -1.635199  -0.022404
| 17> 		C    0.641042   0.452011  -0.020556
| 18> 		C    1.785580  -0.157686   0.030958
| 19> 		H   -1.594921   0.172962  -0.094683
| 20> 		H    0.528795   1.613816  -0.018865
| 21> 		H    1.882127  -1.263113   0.048134
| 22> 		H    2.882211   0.330379  -0.250318
| 23> *
| 24>
| 25>                          ****END OF INPUT****

CARTESIAN COORDINATES (ANGSTROEM)
---------------------------------
  C     -0.603565   -0.431026    0.044753
  O     -0.532494   -1.635199   -0.022404
  C      0.641042    0.452011   -0.020556
  C      1.785580   -0.157686    0.030958
  H     -1.594921    0.172962   -0.094683
  H      0.528795    1.613816   -0.018865
  H      1.882127   -1.263113    0.048134
  H      2.882211    0.330379   -0.250318

 Total Charge           Charge          ....    0
 Multiplicity           Mult            ....    1
 Number of Electrons    NEL             ....   30
 Basis Dimension        Dim             ....   24

ORBITAL ENERGIES
----------------

  NO   OCC          E(Eh)            E(eV)
   0   2.0000     -20.363206      -554.1110
   1   2.0000     -11.292076      -307.2730
   2   2.0000     -11.179247      -304.2028
   3   2.0000     -11.178250      -304.1757
   4   2.0000      -1.401005       -38.1233
   5   2.0000      -1.068188       -29.0669
   6   2.0000      -0.859989       -23.4015
   7   2.0000      -0.722141       -19.6505
   8   2.0000      -0.682239       -18.5647
   9   2.0000      -0.608587       -16.5605
  10   2.0000      -0.571292       -15.5456
  11   2.0000      -0.538344       -14.6491
  12   2.0000      -0.497625       -13.5411
  13   2.0000      -0.401897       -10.9362
  14   2.0000      -0.393966       -10.7204
  15   0.0000       0.148004         4.0274
  16   0.0000       0.307571         8.3694
  17   0.0000       0.471687        12.8353
  18   0.0000       0.558882        15.2080
  19   0.0000       0.595801        16.2126

MULLIKEN ATOMIC CHARGES
-----------------------
   0 C :    0.182145
   1 O :   -0.362731
   2 C :   -0.185872
   3 C :   -0.206971
   4 H :    0.133687
   5 H :    0.144559
   6 H :    0.153068
   7 H :    0.142116
Sum of atomic charges:   -0.0000000

LOEWDIN ATOMIC CHARGES
----------------------
   0 C :    0.156363
   1 O :   -0.266060
   2 C :   -0.148265
   3 C :   -0.120154
   4 H :    0.075776
   5 H :    0.099191
   6 H :    0.100802
   7 H :    0.102347

  Mayer bond orders larger than 0.100000
B(  0-C ,  1-O ) :   1.9229 B(  0-C ,  2-C ) :   0.9930 B(  0-C ,  4-H ) :   0.9162
B(  2-C ,  3-C ) :   1.9683 B(  2-C ,  5-H ) :   0.9541 B(  3-C ,  6-H ) :   0.9545
B(  3-C ,  7-H ) :   0.9572

-----------------------------------------------------------------------------
         ABSORPTION SPECTRUM VIA TRANSITION ELECTRIC DIPOLE MOMENTS
-----------------------------------------------------------------------------
State   Energy    Wavelength  fosc         T2        TX        TY        TZ
        (cm-1)      (nm)                 (au**2)    (au)      (au)      (au)
-----------------------------------------------------------------------------
   1   33808.1    295.8   0.000272692   0.00266  -0.04929  -0.00362  -0.01458

Dispersion correction           -0.025489327
FINAL SINGLE POINT ENERGY      -189.313563246755

DIPOLE MOMENT
-------------
                                X             Y             Z
Electronic contribution:     -2.03028      -1.64505       0.26101
Nuclear contribution   :      2.31223       2.58760      -0.29559
                        -----------------------------------------
Total Dipole Moment    :      0.28196       0.94255      -0.03458
                        -----------------------------------------
Magnitude (a.u.)       :      0.98442
Magnitude (Debye)      :      2.50221

Rotational constants in cm-1:     0.714537     0.217356     0.167067
Rotational constants in MHz : 21421.268593  6516.176674  5008.543485

                             ****ORCA TERMINATED NORMALLY****
TOTAL RUN TIME: 0 days 0 hours 0 minutes 16 seconds 65 msec
