                         Program Version 5.0.3 -  RELEASE  -
|  1> ! HF-3c
|  2> !TightSCF
|  3> %scf
|  4>  ConvForced true
|  5>  convergence tight
|  6>  MaxIter 500
|  7> end
|  8>
|  9> %tddft
| 10>  nroots 1
| 11> end
| 12>
| 13> # 	5970
| 14> * xyz 0 1
| 15> 		C   -1.263630  -0.266184  -0.024163
| 16> 		O   -1.655451  -0.978189  -0.845945
| 17> 		C   -0.020230   0.531569  -0.212809
| 18> 		C    1.200803   0.006893   0.130305
| 19> 		H   -1.500537  -0.448641   1.020496
| 20> 		H   -0.195768   1.387180  -0.842955
| 21> 		H    1.254899  -0.970258   0.724727
| 22> 		H    2.233676   0.720483   0.077997
| 23> *
| 24>
| 25>                          ****END OF INPUT****

CARTESIAN COORDINATES (ANGSTROEM)
---------------------------------
  C     -1.263630   -0.266184   -0.024163
  O     -1.655451   -0.978189   -0.845945
  C     -0.020230    0.531569   -0.212809
  C      1.200803    0.006893    0.130305
  H     -1.500537   -0.448641    1.020496
  H     -0.195768    1.387180   -0.842955
  H      1.254899   -0.970258    0.724727
  H      2.233676    0.720483    0.077997

 Total Charge           Charge          ....    0
 Multiplicity           Mult            ....    1
 Number of Electrons    NEL             ....   30
 Basis Dimension        Dim             ....   24

ORBITAL ENERGIES
----------------

  NO   OCC          E(Eh)            E(eV)
   0   2.0000     -20.391896      -554.8917
   1   2.0000     -11.309715      -307.7530
   2   2.0000     -11.175580      -304.1030
   3   2.0000     -11.174050      -304.0614
   4   2.0000      -1.451742       -39.5039
   5   2.0000      -1.055281       -28.7157
   6   2.0000      -0.863310       -23.4919
   7   2.0000      -0.772840       -21.0300
   8   2.0000      -0.673329       -18.3222
   9   2.0000      -0.630739       -17.1633
  10   2.0000      -0.599492       -16.3130
  11   2.0000      -0.530010       -14.4223
  12   2.0000      -0.524318       -14.2674
  13   2.0000      -0.402747       -10.9593
  14   2.0000      -0.381149       -10.3716
  15   0.0000       0.178936         4.8691
  16   0.0000       0.228443         6.2163
  17   0.0000       0.498612        13.5679
  18   0.0000       0.564038        15.3483
  19   0.0000       0.637541        17.3484

MULLIKEN ATOMIC CHARGES
-----------------------
   0 C :    0.175659
   1 O :   -0.347771
   2 C :   -0.178061
   3 C :   -0.211051
   4 H :    0.134778
   5 H :    0.145939
   6 H :    0.134607
   7 H :    0.145900
Sum of atomic charges:   -0.0000000

LOEWDIN ATOMIC CHARGES
----------------------
   0 C :    0.145907
   1 O :   -0.232389
   2 C :   -0.137161
   3 C :   -0.136908
   4 H :    0.067749
   5 H :    0.094042
   6 H :    0.090474
   7 H :    0.108286

  Mayer bond orders larger than 0.100000
B(  0-C ,  1-O ) :   1.9481 B(  0-C ,  2-C ) :   0.9760 B(  0-C ,  4-H ) :   0.9161
B(  2-C ,  3-C ) :   1.9893 B(  2-C ,  5-H ) :   0.9550 B(  3-C ,  6-H ) :   0.9631
B(  3-C ,  7-H ) :   0.9558

-----------------------------------------------------------------------------
         ABSORPTION SPECTRUM VIA TRANSITION ELECTRIC DIPOLE MOMENTS
-----------------------------------------------------------------------------
State   Energy    Wavelength  fosc         T2        TX        TY        TZ
        (cm-1)      (nm)                 (au**2)    (au)      (au)      (au)
-----------------------------------------------------------------------------
   1   35665.2    280.4   0.000820572   0.00757   0.06634   0.03136  -0.04679

Dispersion correction           -0.025160139
FINAL SINGLE POINT ENERGY      -189.278973329329

DIPOLE MOMENT
-------------
                                X             Y             Z
Electronic contribution:     -2.81389      -0.91877      -1.18760
Nuclear contribution   :      3.38244       1.41698       1.83635
                        -----------------------------------------
Total Dipole Moment    :      0.56856       0.49821       0.64874
                        -----------------------------------------
Magnitude (a.u.)       :      0.99616
Magnitude (Debye)      :      2.53204

Rotational constants in cm-1:     0.961991     0.171512     0.163869
Rotational constants in MHz : 28839.763006  5141.814708  4912.673559

                             ****ORCA TERMINATED NORMALLY****
TOTAL RUN TIME: 0 days 0 hours 0 minutes 10 seconds 961 msec
