                         Program Version 5.0.3 -  RELEASE  -
|  1> ! B3LYP cc-pVDZ
|  2> !TightSCF
|  3> %scf
|  4>  ConvForced true
|  5>  convergence tight
|  6>  MaxIter 500
|  7> end
|  8>
|  9> %tddft
| 10>  nroots 1
| 11> end
| 12>
| 13> # 	6523
| 14> * xyz 0 1
| 15> 		C   -1.222022  -0.301669  -0.014566
| 16> 		O   -1.244687  -1.536575   0.220102
| 17> 		C   -0.048294   0.495402   0.040583
| 18> 		C    1.239114   0.005517  -0.092504
| 19> 		H   -2.103217   0.387236  -0.288916
| 20> 		H   -0.255368   1.547936   0.155174
| 21> 		H    1.379681  -1.165172  -0.121674
| 22> 		H    2.249747   0.541761   0.114367
| 23> *
| 24>
| 25>                          ****END OF INPUT****

CARTESIAN COORDINATES (ANGSTROEM)
---------------------------------
  C     -1.222022   -0.301669   -0.014566
  O     -1.244687   -1.536575    0.220102
  C     -0.048294    0.495402    0.040583
  C      1.239114    0.005517   -0.092504
  H     -2.103217    0.387236   -0.288916
  H     -0.255368    1.547936    0.155174
  H      1.379681   -1.165172   -0.121674
  H      2.249747    0.541761    0.114367

 Total Charge           Charge          ....    0
 Multiplicity           Mult            ....    1
 Number of Electrons    NEL             ....   30
 Basis Dimension        Dim             ....   76

ORBITAL ENERGIES
----------------

  NO   OCC          E(Eh)            E(eV)
   0   2.0000     -19.140852      -520.8491
   1   2.0000     -10.278785      -279.7000
   2   2.0000     -10.237567      -278.5784
   3   2.0000     -10.210688      -277.8469
   4   2.0000      -1.021806       -27.8048
   5   2.0000      -0.793835       -21.6013
   6   2.0000      -0.666838       -18.1456
   7   2.0000      -0.535010       -14.5584
   8   2.0000      -0.498594       -13.5674
   9   2.0000      -0.443634       -12.0719
  10   2.0000      -0.422948       -11.5090
  11   2.0000      -0.382526       -10.4091
  12   2.0000      -0.370746       -10.0885
  13   2.0000      -0.282961        -7.6998
  14   2.0000      -0.258355        -7.0302
  15   0.0000      -0.085167        -2.3175
  16   0.0000       0.047629         1.2960
  17   0.0000       0.060409         1.6438
  18   0.0000       0.073536         2.0010
  19   0.0000       0.119902         3.2627

MULLIKEN ATOMIC CHARGES
-----------------------
   0 C :    0.175075
   1 O :   -0.224083
   2 C :   -0.054598
   3 C :   -0.017033
   4 H :   -0.006311
   5 H :   -0.006353
   6 H :    0.069033
   7 H :    0.064270
Sum of atomic charges:    0.0000000

LOEWDIN ATOMIC CHARGES
----------------------
   0 C :   -0.026070
   1 O :   -0.041574
   2 C :   -0.081461
   3 C :    0.015791
   4 H :    0.006192
   5 H :    0.028587
   6 H :    0.051646
   7 H :    0.046889

  Mayer bond orders larger than 0.100000
B(  0-C ,  1-O ) :   2.1306 B(  0-C ,  2-C ) :   1.1165 B(  0-C ,  4-H ) :   0.9041
B(  1-O ,  3-C ) :   0.1089 B(  2-C ,  3-C ) :   1.8978 B(  2-C ,  5-H ) :   0.9438
B(  3-C ,  6-H ) :   0.9341 B(  3-C ,  7-H ) :   0.9476

-----------------------------------------------------------------------------
         ABSORPTION SPECTRUM VIA TRANSITION ELECTRIC DIPOLE MOMENTS
-----------------------------------------------------------------------------
State   Energy    Wavelength  fosc         T2        TX        TY        TZ
        (cm-1)      (nm)                 (au**2)    (au)      (au)      (au)
-----------------------------------------------------------------------------
   1   25248.8    396.1   0.000061822   0.00081   0.00417  -0.00568  -0.02750

FINAL SINGLE POINT ENERGY      -191.673201168079

DIPOLE MOMENT
-------------
                                X             Y             Z
Electronic contribution:     -1.94666      -1.67037       0.18734
Nuclear contribution   :      2.45117       2.61028      -0.30249
                        -----------------------------------------
Total Dipole Moment    :      0.50451       0.93991      -0.11515
                        -----------------------------------------
Magnitude (a.u.)       :      1.07295
Magnitude (Debye)      :      2.72723

Rotational constants in cm-1:     0.726930     0.203618     0.160548
Rotational constants in MHz : 21792.807560  6104.319325  4813.112611

                             ****ORCA TERMINATED NORMALLY****
TOTAL RUN TIME: 0 days 0 hours 3 minutes 11 seconds 400 msec
