                         Program Version 5.0.3 -  RELEASE  -
|  1> ! B3LYP cc-pVDZ
|  2> !TightSCF
|  3> %scf
|  4>  ConvForced true
|  5>  convergence tight
|  6>  MaxIter 500
|  7> end
|  8>
|  9> %tddft
| 10>  nroots 1
| 11> end
| 12>
| 13> # 	16540
| 14> * xyz 0 1
| 15> 		C   -1.168837  -0.337009  -0.007180
| 16> 		O   -1.154625  -1.520188  -0.035770
| 17> 		C    0.031267   0.540373  -0.054497
| 18> 		C    1.225270  -0.023229  -0.071037
| 19> 		H   -2.241508   0.226199  -0.026592
| 20> 		H   -0.010612   1.574421  -0.110237
| 21> 		H    1.255247  -1.102852   0.220804
| 22> 		H    2.032167   0.603489   0.074889
| 23> *
| 24>
| 25>                          ****END OF INPUT****

CARTESIAN COORDINATES (ANGSTROEM)
---------------------------------
  C     -1.168837   -0.337009   -0.007180
  O     -1.154625   -1.520188   -0.035770
  C      0.031267    0.540373   -0.054497
  C      1.225270   -0.023229   -0.071037
  H     -2.241508    0.226199   -0.026592
  H     -0.010612    1.574421   -0.110237
  H      1.255247   -1.102852    0.220804
  H      2.032167    0.603489    0.074889

 Total Charge           Charge          ....    0
 Multiplicity           Mult            ....    1
 Number of Electrons    NEL             ....   30
 Basis Dimension        Dim             ....   76

ORBITAL ENERGIES
----------------

  NO   OCC          E(Eh)            E(eV)
   0   2.0000     -19.143158      -520.9118
   1   2.0000     -10.281980      -279.7869
   2   2.0000     -10.203370      -277.6478
   3   2.0000     -10.198418      -277.5131
   4   2.0000      -1.065754       -29.0006
   5   2.0000      -0.804052       -21.8794
   6   2.0000      -0.648435       -17.6448
   7   2.0000      -0.539772       -14.6880
   8   2.0000      -0.516287       -14.0489
   9   2.0000      -0.448231       -12.1970
  10   2.0000      -0.422340       -11.4925
  11   2.0000      -0.410072       -11.1586
  12   2.0000      -0.386133       -10.5072
  13   2.0000      -0.293601        -7.9893
  14   2.0000      -0.256832        -6.9887
  15   0.0000      -0.067690        -1.8419
  16   0.0000       0.060555         1.6478
  17   0.0000       0.071016         1.9324
  18   0.0000       0.092238         2.5099
  19   0.0000       0.121932         3.3179

MULLIKEN ATOMIC CHARGES
-----------------------
   0 C :    0.147689
   1 O :   -0.159970
   2 C :   -0.081585
   3 C :    0.093239
   4 H :   -0.023343
   5 H :   -0.032508
   6 H :    0.043963
   7 H :    0.012516
Sum of atomic charges:    0.0000000

LOEWDIN ATOMIC CHARGES
----------------------
   0 C :   -0.051800
   1 O :    0.024558
   2 C :   -0.068912
   3 C :    0.029320
   4 H :   -0.008623
   5 H :    0.015865
   6 H :    0.041913
   7 H :    0.017679

  Mayer bond orders larger than 0.100000
B(  0-C ,  1-O ) :   2.2219 B(  0-C ,  2-C ) :   1.0202 B(  0-C ,  4-H ) :   0.8980
B(  2-C ,  3-C ) :   1.9793 B(  2-C ,  5-H ) :   0.9521 B(  3-C ,  6-H ) :   0.9321
B(  3-C ,  7-H ) :   0.9369

-----------------------------------------------------------------------------
         ABSORPTION SPECTRUM VIA TRANSITION ELECTRIC DIPOLE MOMENTS
-----------------------------------------------------------------------------
State   Energy    Wavelength  fosc         T2        TX        TY        TZ
        (cm-1)      (nm)                 (au**2)    (au)      (au)      (au)
-----------------------------------------------------------------------------
   1   28988.6    345.0   0.000231831   0.00263  -0.02355   0.00222   0.04553

FINAL SINGLE POINT ENERGY      -191.659421533969

DIPOLE MOMENT
-------------
                                X             Y             Z
Electronic contribution:     -1.64698      -1.74923      -0.19295
Nuclear contribution   :      2.05467       2.59919       0.28333
                        -----------------------------------------
Total Dipole Moment    :      0.40769       0.84996       0.09038
                        -----------------------------------------
Magnitude (a.u.)       :      0.94700
Magnitude (Debye)      :      2.40708

Rotational constants in cm-1:     0.777455     0.214493     0.168465
Rotational constants in MHz : 23307.526522  6430.338302  5050.463700

                             ****ORCA TERMINATED NORMALLY****
TOTAL RUN TIME: 0 days 0 hours 3 minutes 27 seconds 8 msec
