                         Program Version 5.0.3 -  RELEASE  -
|  1> ! HF-3c
|  2> !TightSCF
|  3> %scf
|  4>  ConvForced true
|  5>  convergence tight
|  6>  MaxIter 500
|  7> end
|  8>
|  9> %tddft
| 10>  nroots 1
| 11> end
| 12>
| 13> # 	2740
| 14> * xyz 0 1
| 15> 		C   -1.166109  -0.302986   0.051671
| 16> 		O   -1.196279  -1.496024  -0.118249
| 17> 		C    0.058385   0.489071  -0.069649
| 18> 		C    1.226904  -0.006662  -0.012140
| 19> 		H   -2.235077   0.287745   0.208416
| 20> 		H   -0.180966   1.514499  -0.342005
| 21> 		H    1.534620  -1.022355   0.295968
| 22> 		H    1.929262   0.531635  -0.009363
| 23> *
| 24>
| 25>                          ****END OF INPUT****

CARTESIAN COORDINATES (ANGSTROEM)
---------------------------------
  C     -1.166109   -0.302986    0.051671
  O     -1.196279   -1.496024   -0.118249
  C      0.058385    0.489071   -0.069649
  C      1.226904   -0.006662   -0.012140
  H     -2.235077    0.287745    0.208416
  H     -0.180966    1.514499   -0.342005
  H      1.534620   -1.022355    0.295968
  H      1.929262    0.531635   -0.009363

 Total Charge           Charge          ....    0
 Multiplicity           Mult            ....    1
 Number of Electrons    NEL             ....   30
 Basis Dimension        Dim             ....   24

ORBITAL ENERGIES
----------------

  NO   OCC          E(Eh)            E(eV)
   0   2.0000     -20.366498      -554.2006
   1   2.0000     -11.293242      -307.3047
   2   2.0000     -11.208691      -305.0040
   3   2.0000     -11.205450      -304.9158
   4   2.0000      -1.405461       -38.2445
   5   2.0000      -1.114422       -30.3250
   6   2.0000      -0.913916       -24.8689
   7   2.0000      -0.751356       -20.4454
   8   2.0000      -0.713602       -19.4181
   9   2.0000      -0.644248       -17.5309
  10   2.0000      -0.604083       -16.4379
  11   2.0000      -0.549419       -14.9504
  12   2.0000      -0.531823       -14.4716
  13   2.0000      -0.420802       -11.4506
  14   2.0000      -0.405671       -11.0389
  15   0.0000       0.137125         3.7314
  16   0.0000       0.310630         8.4527
  17   0.0000       0.484042        13.1714
  18   0.0000       0.588607        16.0168
  19   0.0000       0.677195        18.4274

MULLIKEN ATOMIC CHARGES
-----------------------
   0 C :    0.181302
   1 O :   -0.352560
   2 C :   -0.160075
   3 C :   -0.267881
   4 H :    0.132499
   5 H :    0.151973
   6 H :    0.171684
   7 H :    0.143058
Sum of atomic charges:    0.0000000

LOEWDIN ATOMIC CHARGES
----------------------
   0 C :    0.146563
   1 O :   -0.255201
   2 C :   -0.108524
   3 C :   -0.155251
   4 H :    0.079486
   5 H :    0.097836
   6 H :    0.117270
   7 H :    0.077821

  Mayer bond orders larger than 0.100000
B(  0-C ,  1-O ) :   1.9173 B(  0-C ,  2-C ) :   1.0162 B(  0-C ,  4-H ) :   0.9126
B(  2-C ,  3-C ) :   1.9674 B(  2-C ,  5-H ) :   0.9523 B(  3-C ,  6-H ) :   0.9527
B(  3-C ,  7-H ) :   0.9665

-----------------------------------------------------------------------------
         ABSORPTION SPECTRUM VIA TRANSITION ELECTRIC DIPOLE MOMENTS
-----------------------------------------------------------------------------
State   Energy    Wavelength  fosc         T2        TX        TY        TZ
        (cm-1)      (nm)                 (au**2)    (au)      (au)      (au)
-----------------------------------------------------------------------------
   1   32349.8    309.1   0.000010632   0.00011  -0.00841   0.00469  -0.00394

Dispersion correction           -0.025921974
FINAL SINGLE POINT ENERGY      -189.278794883497

DIPOLE MOMENT
-------------
                                X             Y             Z
Electronic contribution:     -1.92023      -1.67899      -0.13702
Nuclear contribution   :      2.08435       2.58308       0.28288
                        -----------------------------------------
Total Dipole Moment    :      0.16412       0.90408       0.14586
                        -----------------------------------------
Magnitude (a.u.)       :      0.93037
Magnitude (Debye)      :      2.36480

Rotational constants in cm-1:     0.793141     0.212431     0.169143
Rotational constants in MHz : 23777.777053  6368.519053  5070.780059

                             ****ORCA TERMINATED NORMALLY****
TOTAL RUN TIME: 0 days 0 hours 0 minutes 8 seconds 905 msec
