                         Program Version 5.0.3 -  RELEASE  -
|  1> ! B3LYP cc-pVDZ
|  2> !TightSCF
|  3> %scf
|  4>  ConvForced true
|  5>  convergence tight
|  6>  MaxIter 500
|  7> end
|  8>
|  9> %tddft
| 10>  nroots 1
| 11> end
| 12>
| 13> # 	23663
| 14> * xyz 0 1
| 15> 		C   -0.612896  -0.409555  -0.052142
| 16> 		O   -0.559389  -1.649866   0.043537
| 17> 		C    0.605293   0.465646   0.081054
| 18> 		C    1.874094  -0.158010  -0.045713
| 19> 		H   -1.562027   0.009970  -0.499888
| 20> 		H    0.495424   1.407315   0.219509
| 21> 		H    2.004855  -1.175457  -0.129218
| 22> 		H    2.640828   0.406169  -0.065182
| 23> *
| 24>
| 25>                          ****END OF INPUT****

CARTESIAN COORDINATES (ANGSTROEM)
---------------------------------
  C     -0.612896   -0.409555   -0.052142
  O     -0.559389   -1.649866    0.043537
  C      0.605293    0.465646    0.081054
  C      1.874094   -0.158010   -0.045713
  H     -1.562027    0.009970   -0.499888
  H      0.495424    1.407315    0.219509
  H      2.004855   -1.175457   -0.129218
  H      2.640828    0.406169   -0.065182

 Total Charge           Charge          ....    0
 Multiplicity           Mult            ....    1
 Number of Electrons    NEL             ....   30
 Basis Dimension        Dim             ....   76

ORBITAL ENERGIES
----------------

  NO   OCC          E(Eh)            E(eV)
   0   2.0000     -19.133666      -520.6535
   1   2.0000     -10.277481      -279.6645
   2   2.0000     -10.207340      -277.7559
   3   2.0000     -10.206065      -277.7211
   4   2.0000      -1.023733       -27.8572
   5   2.0000      -0.788584       -21.4585
   6   2.0000      -0.668216       -18.1831
   7   2.0000      -0.562657       -15.3107
   8   2.0000      -0.513993       -13.9865
   9   2.0000      -0.445677       -12.1275
  10   2.0000      -0.425343       -11.5742
  11   2.0000      -0.406456       -11.0602
  12   2.0000      -0.376940       -10.2571
  13   2.0000      -0.276439        -7.5223
  14   2.0000      -0.251272        -6.8375
  15   0.0000      -0.076435        -2.0799
  16   0.0000       0.030106         0.8192
  17   0.0000       0.087399         2.3782
  18   0.0000       0.101012         2.7487
  19   0.0000       0.124110         3.3772

MULLIKEN ATOMIC CHARGES
-----------------------
   0 C :    0.167165
   1 O :   -0.222616
   2 C :   -0.048391
   3 C :    0.174679
   4 H :    0.000292
   5 H :   -0.068397
   6 H :    0.018585
   7 H :   -0.021316
Sum of atomic charges:    0.0000000

LOEWDIN ATOMIC CHARGES
----------------------
   0 C :   -0.011427
   1 O :   -0.043207
   2 C :   -0.025843
   3 C :    0.088184
   4 H :    0.002599
   5 H :   -0.017265
   6 H :    0.019711
   7 H :   -0.012752

  Mayer bond orders larger than 0.100000
B(  0-C ,  1-O ) :   2.1366 B(  0-C ,  2-C ) :   1.0451 B(  0-C ,  4-H ) :   0.9230
B(  2-C ,  3-C ) :   1.9544 B(  2-C ,  5-H ) :   0.9556 B(  3-C ,  6-H ) :   0.9524
B(  3-C ,  7-H ) :   0.9496

-----------------------------------------------------------------------------
         ABSORPTION SPECTRUM VIA TRANSITION ELECTRIC DIPOLE MOMENTS
-----------------------------------------------------------------------------
State   Energy    Wavelength  fosc         T2        TX        TY        TZ
        (cm-1)      (nm)                 (au**2)    (au)      (au)      (au)
-----------------------------------------------------------------------------
   1   25688.0    389.3   0.000062377   0.00080   0.02270   0.00079   0.01684

FINAL SINGLE POINT ENERGY      -191.645254327397

DIPOLE MOMENT
-------------
                                X             Y             Z
Electronic contribution:     -1.79267      -1.44921       0.34555
Nuclear contribution   :      2.20200       2.39573      -0.44587
                        -----------------------------------------
Total Dipole Moment    :      0.40933       0.94652      -0.10032
                        -----------------------------------------
Magnitude (a.u.)       :      1.03610
Magnitude (Debye)      :      2.63356

Rotational constants in cm-1:     0.700262     0.209028     0.162492
Rotational constants in MHz : 20993.322156  6266.504384  4871.386988

                             ****ORCA TERMINATED NORMALLY****
TOTAL RUN TIME: 0 days 0 hours 3 minutes 22 seconds 233 msec
