                         Program Version 5.0.3 -  RELEASE  -
|  1> ! B3LYP cc-pVDZ
|  2> !TightSCF
|  3> %scf
|  4>  ConvForced true
|  5>  convergence tight
|  6>  MaxIter 500
|  7> end
|  8>
|  9> %tddft
| 10>  nroots 1
| 11> end
| 12>
| 13> # 	10831
| 14> * xyz 0 1
| 15> 		C   -1.127993  -0.356864   0.034121
| 16> 		O   -1.488321  -1.154148   0.813105
| 17> 		C    0.063022   0.524447   0.220781
| 18> 		C    1.250865   0.010190  -0.172254
| 19> 		H   -1.912102  -0.054912  -0.807247
| 20> 		H   -0.163409   1.432544   0.474367
| 21> 		H    1.295371  -1.061760  -0.506809
| 22> 		H    2.120510   0.665019  -0.057688
| 23> *
| 24>
| 25>                          ****END OF INPUT****

CARTESIAN COORDINATES (ANGSTROEM)
---------------------------------
  C     -1.127993   -0.356864    0.034121
  O     -1.488321   -1.154148    0.813105
  C      0.063022    0.524447    0.220781
  C      1.250865    0.010190   -0.172254
  H     -1.912102   -0.054912   -0.807247
  H     -0.163409    1.432544    0.474367
  H      1.295371   -1.061760   -0.506809
  H      2.120510    0.665019   -0.057688

 Total Charge           Charge          ....    0
 Multiplicity           Mult            ....    1
 Number of Electrons    NEL             ....   30
 Basis Dimension        Dim             ....   76

ORBITAL ENERGIES
----------------

  NO   OCC          E(Eh)            E(eV)
   0   2.0000     -19.142748      -520.9007
   1   2.0000     -10.278646      -279.6962
   2   2.0000     -10.211986      -277.8823
   3   2.0000     -10.197983      -277.5012
   4   2.0000      -1.072907       -29.1953
   5   2.0000      -0.797404       -21.6985
   6   2.0000      -0.644556       -17.5393
   7   2.0000      -0.556429       -15.1412
   8   2.0000      -0.504973       -13.7410
   9   2.0000      -0.450980       -12.2718
  10   2.0000      -0.444540       -12.0965
  11   2.0000      -0.402179       -10.9439
  12   2.0000      -0.389297       -10.5933
  13   2.0000      -0.284834        -7.7507
  14   2.0000      -0.249223        -6.7817
  15   0.0000      -0.027662        -0.7527
  16   0.0000      -0.009822        -0.2673
  17   0.0000       0.081794         2.2257
  18   0.0000       0.088576         2.4103
  19   0.0000       0.108348         2.9483

MULLIKEN ATOMIC CHARGES
-----------------------
   0 C :    0.111062
   1 O :   -0.145576
   2 C :    0.019169
   3 C :    0.013032
   4 H :   -0.023442
   5 H :   -0.046879
   6 H :    0.040427
   7 H :    0.032208
Sum of atomic charges:   -0.0000000

LOEWDIN ATOMIC CHARGES
----------------------
   0 C :   -0.049830
   1 O :    0.042974
   2 C :   -0.028127
   3 C :   -0.018658
   4 H :   -0.011499
   5 H :   -0.004862
   6 H :    0.039353
   7 H :    0.030649

  Mayer bond orders larger than 0.100000
B(  0-C ,  1-O ) :   2.2578 B(  0-C ,  2-C ) :   0.9888 B(  0-C ,  4-H ) :   0.8902
B(  2-C ,  3-C ) :   2.0137 B(  2-C ,  5-H ) :   0.9493 B(  3-C ,  6-H ) :   0.9406
B(  3-C ,  7-H ) :   0.9472

-----------------------------------------------------------------------------
         ABSORPTION SPECTRUM VIA TRANSITION ELECTRIC DIPOLE MOMENTS
-----------------------------------------------------------------------------
State   Energy    Wavelength  fosc         T2        TX        TY        TZ
        (cm-1)      (nm)                 (au**2)    (au)      (au)      (au)
-----------------------------------------------------------------------------
   1   34306.1    291.5   0.002159558   0.02072  -0.13159   0.04820  -0.03294

FINAL SINGLE POINT ENERGY      -191.617324849643

DIPOLE MOMENT
-------------
                                X             Y             Z
Electronic contribution:     -2.14689      -1.30690       1.28002
Nuclear contribution   :      2.59480       1.93411      -1.70999
                        -----------------------------------------
Total Dipole Moment    :      0.44791       0.62721      -0.42997
                        -----------------------------------------
Magnitude (a.u.)       :      0.88255
Magnitude (Debye)      :      2.24326

Rotational constants in cm-1:     0.929900     0.178916     0.164472
Rotational constants in MHz : 27877.685865  5363.763003  4930.757351

                             ****ORCA TERMINATED NORMALLY****
TOTAL RUN TIME: 0 days 0 hours 3 minutes 20 seconds 678 msec
