                         Program Version 5.0.3 -  RELEASE  -
|  1> ! B3LYP cc-pVDZ
|  2> !TightSCF
|  3> %scf
|  4>  ConvForced true
|  5>  convergence tight
|  6>  MaxIter 500
|  7> end
|  8>
|  9> %tddft
| 10>  nroots 1
| 11> end
| 12>
| 13> # 	6050
| 14> * xyz 0 1
| 15> 		C   -1.210877  -0.423688   0.038189
| 16> 		O   -1.542682  -1.336250  -0.707170
| 17> 		C    0.034825   0.428714  -0.189032
| 18> 		C    1.206274   0.020320   0.141756
| 19> 		H   -1.925334   0.019962   0.906450
| 20> 		H   -0.134783   1.421768  -0.736413
| 21> 		H    1.453252  -0.921180   0.504194
| 22> 		H    2.118468   0.689015  -0.013960
| 23> *
| 24>
| 25>                          ****END OF INPUT****

CARTESIAN COORDINATES (ANGSTROEM)
---------------------------------
  C     -1.210877   -0.423688    0.038189
  O     -1.542682   -1.336250   -0.707170
  C      0.034825    0.428714   -0.189032
  C      1.206274    0.020320    0.141756
  H     -1.925334    0.019962    0.906450
  H     -0.134783    1.421768   -0.736413
  H      1.453252   -0.921180    0.504194
  H      2.118468    0.689015   -0.013960

 Total Charge           Charge          ....    0
 Multiplicity           Mult            ....    1
 Number of Electrons    NEL             ....   30
 Basis Dimension        Dim             ....   76

ORBITAL ENERGIES
----------------

  NO   OCC          E(Eh)            E(eV)
   0   2.0000     -19.153078      -521.1817
   1   2.0000     -10.294645      -280.1315
   2   2.0000     -10.208741      -277.7940
   3   2.0000     -10.197393      -277.4852
   4   2.0000      -1.048113       -28.5206
   5   2.0000      -0.800307       -21.7775
   6   2.0000      -0.643822       -17.5193
   7   2.0000      -0.548099       -14.9145
   8   2.0000      -0.487554       -13.2670
   9   2.0000      -0.456291       -12.4163
  10   2.0000      -0.446848       -12.1593
  11   2.0000      -0.382692       -10.4136
  12   2.0000      -0.374984       -10.2038
  13   2.0000      -0.294925        -8.0253
  14   2.0000      -0.256979        -6.9928
  15   0.0000      -0.041575        -1.1313
  16   0.0000       0.000501         0.0136
  17   0.0000       0.068255         1.8573
  18   0.0000       0.084475         2.2987
  19   0.0000       0.099683         2.7125

MULLIKEN ATOMIC CHARGES
-----------------------
   0 C :    0.143212
   1 O :   -0.179915
   2 C :   -0.100731
   3 C :    0.056865
   4 H :    0.007955
   5 H :    0.036046
   6 H :    0.005052
   7 H :    0.031516
Sum of atomic charges:    0.0000000

LOEWDIN ATOMIC CHARGES
----------------------
   0 C :   -0.010782
   1 O :    0.000447
   2 C :   -0.071883
   3 C :   -0.029605
   4 H :    0.002621
   5 H :    0.051781
   6 H :    0.015619
   7 H :    0.041801

  Mayer bond orders larger than 0.100000
B(  0-C ,  1-O ) :   2.2182 B(  0-C ,  2-C ) :   0.9614 B(  0-C ,  4-H ) :   0.8866
B(  2-C ,  3-C ) :   2.0646 B(  2-C ,  5-H ) :   0.9227 B(  3-C ,  6-H ) :   0.9458
B(  3-C ,  7-H ) :   0.9390

-----------------------------------------------------------------------------
         ABSORPTION SPECTRUM VIA TRANSITION ELECTRIC DIPOLE MOMENTS
-----------------------------------------------------------------------------
State   Energy    Wavelength  fosc         T2        TX        TY        TZ
        (cm-1)      (nm)                 (au**2)    (au)      (au)      (au)
-----------------------------------------------------------------------------
   1   32096.6    311.6   0.000398968   0.00409   0.05834  -0.00440  -0.02586

FINAL SINGLE POINT ENERGY      -191.638512328415

DIPOLE MOMENT
-------------
                                X             Y             Z
Electronic contribution:     -2.48607      -1.76712      -0.92809
Nuclear contribution   :      2.92714       2.44928       1.33190
                        -----------------------------------------
Total Dipole Moment    :      0.44106       0.68216       0.40381
                        -----------------------------------------
Magnitude (a.u.)       :      0.90716
Magnitude (Debye)      :      2.30582

Rotational constants in cm-1:     0.917372     0.171228     0.157736
Rotational constants in MHz : 27502.129276  5133.285652  4728.812753

                             ****ORCA TERMINATED NORMALLY****
TOTAL RUN TIME: 0 days 0 hours 3 minutes 27 seconds 941 msec
