                         Program Version 5.0.3 -  RELEASE  -
|  1> ! HF-3c
|  2> !TightSCF
|  3> %scf
|  4>  ConvForced true
|  5>  convergence tight
|  6>  MaxIter 500
|  7> end
|  8>
|  9> %tddft
| 10>  nroots 1
| 11> end
| 12>
| 13> # 	4735
| 14> * xyz 0 1
| 15> 		C   -1.177962  -0.360259  -0.089994
| 16> 		O   -1.886433  -0.858606  -0.907326
| 17> 		C    0.083406   0.394514  -0.309960
| 18> 		C    1.214281   0.086570   0.259525
| 19> 		H   -1.564024  -0.409302   1.062853
| 20> 		H   -0.033933   1.369667  -1.008545
| 21> 		H    1.258610  -0.911346   0.850673
| 22> 		H    2.091753   0.711270   0.119624
| 23> *
| 24>
| 25>                          ****END OF INPUT****

CARTESIAN COORDINATES (ANGSTROEM)
---------------------------------
  C     -1.177962   -0.360259   -0.089994
  O     -1.886433   -0.858606   -0.907326
  C      0.083406    0.394514   -0.309960
  C      1.214281    0.086570    0.259525
  H     -1.564024   -0.409302    1.062853
  H     -0.033933    1.369667   -1.008545
  H      1.258610   -0.911346    0.850673
  H      2.091753    0.711270    0.119624

 Total Charge           Charge          ....    0
 Multiplicity           Mult            ....    1
 Number of Electrons    NEL             ....   30
 Basis Dimension        Dim             ....   24

ORBITAL ENERGIES
----------------

  NO   OCC          E(Eh)            E(eV)
   0   2.0000     -20.374327      -554.4136
   1   2.0000     -11.298568      -307.4497
   2   2.0000     -11.190317      -304.5040
   3   2.0000     -11.182115      -304.2808
   4   2.0000      -1.415734       -38.5241
   5   2.0000      -1.081668       -29.4337
   6   2.0000      -0.867282       -23.5999
   7   2.0000      -0.735594       -20.0165
   8   2.0000      -0.661122       -17.9900
   9   2.0000      -0.643260       -17.5040
  10   2.0000      -0.594898       -16.1880
  11   2.0000      -0.536770       -14.6063
  12   2.0000      -0.505143       -13.7456
  13   2.0000      -0.410384       -11.1671
  14   2.0000      -0.393275       -10.7015
  15   0.0000       0.170985         4.6527
  16   0.0000       0.261359         7.1119
  17   0.0000       0.512857        13.9556
  18   0.0000       0.526567        14.3286
  19   0.0000       0.610260        16.6060

MULLIKEN ATOMIC CHARGES
-----------------------
   0 C :    0.183623
   1 O :   -0.355161
   2 C :   -0.159679
   3 C :   -0.243285
   4 H :    0.129150
   5 H :    0.155728
   6 H :    0.143868
   7 H :    0.145755
Sum of atomic charges:   -0.0000000

LOEWDIN ATOMIC CHARGES
----------------------
   0 C :    0.149699
   1 O :   -0.252000
   2 C :   -0.122704
   3 C :   -0.156128
   4 H :    0.074608
   5 H :    0.111467
   6 H :    0.099716
   7 H :    0.095342

  Mayer bond orders larger than 0.100000
B(  0-C ,  1-O ) :   1.9422 B(  0-C ,  2-C ) :   0.9931 B(  0-C ,  4-H ) :   0.9041
B(  2-C ,  3-C ) :   1.9939 B(  2-C ,  5-H ) :   0.9395 B(  3-C ,  6-H ) :   0.9585
B(  3-C ,  7-H ) :   0.9614

-----------------------------------------------------------------------------
         ABSORPTION SPECTRUM VIA TRANSITION ELECTRIC DIPOLE MOMENTS
-----------------------------------------------------------------------------
State   Energy    Wavelength  fosc         T2        TX        TY        TZ
        (cm-1)      (nm)                 (au**2)    (au)      (au)      (au)
-----------------------------------------------------------------------------
   1   34983.1    285.9   0.000009212   0.00009  -0.00470  -0.00726   0.00345

Dispersion correction           -0.024850915
FINAL SINGLE POINT ENERGY      -189.306638086833

DIPOLE MOMENT
-------------
                                X             Y             Z
Electronic contribution:     -2.73301      -1.00234      -1.33505
Nuclear contribution   :      3.42899       1.47468       1.96728
                        -----------------------------------------
Total Dipole Moment    :      0.69598       0.47234       0.63222
                        -----------------------------------------
Magnitude (a.u.)       :      1.05224
Magnitude (Debye)      :      2.67458

Rotational constants in cm-1:     1.245458     0.155840     0.149391
Rotational constants in MHz : 37337.898260  4671.959042  4478.630611

                             ****ORCA TERMINATED NORMALLY****
TOTAL RUN TIME: 0 days 0 hours 0 minutes 12 seconds 481 msec
