                         Program Version 5.0.3 -  RELEASE  -
|  1> ! B3LYP cc-pVDZ
|  2> !TightSCF
|  3> %scf
|  4>  ConvForced true
|  5>  convergence tight
|  6>  MaxIter 500
|  7> end
|  8>
|  9> %tddft
| 10>  nroots 1
| 11> end
| 12>
| 13> # 	10030
| 14> * xyz 0 1
| 15> 		C   -1.216724  -0.301501   0.003290
| 16> 		O   -1.626861  -1.044158   0.873967
| 17> 		C   -0.006421   0.519007   0.229365
| 18> 		C    1.172805   0.046380  -0.124924
| 19> 		H   -1.584873  -0.229603  -0.923435
| 20> 		H   -0.099167   1.454246   0.905689
| 21> 		H    1.194447  -1.014506  -0.651981
| 22> 		H    2.172301   0.526435  -0.277287
| 23> *
| 24>
| 25>                          ****END OF INPUT****

CARTESIAN COORDINATES (ANGSTROEM)
---------------------------------
  C     -1.216724   -0.301501    0.003290
  O     -1.626861   -1.044158    0.873967
  C     -0.006421    0.519007    0.229365
  C      1.172805    0.046380   -0.124924
  H     -1.584873   -0.229603   -0.923435
  H     -0.099167    1.454246    0.905689
  H      1.194447   -1.014506   -0.651981
  H      2.172301    0.526435   -0.277287

 Total Charge           Charge          ....    0
 Multiplicity           Mult            ....    1
 Number of Electrons    NEL             ....   30
 Basis Dimension        Dim             ....   76

ORBITAL ENERGIES
----------------

  NO   OCC          E(Eh)            E(eV)
   0   2.0000     -19.145877      -520.9858
   1   2.0000     -10.274779      -279.5909
   2   2.0000     -10.211377      -277.8657
   3   2.0000     -10.207715      -277.7661
   4   2.0000      -1.050338       -28.5811
   5   2.0000      -0.795664       -21.6511
   6   2.0000      -0.656040       -17.8517
   7   2.0000      -0.567925       -15.4540
   8   2.0000      -0.485559       -13.2127
   9   2.0000      -0.466288       -12.6883
  10   2.0000      -0.442123       -12.0308
  11   2.0000      -0.377345       -10.2681
  12   2.0000      -0.362998        -9.8777
  13   2.0000      -0.290667        -7.9095
  14   2.0000      -0.254130        -6.9152
  15   0.0000      -0.045849        -1.2476
  16   0.0000      -0.001795        -0.0488
  17   0.0000       0.076848         2.0912
  18   0.0000       0.085636         2.3303
  19   0.0000       0.109973         2.9925

MULLIKEN ATOMIC CHARGES
-----------------------
   0 C :    0.235238
   1 O :   -0.189399
   2 C :   -0.104840
   3 C :   -0.028008
   4 H :   -0.026372
   5 H :    0.041539
   6 H :    0.028932
   7 H :    0.042911
Sum of atomic charges:   -0.0000000

LOEWDIN ATOMIC CHARGES
----------------------
   0 C :    0.002293
   1 O :    0.012728
   2 C :   -0.068031
   3 C :   -0.048806
   4 H :   -0.020356
   5 H :    0.050417
   6 H :    0.036580
   7 H :    0.035175

  Mayer bond orders larger than 0.100000
B(  0-C ,  1-O ) :   2.2287 B(  0-C ,  2-C ) :   0.9900 B(  0-C ,  4-H ) :   0.9320
B(  2-C ,  3-C ) :   2.0200 B(  2-C ,  5-H ) :   0.9296 B(  3-C ,  6-H ) :   0.9418
B(  3-C ,  7-H ) :   0.9535

-----------------------------------------------------------------------------
         ABSORPTION SPECTRUM VIA TRANSITION ELECTRIC DIPOLE MOMENTS
-----------------------------------------------------------------------------
State   Energy    Wavelength  fosc         T2        TX        TY        TZ
        (cm-1)      (nm)                 (au**2)    (au)      (au)      (au)
-----------------------------------------------------------------------------
   1   31207.9    320.4   0.000513254   0.00541  -0.06848  -0.02506   0.00983

FINAL SINGLE POINT ENERGY      -191.629269926619

DIPOLE MOMENT
-------------
                                X             Y             Z
Electronic contribution:     -2.82082      -0.94590       1.23137
Nuclear contribution   :      3.23035       1.53531      -1.83798
                        -----------------------------------------
Total Dipole Moment    :      0.40954       0.58942      -0.60660
                        -----------------------------------------
Magnitude (a.u.)       :      0.93973
Magnitude (Debye)      :      2.38861

Rotational constants in cm-1:     0.952070     0.173598     0.165801
Rotational constants in MHz : 28542.343109  5204.341604  4970.582094

                             ****ORCA TERMINATED NORMALLY****
TOTAL RUN TIME: 0 days 0 hours 3 minutes 15 seconds 768 msec
