                         Program Version 5.0.3 -  RELEASE  -
|  1> ! HF-3c
|  2> !TightSCF
|  3> %scf
|  4>  ConvForced true
|  5>  convergence tight
|  6>  MaxIter 500
|  7> end
|  8>
|  9> %tddft
| 10>  nroots 1
| 11> end
| 12>
| 13> # 	17088
| 14> * xyz 0 1
| 15> 		C   -1.162210  -0.371223  -0.020843
| 16> 		O   -1.497937  -1.357662   0.608857
| 17> 		C    0.065514   0.467019   0.159617
| 18> 		C    1.237276   0.094538  -0.147203
| 19> 		H   -1.744040  -0.005208  -0.836985
| 20> 		H   -0.173849   1.352225   0.622685
| 21> 		H    1.286818  -0.777741  -0.535131
| 22> 		H    2.013313   0.603327   0.127216
| 23> *
| 24>
| 25>                          ****END OF INPUT****

CARTESIAN COORDINATES (ANGSTROEM)
---------------------------------
  C     -1.162210   -0.371223   -0.020843
  O     -1.497937   -1.357662    0.608857
  C      0.065514    0.467019    0.159617
  C      1.237276    0.094538   -0.147203
  H     -1.744040   -0.005208   -0.836985
  H     -0.173849    1.352225    0.622685
  H      1.286818   -0.777741   -0.535131
  H      2.013313    0.603327    0.127216

 Total Charge           Charge          ....    0
 Multiplicity           Mult            ....    1
 Number of Electrons    NEL             ....   30
 Basis Dimension        Dim             ....   24

ORBITAL ENERGIES
----------------

  NO   OCC          E(Eh)            E(eV)
   0   2.0000     -20.389394      -554.8236
   1   2.0000     -11.307346      -307.6885
   2   2.0000     -11.212507      -305.1078
   3   2.0000     -11.202011      -304.8222
   4   2.0000      -1.409690       -38.3596
   5   2.0000      -1.127388       -30.6778
   6   2.0000      -0.923260       -25.1232
   7   2.0000      -0.790297       -21.5051
   8   2.0000      -0.726582       -19.7713
   9   2.0000      -0.663817       -18.0634
  10   2.0000      -0.630072       -17.1451
  11   2.0000      -0.581890       -15.8340
  12   2.0000      -0.513986       -13.9863
  13   2.0000      -0.443873       -12.0784
  14   2.0000      -0.418984       -11.4011
  15   0.0000       0.170992         4.6529
  16   0.0000       0.228627         6.2213
  17   0.0000       0.567560        15.4441
  18   0.0000       0.708046        19.2669
  19   0.0000       0.736302        20.0358

MULLIKEN ATOMIC CHARGES
-----------------------
   0 C :    0.171905
   1 O :   -0.331760
   2 C :   -0.147386
   3 C :   -0.295984
   4 H :    0.139270
   5 H :    0.153190
   6 H :    0.154150
   7 H :    0.156614
Sum of atomic charges:   -0.0000000

LOEWDIN ATOMIC CHARGES
----------------------
   0 C :    0.156439
   1 O :   -0.237728
   2 C :   -0.091982
   3 C :   -0.180743
   4 H :    0.071927
   5 H :    0.094390
   6 H :    0.092388
   7 H :    0.095309

  Mayer bond orders larger than 0.100000
B(  0-C ,  1-O ) :   1.9571 B(  0-C ,  2-C ) :   0.9810 B(  0-C ,  4-H ) :   0.9235
B(  2-C ,  3-C ) :   2.0031 B(  2-C ,  5-H ) :   0.9498 B(  3-C ,  6-H ) :   0.9616
B(  3-C ,  7-H ) :   0.9609

-----------------------------------------------------------------------------
         ABSORPTION SPECTRUM VIA TRANSITION ELECTRIC DIPOLE MOMENTS
-----------------------------------------------------------------------------
State   Energy    Wavelength  fosc         T2        TX        TY        TZ
        (cm-1)      (nm)                 (au**2)    (au)      (au)      (au)
-----------------------------------------------------------------------------
   1   34030.0    293.9   0.000047785   0.00046   0.02042   0.00454  -0.00496

Dispersion correction           -0.026104321
FINAL SINGLE POINT ENERGY      -189.290828301748

DIPOLE MOMENT
-------------
                                X             Y             Z
Electronic contribution:     -2.40273      -1.53449       0.75894
Nuclear contribution   :      2.67802       2.30664      -1.18039
                        -----------------------------------------
Total Dipole Moment    :      0.27529       0.77215      -0.42146
                        -----------------------------------------
Magnitude (a.u.)       :      0.92175
Magnitude (Debye)      :      2.34291

Rotational constants in cm-1:     1.012657     0.175560     0.160538
Rotational constants in MHz : 30358.707335  5263.150973  4812.799548

                             ****ORCA TERMINATED NORMALLY****
TOTAL RUN TIME: 0 days 0 hours 0 minutes 11 seconds 468 msec
