                         Program Version 5.0.3 -  RELEASE  -
|  1> ! HF-3c
|  2> !TightSCF
|  3> %scf
|  4>  ConvForced true
|  5>  convergence tight
|  6>  MaxIter 500
|  7> end
|  8>
|  9> %tddft
| 10>  nroots 1
| 11> end
| 12>
| 13> # 	10197
| 14> * xyz 0 1
| 15> 		C   -1.194783  -0.311724  -0.067901
| 16> 		O   -2.157024  -0.503541  -0.773528
| 17> 		C    0.017240   0.397639  -0.348327
| 18> 		C    1.073916   0.161840   0.253615
| 19> 		H   -1.043476  -0.832636   1.051082
| 20> 		H   -0.034922   0.944769  -1.235943
| 21> 		H    1.100176  -0.544001   1.228226
| 22> 		H    2.245866   0.672721  -0.088028
| 23> *
| 24>
| 25>                          ****END OF INPUT****

CARTESIAN COORDINATES (ANGSTROEM)
---------------------------------
  C     -1.194783   -0.311724   -0.067901
  O     -2.157024   -0.503541   -0.773528
  C      0.017240    0.397639   -0.348327
  C      1.073916    0.161840    0.253615
  H     -1.043476   -0.832636    1.051082
  H     -0.034922    0.944769   -1.235943
  H      1.100176   -0.544001    1.228226
  H      2.245866    0.672721   -0.088028

 Total Charge           Charge          ....    0
 Multiplicity           Mult            ....    1
 Number of Electrons    NEL             ....   30
 Basis Dimension        Dim             ....   24

ORBITAL ENERGIES
----------------

  NO   OCC          E(Eh)            E(eV)
   0   2.0000     -20.363335      -554.1145
   1   2.0000     -11.293009      -307.2984
   2   2.0000     -11.202363      -304.8318
   3   2.0000     -11.193430      -304.5887
   4   2.0000      -1.397026       -38.0150
   5   2.0000      -1.119547       -30.4644
   6   2.0000      -0.865031       -23.5387
   7   2.0000      -0.762939       -20.7606
   8   2.0000      -0.644102       -17.5269
   9   2.0000      -0.633393       -17.2355
  10   2.0000      -0.574588       -15.6353
  11   2.0000      -0.546470       -14.8702
  12   2.0000      -0.500531       -13.6201
  13   2.0000      -0.419207       -11.4072
  14   2.0000      -0.392655       -10.6847
  15   0.0000       0.149354         4.0641
  16   0.0000       0.332557         9.0493
  17   0.0000       0.418632        11.3916
  18   0.0000       0.501625        13.6499
  19   0.0000       0.528596        14.3838

MULLIKEN ATOMIC CHARGES
-----------------------
   0 C :    0.203023
   1 O :   -0.361024
   2 C :   -0.232600
   3 C :   -0.175588
   4 H :    0.110296
   5 H :    0.158712
   6 H :    0.140317
   7 H :    0.156863
Sum of atomic charges:    0.0000000

LOEWDIN ATOMIC CHARGES
----------------------
   0 C :    0.167637
   1 O :   -0.265012
   2 C :   -0.177151
   3 C :   -0.104154
   4 H :    0.060020
   5 H :    0.099825
   6 H :    0.098256
   7 H :    0.120579

  Mayer bond orders larger than 0.100000
B(  0-C ,  1-O ) :   1.9141 B(  0-C ,  2-C ) :   1.0238 B(  0-C ,  4-H ) :   0.9016
B(  2-C ,  3-C ) :   1.9605 B(  2-C ,  5-H ) :   0.9423 B(  3-C ,  6-H ) :   0.9497
B(  3-C ,  7-H ) :   0.9467

-----------------------------------------------------------------------------
         ABSORPTION SPECTRUM VIA TRANSITION ELECTRIC DIPOLE MOMENTS
-----------------------------------------------------------------------------
State   Energy    Wavelength  fosc         T2        TX        TY        TZ
        (cm-1)      (nm)                 (au**2)    (au)      (au)      (au)
-----------------------------------------------------------------------------
   1   33983.1    294.3   0.000058531   0.00057   0.00119   0.02371   0.00189

Dispersion correction           -0.026118149
FINAL SINGLE POINT ENERGY      -189.268676757873

DIPOLE MOMENT
-------------
                                X             Y             Z
Electronic contribution:     -3.11278      -0.38142      -1.17713
Nuclear contribution   :      4.34467       0.54360       1.78302
                        -----------------------------------------
Total Dipole Moment    :      1.23189       0.16218       0.60589
                        -----------------------------------------
Magnitude (a.u.)       :      1.38237
Magnitude (Debye)      :      3.51370

Rotational constants in cm-1:     1.566661     0.160457     0.147408
Rotational constants in MHz : 46967.307151  4810.379688  4419.192062

                             ****ORCA TERMINATED NORMALLY****
TOTAL RUN TIME: 0 days 0 hours 0 minutes 15 seconds 729 msec
