                         Program Version 5.0.3 -  RELEASE  -
|  1> ! B3LYP cc-pVDZ
|  2> !TightSCF
|  3> %scf
|  4>  ConvForced true
|  5>  convergence tight
|  6>  MaxIter 500
|  7> end
|  8>
|  9> %tddft
| 10>  nroots 1
| 11> end
| 12>
| 13> # 	7478
| 14> * xyz 0 1
| 15> 		C   -1.227549  -0.380459  -0.085172
| 16> 		O   -2.268667  -0.269356  -0.617504
| 17> 		C    0.016959   0.403285  -0.325621
| 18> 		C    1.155779   0.173904   0.330822
| 19> 		H   -1.181932  -1.228825   0.631569
| 20> 		H    0.089500   1.326950  -1.170391
| 21> 		H    1.201748  -0.630663   1.096678
| 22> 		H    2.214618   0.597611   0.121968
| 23> *
| 24>
| 25>                          ****END OF INPUT****

CARTESIAN COORDINATES (ANGSTROEM)
---------------------------------
  C     -1.227549   -0.380459   -0.085172
  O     -2.268667   -0.269356   -0.617504
  C      0.016959    0.403285   -0.325621
  C      1.155779    0.173904    0.330822
  H     -1.181932   -1.228825    0.631569
  H      0.089500    1.326950   -1.170391
  H      1.201748   -0.630663    1.096678
  H      2.214618    0.597611    0.121968

 Total Charge           Charge          ....    0
 Multiplicity           Mult            ....    1
 Number of Electrons    NEL             ....   30
 Basis Dimension        Dim             ....   76

ORBITAL ENERGIES
----------------

  NO   OCC          E(Eh)            E(eV)
   0   2.0000     -19.137839      -520.7671
   1   2.0000     -10.276655      -279.6420
   2   2.0000     -10.226323      -278.2724
   3   2.0000     -10.223684      -278.2006
   4   2.0000      -1.067906       -29.0592
   5   2.0000      -0.797535       -21.7020
   6   2.0000      -0.638759       -17.3815
   7   2.0000      -0.557685       -15.1754
   8   2.0000      -0.484802       -13.1921
   9   2.0000      -0.464914       -12.6509
  10   2.0000      -0.420926       -11.4540
  11   2.0000      -0.409864       -11.1530
  12   2.0000      -0.366929        -9.9846
  13   2.0000      -0.296695        -8.0735
  14   2.0000      -0.254660        -6.9297
  15   0.0000      -0.061994        -1.6870
  16   0.0000       0.048151         1.3102
  17   0.0000       0.056996         1.5509
  18   0.0000       0.070867         1.9284
  19   0.0000       0.120015         3.2658

MULLIKEN ATOMIC CHARGES
-----------------------
   0 C :    0.190396
   1 O :   -0.160842
   2 C :   -0.136277
   3 C :    0.008932
   4 H :   -0.034622
   5 H :    0.042567
   6 H :    0.031521
   7 H :    0.058323
Sum of atomic charges:   -0.0000000

LOEWDIN ATOMIC CHARGES
----------------------
   0 C :   -0.066657
   1 O :    0.035545
   2 C :   -0.082042
   3 C :   -0.012941
   4 H :   -0.007815
   5 H :    0.057729
   6 H :    0.028427
   7 H :    0.047754

  Mayer bond orders larger than 0.100000
B(  0-C ,  1-O ) :   2.2153 B(  0-C ,  2-C ) :   1.0207 B(  0-C ,  4-H ) :   0.9217
B(  2-C ,  3-C ) :   1.9330 B(  2-C ,  5-H ) :   0.9286 B(  3-C ,  6-H ) :   0.9398
B(  3-C ,  7-H ) :   0.9437

-----------------------------------------------------------------------------
         ABSORPTION SPECTRUM VIA TRANSITION ELECTRIC DIPOLE MOMENTS
-----------------------------------------------------------------------------
State   Energy    Wavelength  fosc         T2        TX        TY        TZ
        (cm-1)      (nm)                 (au**2)    (au)      (au)      (au)
-----------------------------------------------------------------------------
   1   29714.2    336.5   0.000074740   0.00083  -0.00678   0.01791   0.02148

FINAL SINGLE POINT ENERGY      -191.653554130034

DIPOLE MOMENT
-------------
                                X             Y             Z
Electronic contribution:     -3.41440      -0.16940      -0.95567
Nuclear contribution   :      4.47265       0.18346       1.31106
                        -----------------------------------------
Total Dipole Moment    :      1.05825       0.01406       0.35539
                        -----------------------------------------
Magnitude (a.u.)       :      1.11642
Magnitude (Debye)      :      2.83770

Rotational constants in cm-1:     1.575558     0.151289     0.138103
Rotational constants in MHz : 47234.027120  4535.519770  4140.213925

                             ****ORCA TERMINATED NORMALLY****
TOTAL RUN TIME: 0 days 0 hours 3 minutes 11 seconds 104 msec
