                         Program Version 5.0.3 -  RELEASE  -
|  1> ! HF-3c
|  2> !TightSCF
|  3> %scf
|  4>  ConvForced true
|  5>  convergence tight
|  6>  MaxIter 500
|  7> end
|  8>
|  9> %tddft
| 10>  nroots 1
| 11> end
| 12>
| 13> # 	25941
| 14> * xyz 0 1
| 15> 		C   -0.628858  -0.421764  -0.084061
| 16> 		O   -0.556140  -1.638300   0.038779
| 17> 		C    0.652567   0.399729   0.066685
| 18> 		C    1.838160  -0.127359  -0.057178
| 19> 		H   -1.603656   0.150827   0.024736
| 20> 		H    0.594014   1.568190   0.049167
| 21> 		H    1.964451  -1.211561   0.008723
| 22> 		H    2.667847   0.543287   0.203822
| 23> *
| 24>
| 25>                          ****END OF INPUT****

CARTESIAN COORDINATES (ANGSTROEM)
---------------------------------
  C     -0.628858   -0.421764   -0.084061
  O     -0.556140   -1.638300    0.038779
  C      0.652567    0.399729    0.066685
  C      1.838160   -0.127359   -0.057178
  H     -1.603656    0.150827    0.024736
  H      0.594014    1.568190    0.049167
  H      1.964451   -1.211561    0.008723
  H      2.667847    0.543287    0.203822

 Total Charge           Charge          ....    0
 Multiplicity           Mult            ....    1
 Number of Electrons    NEL             ....   30
 Basis Dimension        Dim             ....   24

ORBITAL ENERGIES
----------------

  NO   OCC          E(Eh)            E(eV)
   0   2.0000     -20.365285      -554.1676
   1   2.0000     -11.292145      -307.2749
   2   2.0000     -11.181618      -304.2673
   3   2.0000     -11.178489      -304.1821
   4   2.0000      -1.393587       -37.9214
   5   2.0000      -1.074208       -29.2307
   6   2.0000      -0.874640       -23.8002
   7   2.0000      -0.731807       -19.9135
   8   2.0000      -0.693203       -18.8630
   9   2.0000      -0.604535       -16.4502
  10   2.0000      -0.584936       -15.9169
  11   2.0000      -0.532449       -14.4887
  12   2.0000      -0.514877       -14.0105
  13   2.0000      -0.410173       -11.1614
  14   2.0000      -0.397009       -10.8032
  15   0.0000       0.135418         3.6849
  16   0.0000       0.298194         8.1143
  17   0.0000       0.526955        14.3392
  18   0.0000       0.561395        15.2763
  19   0.0000       0.655214        17.8293

MULLIKEN ATOMIC CHARGES
-----------------------
   0 C :    0.162980
   1 O :   -0.348560
   2 C :   -0.158439
   3 C :   -0.240165
   4 H :    0.142341
   5 H :    0.137781
   6 H :    0.159124
   7 H :    0.144937
Sum of atomic charges:    0.0000000

LOEWDIN ATOMIC CHARGES
----------------------
   0 C :    0.144900
   1 O :   -0.256469
   2 C :   -0.121094
   3 C :   -0.143969
   4 H :    0.081695
   5 H :    0.092927
   6 H :    0.105656
   7 H :    0.096355

  Mayer bond orders larger than 0.100000
B(  0-C ,  1-O ) :   1.9193 B(  0-C ,  2-C ) :   1.0006 B(  0-C ,  4-H ) :   0.9232
B(  2-C ,  3-C ) :   1.9663 B(  2-C ,  5-H ) :   0.9555 B(  3-C ,  6-H ) :   0.9554
B(  3-C ,  7-H ) :   0.9609

-----------------------------------------------------------------------------
         ABSORPTION SPECTRUM VIA TRANSITION ELECTRIC DIPOLE MOMENTS
-----------------------------------------------------------------------------
State   Energy    Wavelength  fosc         T2        TX        TY        TZ
        (cm-1)      (nm)                 (au**2)    (au)      (au)      (au)
-----------------------------------------------------------------------------
   1   31462.6    317.8   0.000566735   0.00593  -0.07629  -0.00606   0.00854

Dispersion correction           -0.025546995
FINAL SINGLE POINT ENERGY      -189.333700084042

DIPOLE MOMENT
-------------
                                X             Y             Z
Electronic contribution:     -2.08102      -1.80705      -0.25813
Nuclear contribution   :      2.24021       2.77235       0.26839
                        -----------------------------------------
Total Dipole Moment    :      0.15919       0.96529       0.01026
                        -----------------------------------------
Magnitude (a.u.)       :      0.97839
Magnitude (Debye)      :      2.48686

Rotational constants in cm-1:     0.747805     0.209016     0.164140
Rotational constants in MHz : 22418.618185  6266.129728  4920.805232

                             ****ORCA TERMINATED NORMALLY****
TOTAL RUN TIME: 0 days 0 hours 0 minutes 11 seconds 20 msec
