                         Program Version 5.0.3 -  RELEASE  -
|  1> ! B3LYP cc-pVDZ
|  2> !TightSCF
|  3> %scf
|  4>  ConvForced true
|  5>  convergence tight
|  6>  MaxIter 500
|  7> end
|  8>
|  9> %tddft
| 10>  nroots 1
| 11> end
| 12>
| 13> # 	16103
| 14> * xyz 0 1
| 15> 		C   -1.159577  -0.327372  -0.009071
| 16> 		O   -1.273517  -1.546181   0.110705
| 17> 		C    0.017689   0.504691   0.013170
| 18> 		C    1.258407  -0.004176  -0.092636
| 19> 		H   -2.098197   0.245386  -0.104089
| 20> 		H   -0.275473   1.509323  -0.002049
| 21> 		H    1.530248  -1.010831  -0.053667
| 22> 		H    2.058108   0.639776   0.148773
| 23> *
| 24>
| 25>                          ****END OF INPUT****

CARTESIAN COORDINATES (ANGSTROEM)
---------------------------------
  C     -1.159577   -0.327372   -0.009071
  O     -1.273517   -1.546181    0.110705
  C      0.017689    0.504691    0.013170
  C      1.258407   -0.004176   -0.092636
  H     -2.098197    0.245386   -0.104089
  H     -0.275473    1.509323   -0.002049
  H      1.530248   -1.010831   -0.053667
  H      2.058108    0.639776    0.148773

 Total Charge           Charge          ....    0
 Multiplicity           Mult            ....    1
 Number of Electrons    NEL             ....   30
 Basis Dimension        Dim             ....   76

ORBITAL ENERGIES
----------------

  NO   OCC          E(Eh)            E(eV)
   0   2.0000     -19.133618      -520.6522
   1   2.0000     -10.266497      -279.3656
   2   2.0000     -10.213739      -277.9300
   3   2.0000     -10.206329      -277.7283
   4   2.0000      -1.030337       -28.0369
   5   2.0000      -0.805896       -21.9296
   6   2.0000      -0.677152       -18.4263
   7   2.0000      -0.547797       -14.9063
   8   2.0000      -0.510150       -13.8819
   9   2.0000      -0.458046       -12.4641
  10   2.0000      -0.420973       -11.4552
  11   2.0000      -0.392576       -10.6825
  12   2.0000      -0.388130       -10.5616
  13   2.0000      -0.290658        -7.9092
  14   2.0000      -0.249912        -6.8004
  15   0.0000      -0.079834        -2.1724
  16   0.0000       0.060732         1.6526
  17   0.0000       0.068937         1.8759
  18   0.0000       0.094062         2.5596
  19   0.0000       0.131270         3.5720

MULLIKEN ATOMIC CHARGES
-----------------------
   0 C :    0.172995
   1 O :   -0.207818
   2 C :   -0.083546
   3 C :    0.122750
   4 H :   -0.035901
   5 H :   -0.020436
   6 H :    0.026824
   7 H :    0.025133
Sum of atomic charges:   -0.0000000

LOEWDIN ATOMIC CHARGES
----------------------
   0 C :   -0.035752
   1 O :   -0.023805
   2 C :   -0.063096
   3 C :    0.052541
   4 H :   -0.008806
   5 H :    0.024986
   6 H :    0.025737
   7 H :    0.028194

  Mayer bond orders larger than 0.100000
B(  0-C ,  1-O ) :   2.1778 B(  0-C ,  2-C ) :   1.1075 B(  0-C ,  4-H ) :   0.9162
B(  1-O ,  3-C ) :   0.1000 B(  2-C ,  3-C ) :   1.9358 B(  2-C ,  5-H ) :   0.9458
B(  3-C ,  6-H ) :   0.9461 B(  3-C ,  7-H ) :   0.9433

-----------------------------------------------------------------------------
         ABSORPTION SPECTRUM VIA TRANSITION ELECTRIC DIPOLE MOMENTS
-----------------------------------------------------------------------------
State   Energy    Wavelength  fosc         T2        TX        TY        TZ
        (cm-1)      (nm)                 (au**2)    (au)      (au)      (au)
-----------------------------------------------------------------------------
   1   24799.4    403.2   0.000245989   0.00327  -0.04633  -0.00055   0.03345

FINAL SINGLE POINT ENERGY      -191.681284016565

DIPOLE MOMENT
-------------
                                X             Y             Z
Electronic contribution:     -1.75415      -1.77036       0.01393
Nuclear contribution   :      2.31363       2.70412      -0.05553
                        -----------------------------------------
Total Dipole Moment    :      0.55948       0.93376      -0.04160
                        -----------------------------------------
Magnitude (a.u.)       :      1.08934
Magnitude (Debye)      :      2.76888

Rotational constants in cm-1:     0.798777     0.199808     0.160336
Rotational constants in MHz : 23946.720752  5990.100654  4806.759045

                             ****ORCA TERMINATED NORMALLY****
TOTAL RUN TIME: 0 days 0 hours 3 minutes 14 seconds 955 msec
