                         Program Version 5.0.3 -  RELEASE  -
|  1> ! HF-3c
|  2> !TightSCF
|  3> %scf
|  4>  ConvForced true
|  5>  convergence tight
|  6>  MaxIter 500
|  7> end
|  8>
|  9> %tddft
| 10>  nroots 1
| 11> end
| 12>
| 13> # 	19219
| 14> * xyz 0 1
| 15> 		C   -1.154516  -0.398890  -0.069326
| 16> 		O   -2.266592  -0.258661  -0.678997
| 17> 		C   -0.004055   0.386234  -0.343428
| 18> 		C    1.162525   0.226875   0.336318
| 19> 		H   -1.126707  -1.214005   0.695131
| 20> 		H    0.054961   1.267790  -1.214629
| 21> 		H    1.157849  -0.720072   1.182763
| 22> 		H    2.154035   0.650855   0.099780
| 23> *
| 24>
| 25>                          ****END OF INPUT****

CARTESIAN COORDINATES (ANGSTROEM)
---------------------------------
  C     -1.154516   -0.398890   -0.069326
  O     -2.266592   -0.258661   -0.678997
  C     -0.004055    0.386234   -0.343428
  C      1.162525    0.226875    0.336318
  H     -1.126707   -1.214005    0.695131
  H      0.054961    1.267790   -1.214629
  H      1.157849   -0.720072    1.182763
  H      2.154035    0.650855    0.099780

 Total Charge           Charge          ....    0
 Multiplicity           Mult            ....    1
 Number of Electrons    NEL             ....   30
 Basis Dimension        Dim             ....   24

ORBITAL ENERGIES
----------------

  NO   OCC          E(Eh)            E(eV)
   0   2.0000     -20.336474      -553.3836
   1   2.0000     -11.279712      -306.9366
   2   2.0000     -11.189185      -304.4732
   3   2.0000     -11.187709      -304.4330
   4   2.0000      -1.348501       -36.6946
   5   2.0000      -1.071669       -29.1616
   6   2.0000      -0.872026       -23.7290
   7   2.0000      -0.748010       -20.3544
   8   2.0000      -0.643467       -17.5096
   9   2.0000      -0.627111       -17.0646
  10   2.0000      -0.546672       -14.8757
  11   2.0000      -0.517703       -14.0874
  12   2.0000      -0.485465       -13.2102
  13   2.0000      -0.413511       -11.2522
  14   2.0000      -0.371641       -10.1129
  15   0.0000       0.115273         3.1367
  16   0.0000       0.311293         8.4707
  17   0.0000       0.448728        12.2105
  18   0.0000       0.506573        13.7846
  19   0.0000       0.589595        16.0437

MULLIKEN ATOMIC CHARGES
-----------------------
   0 C :    0.129805
   1 O :   -0.342021
   2 C :   -0.172062
   3 C :   -0.194419
   4 H :    0.140833
   5 H :    0.160599
   6 H :    0.131891
   7 H :    0.145374
Sum of atomic charges:    0.0000000

LOEWDIN ATOMIC CHARGES
----------------------
   0 C :    0.128336
   1 O :   -0.268761
   2 C :   -0.138067
   3 C :   -0.111422
   4 H :    0.080807
   5 H :    0.117733
   6 H :    0.095882
   7 H :    0.095491

  Mayer bond orders larger than 0.100000
B(  0-C ,  1-O ) :   1.8646 B(  0-C ,  2-C ) :   1.0850 B(  0-C ,  4-H ) :   0.9305
B(  1-O ,  3-C ) :   0.1003 B(  2-C ,  3-C ) :   1.9081 B(  2-C ,  5-H ) :   0.9431
B(  3-C ,  6-H ) :   0.9574 B(  3-C ,  7-H ) :   0.9642

-----------------------------------------------------------------------------
         ABSORPTION SPECTRUM VIA TRANSITION ELECTRIC DIPOLE MOMENTS
-----------------------------------------------------------------------------
State   Energy    Wavelength  fosc         T2        TX        TY        TZ
        (cm-1)      (nm)                 (au**2)    (au)      (au)      (au)
-----------------------------------------------------------------------------
   1   28623.0    349.4   0.000010265   0.00012   0.00556   0.00528   0.00769

Dispersion correction           -0.024985925
FINAL SINGLE POINT ENERGY      -189.311131456441

DIPOLE MOMENT
-------------
                                X             Y             Z
Electronic contribution:     -3.11968      -0.13465      -0.96154
Nuclear contribution   :      4.35007       0.08793       1.44585
                        -----------------------------------------
Total Dipole Moment    :      1.23039      -0.04672       0.48430
                        -----------------------------------------
Magnitude (a.u.)       :      1.32310
Magnitude (Debye)      :      3.36306

Rotational constants in cm-1:     1.486080     0.152272     0.138186
Rotational constants in MHz : 44551.564732  4565.006052  4142.705759

                             ****ORCA TERMINATED NORMALLY****
TOTAL RUN TIME: 0 days 0 hours 0 minutes 10 seconds 739 msec
