                         Program Version 5.0.3 -  RELEASE  -
|  1> ! B3LYP cc-pVDZ
|  2> !TightSCF
|  3> %scf
|  4>  ConvForced true
|  5>  convergence tight
|  6>  MaxIter 500
|  7> end
|  8>
|  9> %tddft
| 10>  nroots 1
| 11> end
| 12>
| 13> # 	8770
| 14> * xyz 0 1
| 15> 		C   -1.159426  -0.358905  -0.082544
| 16> 		O   -1.559980  -1.162379  -0.821586
| 17> 		C    0.012087   0.538745  -0.223519
| 18> 		C    1.206227  -0.017895   0.108061
| 19> 		H   -1.804966  -0.090964   0.946459
| 20> 		H   -0.033452   1.642742  -0.599425
| 21> 		H    1.274214  -1.065088   0.626331
| 22> 		H    2.087277   0.561558   0.072925
| 23> *
| 24>
| 25>                          ****END OF INPUT****

CARTESIAN COORDINATES (ANGSTROEM)
---------------------------------
  C     -1.159426   -0.358905   -0.082544
  O     -1.559980   -1.162379   -0.821586
  C      0.012087    0.538745   -0.223519
  C      1.206227   -0.017895    0.108061
  H     -1.804966   -0.090964    0.946459
  H     -0.033452    1.642742   -0.599425
  H      1.274214   -1.065088    0.626331
  H      2.087277    0.561558    0.072925

 Total Charge           Charge          ....    0
 Multiplicity           Mult            ....    1
 Number of Electrons    NEL             ....   30
 Basis Dimension        Dim             ....   76

ORBITAL ENERGIES
----------------

  NO   OCC          E(Eh)            E(eV)
   0   2.0000     -19.152428      -521.1641
   1   2.0000     -10.289849      -280.0010
   2   2.0000     -10.217840      -278.0416
   3   2.0000     -10.211969      -277.8818
   4   2.0000      -1.083772       -29.4909
   5   2.0000      -0.793605       -21.5951
   6   2.0000      -0.641375       -17.4527
   7   2.0000      -0.537387       -14.6230
   8   2.0000      -0.493806       -13.4372
   9   2.0000      -0.459127       -12.4935
  10   2.0000      -0.448476       -12.2036
  11   2.0000      -0.395127       -10.7519
  12   2.0000      -0.387212       -10.5366
  13   2.0000      -0.284234        -7.7344
  14   2.0000      -0.255006        -6.9391
  15   0.0000      -0.028238        -0.7684
  16   0.0000      -0.015475        -0.4211
  17   0.0000       0.072955         1.9852
  18   0.0000       0.084817         2.3080
  19   0.0000       0.086733         2.3601

MULLIKEN ATOMIC CHARGES
-----------------------
   0 C :    0.140474
   1 O :   -0.123298
   2 C :   -0.108345
   3 C :    0.006492
   4 H :   -0.030387
   5 H :    0.047609
   6 H :    0.047318
   7 H :    0.020138
Sum of atomic charges:   -0.0000000

LOEWDIN ATOMIC CHARGES
----------------------
   0 C :   -0.062135
   1 O :    0.061982
   2 C :   -0.069489
   3 C :   -0.029791
   4 H :   -0.017882
   5 H :    0.055703
   6 H :    0.044397
   7 H :    0.017215

  Mayer bond orders larger than 0.100000
B(  0-C ,  1-O ) :   2.2955 B(  0-C ,  2-C ) :   0.9620 B(  0-C ,  4-H ) :   0.8710
B(  2-C ,  3-C ) :   2.0118 B(  2-C ,  5-H ) :   0.9322 B(  3-C ,  6-H ) :   0.9488
B(  3-C ,  7-H ) :   0.9480

-----------------------------------------------------------------------------
         ABSORPTION SPECTRUM VIA TRANSITION ELECTRIC DIPOLE MOMENTS
-----------------------------------------------------------------------------
State   Energy    Wavelength  fosc         T2        TX        TY        TZ
        (cm-1)      (nm)                 (au**2)    (au)      (au)      (au)
-----------------------------------------------------------------------------
   1   35383.9    282.6   0.002141868   0.01993  -0.13342   0.00213   0.04608

FINAL SINGLE POINT ENERGY      -191.616901236428

DIPOLE MOMENT
-------------
                                X             Y             Z
Electronic contribution:     -2.40214      -1.37989      -1.55819
Nuclear contribution   :      2.93232       2.01424       1.94171
                        -----------------------------------------
Total Dipole Moment    :      0.53019       0.63436       0.38352
                        -----------------------------------------
Magnitude (a.u.)       :      0.91137
Magnitude (Debye)      :      2.31651

Rotational constants in cm-1:     0.888204     0.177551     0.162830
Rotational constants in MHz : 26627.681298  5322.859943  4881.529636

                             ****ORCA TERMINATED NORMALLY****
TOTAL RUN TIME: 0 days 0 hours 3 minutes 23 seconds 433 msec
