                         Program Version 5.0.3 -  RELEASE  -
|  1> ! B3LYP cc-pVDZ
|  2> !TightSCF
|  3> %scf
|  4>  ConvForced true
|  5>  convergence tight
|  6>  MaxIter 500
|  7> end
|  8>
|  9> %tddft
| 10>  nroots 1
| 11> end
| 12>
| 13> # 	5752
| 14> * xyz 0 1
| 15> 		C   -1.171454  -0.303429  -0.003966
| 16> 		O   -1.961924  -0.600845  -0.930626
| 17> 		C    0.055675   0.493705  -0.250716
| 18> 		C    1.205672   0.043332   0.255550
| 19> 		H   -1.349187  -0.693717   1.075631
| 20> 		H   -0.092880   1.348442  -1.065718
| 21> 		H    1.200747  -0.761621   0.788737
| 22> 		H    2.092641   0.567135   0.088070
| 23> *
| 24>
| 25>                          ****END OF INPUT****

CARTESIAN COORDINATES (ANGSTROEM)
---------------------------------
  C     -1.171454   -0.303429   -0.003966
  O     -1.961924   -0.600845   -0.930626
  C      0.055675    0.493705   -0.250716
  C      1.205672    0.043332    0.255550
  H     -1.349187   -0.693717    1.075631
  H     -0.092880    1.348442   -1.065718
  H      1.200747   -0.761621    0.788737
  H      2.092641    0.567135    0.088070

 Total Charge           Charge          ....    0
 Multiplicity           Mult            ....    1
 Number of Electrons    NEL             ....   30
 Basis Dimension        Dim             ....   76

ORBITAL ENERGIES
----------------

  NO   OCC          E(Eh)            E(eV)
   0   2.0000     -19.141552      -520.8681
   1   2.0000     -10.284205      -279.8474
   2   2.0000     -10.218867      -278.0695
   3   2.0000     -10.200110      -277.5591
   4   2.0000      -1.024631       -27.8816
   5   2.0000      -0.807537       -21.9742
   6   2.0000      -0.653731       -17.7889
   7   2.0000      -0.563363       -15.3299
   8   2.0000      -0.487475       -13.2649
   9   2.0000      -0.470019       -12.7899
  10   2.0000      -0.423928       -11.5357
  11   2.0000      -0.395658       -10.7664
  12   2.0000      -0.371974       -10.1219
  13   2.0000      -0.291625        -7.9355
  14   2.0000      -0.255632        -6.9561
  15   0.0000      -0.064334        -1.7506
  16   0.0000       0.019592         0.5331
  17   0.0000       0.070148         1.9088
  18   0.0000       0.087194         2.3727
  19   0.0000       0.117750         3.2041

MULLIKEN ATOMIC CHARGES
-----------------------
   0 C :    0.154371
   1 O :   -0.222168
   2 C :   -0.139247
   3 C :    0.171732
   4 H :    0.005274
   5 H :    0.043934
   6 H :   -0.031897
   7 H :    0.018002
Sum of atomic charges:    0.0000000

LOEWDIN ATOMIC CHARGES
----------------------
   0 C :   -0.010419
   1 O :   -0.039343
   2 C :   -0.052726
   3 C :    0.021626
   4 H :    0.004944
   5 H :    0.055976
   6 H :   -0.006392
   7 H :    0.026333

  Mayer bond orders larger than 0.100000
B(  0-C ,  1-O ) :   2.1334 B(  0-C ,  2-C ) :   1.0437 B(  0-C ,  4-H ) :   0.9104
B(  2-C ,  3-C ) :   1.9687 B(  2-C ,  5-H ) :   0.9344 B(  3-C ,  6-H ) :   0.9367
B(  3-C ,  7-H ) :   0.9457

-----------------------------------------------------------------------------
         ABSORPTION SPECTRUM VIA TRANSITION ELECTRIC DIPOLE MOMENTS
-----------------------------------------------------------------------------
State   Energy    Wavelength  fosc         T2        TX        TY        TZ
        (cm-1)      (nm)                 (au**2)    (au)      (au)      (au)
-----------------------------------------------------------------------------
   1   28639.6    349.2   0.001264996   0.01454   0.11873   0.01456   0.01522

FINAL SINGLE POINT ENERGY      -191.649798783733

DIPOLE MOMENT
-------------
                                X             Y             Z
Electronic contribution:     -2.74644      -0.55041      -1.15483
Nuclear contribution   :      3.61922       0.84916       1.75792
                        -----------------------------------------
Total Dipole Moment    :      0.87278       0.29875       0.60308
                        -----------------------------------------
Magnitude (a.u.)       :      1.10214
Magnitude (Debye)      :      2.80141

Rotational constants in cm-1:     1.212832     0.159360     0.149989
Rotational constants in MHz : 36359.780218  4777.503861  4496.552008

                             ****ORCA TERMINATED NORMALLY****
TOTAL RUN TIME: 0 days 0 hours 3 minutes 23 seconds 376 msec
