                         Program Version 5.0.3 -  RELEASE  -
|  1> ! HF-3c
|  2> !TightSCF
|  3> %scf
|  4>  ConvForced true
|  5>  convergence tight
|  6>  MaxIter 500
|  7> end
|  8>
|  9> %tddft
| 10>  nroots 1
| 11> end
| 12>
| 13> # 	541
| 14> * xyz 0 1
| 15> 		C   -1.163006  -0.335910   0.003421
| 16> 		O   -1.281103  -1.555930   0.211689
| 17> 		C   -0.007061   0.514174   0.086099
| 18> 		C    1.202079   0.005563  -0.001355
| 19> 		H   -2.147404   0.149779  -0.314002
| 20> 		H   -0.015805   1.681420   0.266500
| 21> 		H    1.451891  -1.015411  -0.274338
| 22> 		H    2.005710   0.609402   0.025105
| 23> *
| 24>
| 25>                          ****END OF INPUT****

CARTESIAN COORDINATES (ANGSTROEM)
---------------------------------
  C     -1.163006   -0.335910    0.003421
  O     -1.281103   -1.555930    0.211689
  C     -0.007061    0.514174    0.086099
  C      1.202079    0.005563   -0.001355
  H     -2.147404    0.149779   -0.314002
  H     -0.015805    1.681420    0.266500
  H      1.451891   -1.015411   -0.274338
  H      2.005710    0.609402    0.025105

 Total Charge           Charge          ....    0
 Multiplicity           Mult            ....    1
 Number of Electrons    NEL             ....   30
 Basis Dimension        Dim             ....   24

ORBITAL ENERGIES
----------------

  NO   OCC          E(Eh)            E(eV)
   0   2.0000     -20.353615      -553.8500
   1   2.0000     -11.287954      -307.1609
   2   2.0000     -11.200613      -304.7842
   3   2.0000     -11.195940      -304.6570
   4   2.0000      -1.375133       -37.4193
   5   2.0000      -1.096329       -29.8326
   6   2.0000      -0.901535       -24.5320
   7   2.0000      -0.746568       -20.3151
   8   2.0000      -0.701938       -19.1007
   9   2.0000      -0.616444       -16.7743
  10   2.0000      -0.593888       -16.1605
  11   2.0000      -0.533838       -14.5265
  12   2.0000      -0.516087       -14.0434
  13   2.0000      -0.411678       -11.2023
  14   2.0000      -0.399266       -10.8646
  15   0.0000       0.126192         3.4339
  16   0.0000       0.300888         8.1876
  17   0.0000       0.511255        13.9119
  18   0.0000       0.583113        15.8673
  19   0.0000       0.655898        17.8479

MULLIKEN ATOMIC CHARGES
-----------------------
   0 C :    0.154489
   1 O :   -0.345552
   2 C :   -0.172210
   3 C :   -0.227372
   4 H :    0.132553
   5 H :    0.160418
   6 H :    0.157579
   7 H :    0.140095
Sum of atomic charges:   -0.0000000

LOEWDIN ATOMIC CHARGES
----------------------
   0 C :    0.142557
   1 O :   -0.263073
   2 C :   -0.130424
   3 C :   -0.122232
   4 H :    0.073110
   5 H :    0.113506
   6 H :    0.102963
   7 H :    0.083593

  Mayer bond orders larger than 0.100000
B(  0-C ,  1-O ) :   1.8960 B(  0-C ,  2-C ) :   1.0495 B(  0-C ,  4-H ) :   0.9273
B(  2-C ,  3-C ) :   1.9377 B(  2-C ,  5-H ) :   0.9473 B(  3-C ,  6-H ) :   0.9602
B(  3-C ,  7-H ) :   0.9675

-----------------------------------------------------------------------------
         ABSORPTION SPECTRUM VIA TRANSITION ELECTRIC DIPOLE MOMENTS
-----------------------------------------------------------------------------
State   Energy    Wavelength  fosc         T2        TX        TY        TZ
        (cm-1)      (nm)                 (au**2)    (au)      (au)      (au)
-----------------------------------------------------------------------------
   1   30200.1    331.1   0.000063858   0.00070  -0.02411  -0.00168   0.01059

Dispersion correction           -0.025482368
FINAL SINGLE POINT ENERGY      -189.331856667506

DIPOLE MOMENT
-------------
                                X             Y             Z
Electronic contribution:     -2.04519      -1.73097       0.35702
Nuclear contribution   :      2.45926       2.74198      -0.55391
                        -----------------------------------------
Total Dipole Moment    :      0.41407       1.01102      -0.19689
                        -----------------------------------------
Magnitude (a.u.)       :      1.11012
Magnitude (Debye)      :      2.82171

Rotational constants in cm-1:     0.799912     0.200401     0.162014
Rotational constants in MHz : 23980.772851  6007.861857  4857.043370

                             ****ORCA TERMINATED NORMALLY****
TOTAL RUN TIME: 0 days 0 hours 0 minutes 9 seconds 868 msec
