                         Program Version 5.0.3 -  RELEASE  -
|  1> ! B3LYP cc-pVDZ
|  2> !TightSCF
|  3> %scf
|  4>  ConvForced true
|  5>  convergence tight
|  6>  MaxIter 500
|  7> end
|  8>
|  9> %tddft
| 10>  nroots 1
| 11> end
| 12>
| 13> # 	12923
| 14> * xyz 0 1
| 15> 		C   -1.202081  -0.322455   0.053189
| 16> 		O   -1.266951  -1.435848  -0.387764
| 17> 		C    0.041461   0.528450  -0.076984
| 18> 		C    1.222803  -0.007419   0.100451
| 19> 		H   -1.988564   0.210281   0.601138
| 20> 		H   -0.176036   1.681054  -0.479088
| 21> 		H    1.137335  -1.196686   0.320930
| 22> 		H    2.279486   0.525216  -0.106603
| 23> *
| 24>
| 25>                          ****END OF INPUT****

CARTESIAN COORDINATES (ANGSTROEM)
---------------------------------
  C     -1.202081   -0.322455    0.053189
  O     -1.266951   -1.435848   -0.387764
  C      0.041461    0.528450   -0.076984
  C      1.222803   -0.007419    0.100451
  H     -1.988564    0.210281    0.601138
  H     -0.176036    1.681054   -0.479088
  H      1.137335   -1.196686    0.320930
  H      2.279486    0.525216   -0.106603

 Total Charge           Charge          ....    0
 Multiplicity           Mult            ....    1
 Number of Electrons    NEL             ....   30
 Basis Dimension        Dim             ....   76

ORBITAL ENERGIES
----------------

  NO   OCC          E(Eh)            E(eV)
   0   2.0000     -19.148536      -521.0582
   1   2.0000     -10.281527      -279.7746
   2   2.0000     -10.221411      -278.1387
   3   2.0000     -10.211907      -277.8801
   4   2.0000      -1.060174       -28.8488
   5   2.0000      -0.789368       -21.4798
   6   2.0000      -0.646381       -17.5889
   7   2.0000      -0.527625       -14.3574
   8   2.0000      -0.490373       -13.3437
   9   2.0000      -0.447673       -12.1818
  10   2.0000      -0.437424       -11.9029
  11   2.0000      -0.389856       -10.6085
  12   2.0000      -0.358573        -9.7573
  13   2.0000      -0.291487        -7.9318
  14   2.0000      -0.259355        -7.0574
  15   0.0000      -0.052190        -1.4202
  16   0.0000       0.025607         0.6968
  17   0.0000       0.058647         1.5959
  18   0.0000       0.069310         1.8860
  19   0.0000       0.103873         2.8265

MULLIKEN ATOMIC CHARGES
-----------------------
   0 C :    0.193743
   1 O :   -0.174620
   2 C :   -0.142215
   3 C :   -0.023659
   4 H :   -0.010115
   5 H :    0.034844
   6 H :    0.060366
   7 H :    0.061655
Sum of atomic charges:   -0.0000000

LOEWDIN ATOMIC CHARGES
----------------------
   0 C :   -0.028194
   1 O :    0.019130
   2 C :   -0.098969
   3 C :   -0.042832
   4 H :   -0.006435
   5 H :    0.048681
   6 H :    0.055819
   7 H :    0.052800

  Mayer bond orders larger than 0.100000
B(  0-C ,  1-O ) :   2.2172 B(  0-C ,  2-C ) :   1.0023 B(  0-C ,  4-H ) :   0.9123
B(  2-C ,  3-C ) :   1.9981 B(  2-C ,  5-H ) :   0.9225 B(  3-C ,  6-H ) :   0.9131
B(  3-C ,  7-H ) :   0.9383

-----------------------------------------------------------------------------
         ABSORPTION SPECTRUM VIA TRANSITION ELECTRIC DIPOLE MOMENTS
-----------------------------------------------------------------------------
State   Energy    Wavelength  fosc         T2        TX        TY        TZ
        (cm-1)      (nm)                 (au**2)    (au)      (au)      (au)
-----------------------------------------------------------------------------
   1   31781.4    314.6   0.000408258   0.00423  -0.06063   0.01429   0.01869

FINAL SINGLE POINT ENERGY      -191.631402510321

DIPOLE MOMENT
-------------
                                X             Y             Z
Electronic contribution:     -2.11799      -1.65408      -0.41643
Nuclear contribution   :      2.38319       2.42403       0.64209
                        -----------------------------------------
Total Dipole Moment    :      0.26521       0.76995       0.22565
                        -----------------------------------------
Magnitude (a.u.)       :      0.84503
Magnitude (Debye)      :      2.14789

Rotational constants in cm-1:     0.765083     0.200677     0.165157
Rotational constants in MHz : 22936.607969  6016.144614  4951.274146

                             ****ORCA TERMINATED NORMALLY****
TOTAL RUN TIME: 0 days 0 hours 2 minutes 40 seconds 670 msec
