                         Program Version 5.0.3 -  RELEASE  -
|  1> ! B3LYP cc-pVDZ
|  2> !TightSCF
|  3> %scf
|  4>  ConvForced true
|  5>  convergence tight
|  6>  MaxIter 500
|  7> end
|  8>
|  9> %tddft
| 10>  nroots 1
| 11> end
| 12>
| 13> # 	27796
| 14> * xyz 0 1
| 15> 		C   -0.570150  -0.430654   0.043142
| 16> 		O   -0.571269  -1.610817  -0.039714
| 17> 		C    0.626032   0.398926  -0.036507
| 18> 		C    1.819101  -0.133199   0.026480
| 19> 		H   -1.639482   0.000410   0.226714
| 20> 		H    0.688255   1.478727  -0.098535
| 21> 		H    1.903355  -1.249782   0.327541
| 22> 		H    2.761431   0.532297  -0.246265
| 23> *
| 24>
| 25>                          ****END OF INPUT****

CARTESIAN COORDINATES (ANGSTROEM)
---------------------------------
  C     -0.570150   -0.430654    0.043142
  O     -0.571269   -1.610817   -0.039714
  C      0.626032    0.398926   -0.036507
  C      1.819101   -0.133199    0.026480
  H     -1.639482    0.000410    0.226714
  H      0.688255    1.478727   -0.098535
  H      1.903355   -1.249782    0.327541
  H      2.761431    0.532297   -0.246265

 Total Charge           Charge          ....    0
 Multiplicity           Mult            ....    1
 Number of Electrons    NEL             ....   30
 Basis Dimension        Dim             ....   76

ORBITAL ENERGIES
----------------

  NO   OCC          E(Eh)            E(eV)
   0   2.0000     -19.135902      -520.7144
   1   2.0000     -10.276312      -279.6327
   2   2.0000     -10.221462      -278.1401
   3   2.0000     -10.199227      -277.5351
   4   2.0000      -1.063464       -28.9383
   5   2.0000      -0.803444       -21.8628
   6   2.0000      -0.641539       -17.4572
   7   2.0000      -0.532418       -14.4878
   8   2.0000      -0.516124       -14.0444
   9   2.0000      -0.444067       -12.0837
  10   2.0000      -0.424463       -11.5502
  11   2.0000      -0.403850       -10.9893
  12   2.0000      -0.373206       -10.1554
  13   2.0000      -0.290784        -7.9126
  14   2.0000      -0.253476        -6.8974
  15   0.0000      -0.063976        -1.7409
  16   0.0000       0.054947         1.4952
  17   0.0000       0.068095         1.8530
  18   0.0000       0.084893         2.3101
  19   0.0000       0.113278         3.0825

MULLIKEN ATOMIC CHARGES
-----------------------
   0 C :    0.159322
   1 O :   -0.165841
   2 C :   -0.059977
   3 C :   -0.001534
   4 H :   -0.024784
   5 H :   -0.013906
   6 H :    0.053089
   7 H :    0.053631
Sum of atomic charges:    0.0000000

LOEWDIN ATOMIC CHARGES
----------------------
   0 C :   -0.057861
   1 O :    0.020264
   2 C :   -0.098315
   3 C :    0.011208
   4 H :   -0.004285
   5 H :    0.032919
   6 H :    0.044507
   7 H :    0.051562

  Mayer bond orders larger than 0.100000
B(  0-C ,  1-O ) :   2.2152 B(  0-C ,  2-C ) :   1.0103 B(  0-C ,  4-H ) :   0.9214
B(  2-C ,  3-C ) :   1.9698 B(  2-C ,  5-H ) :   0.9412 B(  3-C ,  6-H ) :   0.9272
B(  3-C ,  7-H ) :   0.9339

-----------------------------------------------------------------------------
         ABSORPTION SPECTRUM VIA TRANSITION ELECTRIC DIPOLE MOMENTS
-----------------------------------------------------------------------------
State   Energy    Wavelength  fosc         T2        TX        TY        TZ
        (cm-1)      (nm)                 (au**2)    (au)      (au)      (au)
-----------------------------------------------------------------------------
   1   28746.6    347.9   0.000218230   0.00250  -0.00125   0.00438   0.04978

FINAL SINGLE POINT ENERGY      -191.656399265038

DIPOLE MOMENT
-------------
                                X             Y             Z
Electronic contribution:     -1.89687      -1.66270      -0.14129
Nuclear contribution   :      2.32480       2.50411       0.19770
                        -----------------------------------------
Total Dipole Moment    :      0.42792       0.84141       0.05641
                        -----------------------------------------
Magnitude (a.u.)       :      0.94566
Magnitude (Debye)      :      2.40368

Rotational constants in cm-1:     0.800615     0.212408     0.168888
Rotational constants in MHz : 24001.820360  6367.831965  5063.139667

                             ****ORCA TERMINATED NORMALLY****
TOTAL RUN TIME: 0 days 0 hours 3 minutes 21 seconds 266 msec
