                         Program Version 5.0.3 -  RELEASE  -
|  1> ! B3LYP cc-pVDZ
|  2> !TightSCF
|  3> %scf
|  4>  ConvForced true
|  5>  convergence tight
|  6>  MaxIter 500
|  7> end
|  8>
|  9> %tddft
| 10>  nroots 1
| 11> end
| 12>
| 13> # 	17774
| 14> * xyz 0 1
| 15> 		C   -1.178380  -0.282677   0.078564
| 16> 		O   -1.712308  -0.782496   1.032529
| 17> 		C    0.053207   0.489407   0.205650
| 18> 		C    1.245540   0.057576  -0.186354
| 19> 		H   -1.785935  -0.260593  -1.142857
| 20> 		H   -0.115311   1.279362   0.802353
| 21> 		H    1.289989  -1.002230  -0.601871
| 22> 		H    2.205594   0.527311  -0.183272
| 23> *
| 24>
| 25>                          ****END OF INPUT****

CARTESIAN COORDINATES (ANGSTROEM)
---------------------------------
  C     -1.178380   -0.282677    0.078564
  O     -1.712308   -0.782496    1.032529
  C      0.053207    0.489407    0.205650
  C      1.245540    0.057576   -0.186354
  H     -1.785935   -0.260593   -1.142857
  H     -0.115311    1.279362    0.802353
  H      1.289989   -1.002230   -0.601871
  H      2.205594    0.527311   -0.183272

 Total Charge           Charge          ....    0
 Multiplicity           Mult            ....    1
 Number of Electrons    NEL             ....   30
 Basis Dimension        Dim             ....   76

ORBITAL ENERGIES
----------------

  NO   OCC          E(Eh)            E(eV)
   0   2.0000     -19.155475      -521.2470
   1   2.0000     -10.297971      -280.2220
   2   2.0000     -10.212890      -277.9069
   3   2.0000     -10.204410      -277.6761
   4   2.0000      -1.064919       -28.9779
   5   2.0000      -0.805265       -21.9124
   6   2.0000      -0.654090       -17.7987
   7   2.0000      -0.551628       -15.0106
   8   2.0000      -0.491173       -13.3655
   9   2.0000      -0.466758       -12.7011
  10   2.0000      -0.445933       -12.1344
  11   2.0000      -0.394188       -10.7264
  12   2.0000      -0.379726       -10.3329
  13   2.0000      -0.289327        -7.8730
  14   2.0000      -0.258208        -7.0262
  15   0.0000      -0.048071        -1.3081
  16   0.0000      -0.005263        -0.1432
  17   0.0000       0.060471         1.6455
  18   0.0000       0.088841         2.4175
  19   0.0000       0.098202         2.6722

MULLIKEN ATOMIC CHARGES
-----------------------
   0 C :    0.084448
   1 O :   -0.157736
   2 C :    0.014118
   3 C :    0.023230
   4 H :   -0.013909
   5 H :   -0.011400
   6 H :    0.031229
   7 H :    0.030020
Sum of atomic charges:    0.0000000

LOEWDIN ATOMIC CHARGES
----------------------
   0 C :   -0.031788
   1 O :    0.024090
   2 C :   -0.050827
   3 C :   -0.013380
   4 H :   -0.010511
   5 H :    0.018328
   6 H :    0.038720
   7 H :    0.025368

  Mayer bond orders larger than 0.100000
B(  0-C ,  1-O ) :   2.2205 B(  0-C ,  2-C ) :   0.9911 B(  0-C ,  4-H ) :   0.8504
B(  2-C ,  3-C ) :   2.0056 B(  2-C ,  5-H ) :   0.9448 B(  3-C ,  6-H ) :   0.9427
B(  3-C ,  7-H ) :   0.9543

-----------------------------------------------------------------------------
         ABSORPTION SPECTRUM VIA TRANSITION ELECTRIC DIPOLE MOMENTS
-----------------------------------------------------------------------------
State   Energy    Wavelength  fosc         T2        TX        TY        TZ
        (cm-1)      (nm)                 (au**2)    (au)      (au)      (au)
-----------------------------------------------------------------------------
   1   32595.9    306.8   0.002027711   0.02048  -0.13758   0.02682   0.02883

FINAL SINGLE POINT ENERGY      -191.616346075693

DIPOLE MOMENT
-------------
                                X             Y             Z
Electronic contribution:     -2.43380      -0.65903       1.73357
Nuclear contribution   :      3.10625       1.08977      -2.15363
                        -----------------------------------------
Total Dipole Moment    :      0.67245       0.43074      -0.42005
                        -----------------------------------------
Magnitude (a.u.)       :      0.90231
Magnitude (Debye)      :      2.29350

Rotational constants in cm-1:     1.070353     0.161790     0.160992
Rotational constants in MHz : 32088.381235  4850.356443  4826.413738

                             ****ORCA TERMINATED NORMALLY****
TOTAL RUN TIME: 0 days 0 hours 3 minutes 16 seconds 122 msec
