                         Program Version 5.0.3 -  RELEASE  -
|  1> ! HF-3c
|  2> !TightSCF
|  3> %scf
|  4>  ConvForced true
|  5>  convergence tight
|  6>  MaxIter 500
|  7> end
|  8>
|  9> %tddft
| 10>  nroots 1
| 11> end
| 12>
| 13> # 	20589
| 14> * xyz 0 1
| 15> 		C   -0.542802  -0.435958  -0.011727
| 16> 		O   -0.558659  -1.604618   0.001707
| 17> 		C    0.657894   0.441790  -0.000368
| 18> 		C    1.759410  -0.180448   0.015172
| 19> 		H   -1.535739   0.054152   0.005354
| 20> 		H    0.580159   1.603042   0.078345
| 21> 		H    1.960499  -1.266161   0.028460
| 22> 		H    2.534985   0.421866  -0.182796
| 23> *
| 24>
| 25>                          ****END OF INPUT****

CARTESIAN COORDINATES (ANGSTROEM)
---------------------------------
  C     -0.542802   -0.435958   -0.011727
  O     -0.558659   -1.604618    0.001707
  C      0.657894    0.441790   -0.000368
  C      1.759410   -0.180448    0.015172
  H     -1.535739    0.054152    0.005354
  H      0.580159    1.603042    0.078345
  H      1.960499   -1.266161    0.028460
  H      2.534985    0.421866   -0.182796

 Total Charge           Charge          ....    0
 Multiplicity           Mult            ....    1
 Number of Electrons    NEL             ....   30
 Basis Dimension        Dim             ....   24

ORBITAL ENERGIES
----------------

  NO   OCC          E(Eh)            E(eV)
   0   2.0000     -20.373773      -554.3985
   1   2.0000     -11.301090      -307.5183
   2   2.0000     -11.194609      -304.6208
   3   2.0000     -11.190518      -304.5095
   4   2.0000      -1.433891       -39.0181
   5   2.0000      -1.108565       -30.1656
   6   2.0000      -0.886935       -24.1347
   7   2.0000      -0.748726       -20.3739
   8   2.0000      -0.716919       -19.5084
   9   2.0000      -0.624543       -16.9947
  10   2.0000      -0.600273       -16.3343
  11   2.0000      -0.563657       -15.3379
  12   2.0000      -0.536294       -14.5933
  13   2.0000      -0.419448       -11.4138
  14   2.0000      -0.402429       -10.9507
  15   0.0000       0.150565         4.0971
  16   0.0000       0.325278         8.8513
  17   0.0000       0.523255        14.2385
  18   0.0000       0.573593        15.6083
  19   0.0000       0.676157        18.3992

MULLIKEN ATOMIC CHARGES
-----------------------
   0 C :    0.183624
   1 O :   -0.364382
   2 C :   -0.168920
   3 C :   -0.246452
   4 H :    0.125975
   5 H :    0.157153
   6 H :    0.169992
   7 H :    0.143011
Sum of atomic charges:   -0.0000000

LOEWDIN ATOMIC CHARGES
----------------------
   0 C :    0.152371
   1 O :   -0.256313
   2 C :   -0.128484
   3 C :   -0.140030
   4 H :    0.061669
   5 H :    0.109076
   6 H :    0.115101
   7 H :    0.086609

  Mayer bond orders larger than 0.100000
B(  0-C ,  1-O ) :   1.9212 B(  0-C ,  2-C ) :   0.9988 B(  0-C ,  4-H ) :   0.9233
B(  2-C ,  3-C ) :   1.9697 B(  2-C ,  5-H ) :   0.9522 B(  3-C ,  6-H ) :   0.9535
B(  3-C ,  7-H ) :   0.9633

-----------------------------------------------------------------------------
         ABSORPTION SPECTRUM VIA TRANSITION ELECTRIC DIPOLE MOMENTS
-----------------------------------------------------------------------------
State   Energy    Wavelength  fosc         T2        TX        TY        TZ
        (cm-1)      (nm)                 (au**2)    (au)      (au)      (au)
-----------------------------------------------------------------------------
   1   35100.8    284.9   0.000034813   0.00033   0.00367   0.00066   0.01768

Dispersion correction           -0.026287134
FINAL SINGLE POINT ENERGY      -189.304303548948

DIPOLE MOMENT
-------------
                                X             Y             Z
Electronic contribution:     -1.86640      -1.62984       0.04435
Nuclear contribution   :      2.16066       2.54996      -0.06578
                        -----------------------------------------
Total Dipole Moment    :      0.29426       0.92013      -0.02143
                        -----------------------------------------
Magnitude (a.u.)       :      0.96627
Magnitude (Debye)      :      2.45606

Rotational constants in cm-1:     0.782877     0.224949     0.174904
Rotational constants in MHz : 23470.060186  6743.793481  5243.475514

                             ****ORCA TERMINATED NORMALLY****
TOTAL RUN TIME: 0 days 0 hours 0 minutes 8 seconds 192 msec
