                         Program Version 5.0.3 -  RELEASE  -
|  1> ! HF-3c
|  2> !TightSCF
|  3> %scf
|  4>  ConvForced true
|  5>  convergence tight
|  6>  MaxIter 500
|  7> end
|  8>
|  9> %tddft
| 10>  nroots 1
| 11> end
| 12>
| 13> # 	23472
| 14> * xyz 0 1
| 15> 		C   -0.585263  -0.420196   0.003018
| 16> 		O   -0.602727  -1.701878   0.007382
| 17> 		C    0.687964   0.483247   0.046988
| 18> 		C    1.826179  -0.122184   0.004197
| 19> 		H   -1.553191  -0.003640  -0.369310
| 20> 		H    0.443474   1.580924  -0.022074
| 21> 		H    2.017029  -1.140406  -0.149850
| 22> 		H    2.680730   0.531654  -0.227230
| 23> *
| 24>
| 25>                          ****END OF INPUT****

CARTESIAN COORDINATES (ANGSTROEM)
---------------------------------
  C     -0.585263   -0.420196    0.003018
  O     -0.602727   -1.701878    0.007382
  C      0.687964    0.483247    0.046988
  C      1.826179   -0.122184    0.004197
  H     -1.553191   -0.003640   -0.369310
  H      0.443474    1.580924   -0.022074
  H      2.017029   -1.140406   -0.149850
  H      2.680730    0.531654   -0.227230

 Total Charge           Charge          ....    0
 Multiplicity           Mult            ....    1
 Number of Electrons    NEL             ....   30
 Basis Dimension        Dim             ....   24

ORBITAL ENERGIES
----------------

  NO   OCC          E(Eh)            E(eV)
   0   2.0000     -20.339946      -553.4781
   1   2.0000     -11.269416      -306.6564
   2   2.0000     -11.202995      -304.8490
   3   2.0000     -11.194080      -304.6064
   4   2.0000      -1.345467       -36.6120
   5   2.0000      -1.088267       -29.6132
   6   2.0000      -0.875368       -23.8200
   7   2.0000      -0.749150       -20.3854
   8   2.0000      -0.686714       -18.6864
   9   2.0000      -0.622885       -16.9496
  10   2.0000      -0.572340       -15.5742
  11   2.0000      -0.522034       -14.2053
  12   2.0000      -0.504580       -13.7303
  13   2.0000      -0.404126       -10.9968
  14   2.0000      -0.402813       -10.9611
  15   0.0000       0.134775         3.6674
  16   0.0000       0.282128         7.6771
  17   0.0000       0.492371        13.3981
  18   0.0000       0.558773        15.2050
  19   0.0000       0.669962        18.2306

MULLIKEN ATOMIC CHARGES
-----------------------
   0 C :    0.144041
   1 O :   -0.346671
   2 C :   -0.157895
   3 C :   -0.240874
   4 H :    0.136469
   5 H :    0.153817
   6 H :    0.165065
   7 H :    0.146048
Sum of atomic charges:    0.0000000

LOEWDIN ATOMIC CHARGES
----------------------
   0 C :    0.137535
   1 O :   -0.271687
   2 C :   -0.109365
   3 C :   -0.139634
   4 H :    0.077148
   5 H :    0.102810
   6 H :    0.106271
   7 H :    0.096922

  Mayer bond orders larger than 0.100000
B(  0-C ,  1-O ) :   1.9148 B(  0-C ,  2-C ) :   0.9941 B(  0-C ,  4-H ) :   0.9371
B(  2-C ,  3-C ) :   1.9757 B(  2-C ,  5-H ) :   0.9548 B(  3-C ,  6-H ) :   0.9571
B(  3-C ,  7-H ) :   0.9582

-----------------------------------------------------------------------------
         ABSORPTION SPECTRUM VIA TRANSITION ELECTRIC DIPOLE MOMENTS
-----------------------------------------------------------------------------
State   Energy    Wavelength  fosc         T2        TX        TY        TZ
        (cm-1)      (nm)                 (au**2)    (au)      (au)      (au)
-----------------------------------------------------------------------------
   1   28743.6    347.9   0.000142361   0.00163  -0.03399  -0.01397  -0.01673

Dispersion correction           -0.025196395
FINAL SINGLE POINT ENERGY      -189.338509888957

DIPOLE MOMENT
-------------
                                X             Y             Z
Electronic contribution:     -1.90983      -1.65901       0.53787
Nuclear contribution   :      2.20540       2.69535      -0.72048
                        -----------------------------------------
Total Dipole Moment    :      0.29556       1.03634      -0.18261
                        -----------------------------------------
Magnitude (a.u.)       :      1.09302
Magnitude (Debye)      :      2.77824

Rotational constants in cm-1:     0.733371     0.199529     0.157558
Rotational constants in MHz : 21985.912621  5981.714720  4723.465212

                             ****ORCA TERMINATED NORMALLY****
TOTAL RUN TIME: 0 days 0 hours 0 minutes 11 seconds 432 msec
