                         Program Version 5.0.3 -  RELEASE  -
|  1> ! HF-3c
|  2> !TightSCF
|  3> %scf
|  4>  ConvForced true
|  5>  convergence tight
|  6>  MaxIter 500
|  7> end
|  8>
|  9> %tddft
| 10>  nroots 1
| 11> end
| 12>
| 13> # 	30366
| 14> * xyz 0 1
| 15> 		C   -0.537139  -0.451159   0.069326
| 16> 		O   -0.611842  -1.624978  -0.033236
| 17> 		C    0.599591   0.414453  -0.072947
| 18> 		C    1.850842  -0.099344   0.014043
| 19> 		H   -1.496792  -0.045380   0.143772
| 20> 		H    0.489772   1.524100  -0.013099
| 21> 		H    1.994253  -1.204385   0.162510
| 22> 		H    2.887962   0.366847   0.110198
| 23> *
| 24>
| 25>                          ****END OF INPUT****

CARTESIAN COORDINATES (ANGSTROEM)
---------------------------------
  C     -0.537139   -0.451159    0.069326
  O     -0.611842   -1.624978   -0.033236
  C      0.599591    0.414453   -0.072947
  C      1.850842   -0.099344    0.014043
  H     -1.496792   -0.045380    0.143772
  H      0.489772    1.524100   -0.013099
  H      1.994253   -1.204385    0.162510
  H      2.887962    0.366847    0.110198

 Total Charge           Charge          ....    0
 Multiplicity           Mult            ....    1
 Number of Electrons    NEL             ....   30
 Basis Dimension        Dim             ....   24

ORBITAL ENERGIES
----------------

  NO   OCC          E(Eh)            E(eV)
   0   2.0000     -20.361246      -554.0577
   1   2.0000     -11.299963      -307.4876
   2   2.0000     -11.195122      -304.6348
   3   2.0000     -11.189878      -304.4921
   4   2.0000      -1.422056       -38.6961
   5   2.0000      -1.075650       -29.2699
   6   2.0000      -0.891654       -24.2631
   7   2.0000      -0.758507       -20.6400
   8   2.0000      -0.706716       -19.2307
   9   2.0000      -0.619911       -16.8686
  10   2.0000      -0.587929       -15.9984
  11   2.0000      -0.555549       -15.1173
  12   2.0000      -0.514067       -13.9885
  13   2.0000      -0.411425       -11.1954
  14   2.0000      -0.388885       -10.5821
  15   0.0000       0.129366         3.5202
  16   0.0000       0.316699         8.6178
  17   0.0000       0.515402        14.0248
  18   0.0000       0.614245        16.7145
  19   0.0000       0.629413        17.1272

MULLIKEN ATOMIC CHARGES
-----------------------
   0 C :    0.150089
   1 O :   -0.357781
   2 C :   -0.190559
   3 C :   -0.186768
   4 H :    0.137127
   5 H :    0.150145
   6 H :    0.148495
   7 H :    0.149251
Sum of atomic charges:   -0.0000000

LOEWDIN ATOMIC CHARGES
----------------------
   0 C :    0.134257
   1 O :   -0.257731
   2 C :   -0.151838
   3 C :   -0.090316
   4 H :    0.066933
   5 H :    0.099908
   6 H :    0.097759
   7 H :    0.101027

  Mayer bond orders larger than 0.100000
B(  0-C ,  1-O ) :   1.8874 B(  0-C ,  2-C ) :   1.0451 B(  0-C ,  4-H ) :   0.9327
B(  2-C ,  3-C ) :   1.9213 B(  2-C ,  5-H ) :   0.9558 B(  3-C ,  6-H ) :   0.9610
B(  3-C ,  7-H ) :   0.9639

-----------------------------------------------------------------------------
         ABSORPTION SPECTRUM VIA TRANSITION ELECTRIC DIPOLE MOMENTS
-----------------------------------------------------------------------------
State   Energy    Wavelength  fosc         T2        TX        TY        TZ
        (cm-1)      (nm)                 (au**2)    (au)      (au)      (au)
-----------------------------------------------------------------------------
   1   32847.5    304.4   0.000266991   0.00268   0.05024   0.00779   0.00953

Dispersion correction           -0.025553893
FINAL SINGLE POINT ENERGY      -189.317644505785

DIPOLE MOMENT
-------------
                                X             Y             Z
Electronic contribution:     -1.93120      -1.51153      -0.22551
Nuclear contribution   :      2.47759       2.39095       0.37795
                        -----------------------------------------
Total Dipole Moment    :      0.54639       0.87943       0.15244
                        -----------------------------------------
Magnitude (a.u.)       :      1.04650
Magnitude (Debye)      :      2.66000

Rotational constants in cm-1:     0.801936     0.206020     0.164554
Rotational constants in MHz : 24041.428864  6176.315527  4933.192908

                             ****ORCA TERMINATED NORMALLY****
TOTAL RUN TIME: 0 days 0 hours 0 minutes 10 seconds 88 msec
