                         Program Version 5.0.3 -  RELEASE  -
|  1> ! HF-3c
|  2> !TightSCF
|  3> %scf
|  4>  ConvForced true
|  5>  convergence tight
|  6>  MaxIter 500
|  7> end
|  8>
|  9> %tddft
| 10>  nroots 1
| 11> end
| 12>
| 13> # 	23217
| 14> * xyz 0 1
| 15> 		C   -0.554490  -0.463823   0.002421
| 16> 		O   -0.582148  -1.630769  -0.009242
| 17> 		C    0.600454   0.457918  -0.006751
| 18> 		C    1.862864  -0.145214   0.037870
| 19> 		H   -1.665010   0.039107   0.058280
| 20> 		H    0.556292   1.591535  -0.041637
| 21> 		H    1.792797  -1.266675  -0.033539
| 22> 		H    2.796271   0.540755  -0.251905
| 23> *
| 24>
| 25>                          ****END OF INPUT****

CARTESIAN COORDINATES (ANGSTROEM)
---------------------------------
  C     -0.554490   -0.463823    0.002421
  O     -0.582148   -1.630769   -0.009242
  C      0.600454    0.457918   -0.006751
  C      1.862864   -0.145214    0.037870
  H     -1.665010    0.039107    0.058280
  H      0.556292    1.591535   -0.041637
  H      1.792797   -1.266675   -0.033539
  H      2.796271    0.540755   -0.251905

 Total Charge           Charge          ....    0
 Multiplicity           Mult            ....    1
 Number of Electrons    NEL             ....   30
 Basis Dimension        Dim             ....   24

ORBITAL ENERGIES
----------------

  NO   OCC          E(Eh)            E(eV)
   0   2.0000     -20.364055      -554.1341
   1   2.0000     -11.298072      -307.4362
   2   2.0000     -11.182113      -304.2808
   3   2.0000     -11.173877      -304.0567
   4   2.0000      -1.427626       -38.8477
   5   2.0000      -1.054469       -28.6936
   6   2.0000      -0.857333       -23.3292
   7   2.0000      -0.714679       -19.4474
   8   2.0000      -0.696920       -18.9642
   9   2.0000      -0.600971       -16.3533
  10   2.0000      -0.566711       -15.4210
  11   2.0000      -0.551951       -15.0193
  12   2.0000      -0.522536       -14.2189
  13   2.0000      -0.390321       -10.6212
  14   2.0000      -0.373920       -10.1749
  15   0.0000       0.131483         3.5778
  16   0.0000       0.314409         8.5555
  17   0.0000       0.498720        13.5709
  18   0.0000       0.547485        14.8978
  19   0.0000       0.571552        15.5527

MULLIKEN ATOMIC CHARGES
-----------------------
   0 C :    0.186971
   1 O :   -0.378985
   2 C :   -0.185092
   3 C :   -0.198076
   4 H :    0.116474
   5 H :    0.144460
   6 H :    0.162341
   7 H :    0.151908
Sum of atomic charges:   -0.0000000

LOEWDIN ATOMIC CHARGES
----------------------
   0 C :    0.149088
   1 O :   -0.270331
   2 C :   -0.150730
   3 C :   -0.107007
   4 H :    0.061971
   5 H :    0.096884
   6 H :    0.110870
   7 H :    0.109254

  Mayer bond orders larger than 0.100000
B(  0-C ,  1-O ) :   1.9024 B(  0-C ,  2-C ) :   1.0273 B(  0-C ,  4-H ) :   0.9086
B(  2-C ,  3-C ) :   1.9184 B(  2-C ,  5-H ) :   0.9610 B(  3-C ,  6-H ) :   0.9544
B(  3-C ,  7-H ) :   0.9602

-----------------------------------------------------------------------------
         ABSORPTION SPECTRUM VIA TRANSITION ELECTRIC DIPOLE MOMENTS
-----------------------------------------------------------------------------
State   Energy    Wavelength  fosc         T2        TX        TY        TZ
        (cm-1)      (nm)                 (au**2)    (au)      (au)      (au)
-----------------------------------------------------------------------------
   1   34408.9    290.6   0.000107473   0.00103  -0.00801   0.00379  -0.03082

Dispersion correction           -0.025471738
FINAL SINGLE POINT ENERGY      -189.295769458055

DIPOLE MOMENT
-------------
                                X             Y             Z
Electronic contribution:     -1.64180      -1.69061       0.17759
Nuclear contribution   :      2.10602       2.63865      -0.25125
                        -----------------------------------------
Total Dipole Moment    :      0.46422       0.94804      -0.07366
                        -----------------------------------------
Magnitude (a.u.)       :      1.05816
Magnitude (Debye)      :      2.68964

Rotational constants in cm-1:     0.750305     0.207579     0.162877
Rotational constants in MHz : 22493.571467  6223.073901  4882.918865

                             ****ORCA TERMINATED NORMALLY****
TOTAL RUN TIME: 0 days 0 hours 0 minutes 13 seconds 501 msec
