                         Program Version 5.0.3 -  RELEASE  -
|  1> ! HF-3c
|  2> !TightSCF
|  3> %scf
|  4>  ConvForced true
|  5>  convergence tight
|  6>  MaxIter 500
|  7> end
|  8>
|  9> %tddft
| 10>  nroots 1
| 11> end
| 12>
| 13> # 	23223
| 14> * xyz 0 1
| 15> 		C   -0.578086  -0.399774  -0.052606
| 16> 		O   -0.548796  -1.603707   0.019634
| 17> 		C    0.632695   0.395558   0.029583
| 18> 		C    1.790064  -0.156753  -0.025504
| 19> 		H   -1.357554   0.019424   0.098702
| 20> 		H    0.383061   1.488448   0.049499
| 21> 		H    1.829404  -1.243638   0.056905
| 22> 		H    2.813335   0.356851   0.065399
| 23> *
| 24>
| 25>                          ****END OF INPUT****

CARTESIAN COORDINATES (ANGSTROEM)
---------------------------------
  C     -0.578086   -0.399774   -0.052606
  O     -0.548796   -1.603707    0.019634
  C      0.632695    0.395558    0.029583
  C      1.790064   -0.156753   -0.025504
  H     -1.357554    0.019424    0.098702
  H      0.383061    1.488448    0.049499
  H      1.829404   -1.243638    0.056905
  H      2.813335    0.356851    0.065399

 Total Charge           Charge          ....    0
 Multiplicity           Mult            ....    1
 Number of Electrons    NEL             ....   30
 Basis Dimension        Dim             ....   24

ORBITAL ENERGIES
----------------

  NO   OCC          E(Eh)            E(eV)
   0   2.0000     -20.374743      -554.4249
   1   2.0000     -11.305452      -307.6370
   2   2.0000     -11.192575      -304.5654
   3   2.0000     -11.191024      -304.5233
   4   2.0000      -1.416881       -38.5553
   5   2.0000      -1.095266       -29.8037
   6   2.0000      -0.928963       -25.2784
   7   2.0000      -0.777791       -21.1648
   8   2.0000      -0.708814       -19.2878
   9   2.0000      -0.630102       -17.1459
  10   2.0000      -0.601497       -16.3676
  11   2.0000      -0.555852       -15.1255
  12   2.0000      -0.519557       -14.1379
  13   2.0000      -0.430764       -11.7217
  14   2.0000      -0.403884       -10.9902
  15   0.0000       0.129464         3.5229
  16   0.0000       0.315911         8.5964
  17   0.0000       0.521909        14.2019
  18   0.0000       0.636454        17.3188
  19   0.0000       0.667997        18.1771

MULLIKEN ATOMIC CHARGES
-----------------------
   0 C :    0.125003
   1 O :   -0.332230
   2 C :   -0.174885
   3 C :   -0.214792
   4 H :    0.140274
   5 H :    0.144305
   6 H :    0.160560
   7 H :    0.151767
Sum of atomic charges:    0.0000000

LOEWDIN ATOMIC CHARGES
----------------------
   0 C :    0.125544
   1 O :   -0.238233
   2 C :   -0.132235
   3 C :   -0.119255
   4 H :    0.059502
   5 H :    0.094337
   6 H :    0.105808
   7 H :    0.104533

  Mayer bond orders larger than 0.100000
B(  0-C ,  1-O ) :   1.8964 B(  0-C ,  2-C ) :   1.0287 B(  0-C ,  4-H ) :   0.9462
B(  2-C ,  3-C ) :   1.9543 B(  2-C ,  5-H ) :   0.9542 B(  3-C ,  6-H ) :   0.9520
B(  3-C ,  7-H ) :   0.9597

-----------------------------------------------------------------------------
         ABSORPTION SPECTRUM VIA TRANSITION ELECTRIC DIPOLE MOMENTS
-----------------------------------------------------------------------------
State   Energy    Wavelength  fosc         T2        TX        TY        TZ
        (cm-1)      (nm)                 (au**2)    (au)      (au)      (au)
-----------------------------------------------------------------------------
   1   30980.3    322.8   0.000056913   0.00060   0.02273   0.00693  -0.00632

Dispersion correction           -0.026682851
FINAL SINGLE POINT ENERGY      -189.291906620242

DIPOLE MOMENT
-------------
                                X             Y             Z
Electronic contribution:     -1.93010      -1.53707      -0.23138
Nuclear contribution   :      2.28599       2.37102       0.25381
                        -----------------------------------------
Total Dipole Moment    :      0.35589       0.83394       0.02243
                        -----------------------------------------
Magnitude (a.u.)       :      0.90699
Magnitude (Debye)      :      2.30537

Rotational constants in cm-1:     0.784473     0.224337     0.174730
Rotational constants in MHz : 23517.921062  6725.455424  5238.262831

                             ****ORCA TERMINATED NORMALLY****
TOTAL RUN TIME: 0 days 0 hours 0 minutes 10 seconds 813 msec
