                         Program Version 5.0.3 -  RELEASE  -
|  1> ! B3LYP cc-pVDZ
|  2> !TightSCF
|  3> %scf
|  4>  ConvForced true
|  5>  convergence tight
|  6>  MaxIter 500
|  7> end
|  8>
|  9> %tddft
| 10>  nroots 1
| 11> end
| 12>
| 13> # 	16061
| 14> * xyz 0 1
| 15> 		C   -1.161237  -0.224760   0.040054
| 16> 		O   -1.132655  -1.486447  -0.195246
| 17> 		C    0.023743   0.602142  -0.065097
| 18> 		C    1.227226  -0.050032   0.014630
| 19> 		H   -2.073553   0.033837   0.132239
| 20> 		H   -0.206595   1.724745  -0.167187
| 21> 		H    1.311760  -1.246495   0.028742
| 22> 		H    2.032791   0.589872   0.187556
| 23> *
| 24>
| 25>                          ****END OF INPUT****

CARTESIAN COORDINATES (ANGSTROEM)
---------------------------------
  C     -1.161237   -0.224760    0.040054
  O     -1.132655   -1.486447   -0.195246
  C      0.023743    0.602142   -0.065097
  C      1.227226   -0.050032    0.014630
  H     -2.073553    0.033837    0.132239
  H     -0.206595    1.724745   -0.167187
  H      1.311760   -1.246495    0.028742
  H      2.032791    0.589872    0.187556

 Total Charge           Charge          ....    0
 Multiplicity           Mult            ....    1
 Number of Electrons    NEL             ....   30
 Basis Dimension        Dim             ....   76

ORBITAL ENERGIES
----------------

  NO   OCC          E(Eh)            E(eV)
   0   2.0000     -19.122874      -520.3599
   1   2.0000     -10.254786      -279.0469
   2   2.0000     -10.224343      -278.2185
   3   2.0000     -10.217072      -278.0207
   4   2.0000      -1.002031       -27.2666
   5   2.0000      -0.791091       -21.5267
   6   2.0000      -0.666599       -18.1391
   7   2.0000      -0.561721       -15.2852
   8   2.0000      -0.502921       -13.6852
   9   2.0000      -0.437667       -11.9095
  10   2.0000      -0.411454       -11.1962
  11   2.0000      -0.382705       -10.4139
  12   2.0000      -0.370384       -10.0787
  13   2.0000      -0.276176        -7.5151
  14   2.0000      -0.244500        -6.6532
  15   0.0000      -0.078800        -2.1443
  16   0.0000       0.041311         1.1241
  17   0.0000       0.065847         1.7918
  18   0.0000       0.082762         2.2521
  19   0.0000       0.128420         3.4945

MULLIKEN ATOMIC CHARGES
-----------------------
   0 C :    0.281413
   1 O :   -0.272308
   2 C :   -0.136935
   3 C :    0.065579
   4 H :   -0.068952
   5 H :    0.021372
   6 H :    0.088235
   7 H :    0.021595
Sum of atomic charges:   -0.0000000

LOEWDIN ATOMIC CHARGES
----------------------
   0 C :    0.024965
   1 O :   -0.078207
   2 C :   -0.077005
   3 C :    0.033803
   4 H :   -0.030695
   5 H :    0.043026
   6 H :    0.067115
   7 H :    0.016998

  Mayer bond orders larger than 0.100000
B(  0-C ,  1-O ) :   2.0633 B(  0-C ,  2-C ) :   1.1021 B(  0-C ,  4-H ) :   0.9656
B(  1-O ,  3-C ) :   0.1152 B(  2-C ,  3-C ) :   1.9099 B(  2-C ,  5-H ) :   0.9451
B(  3-C ,  6-H ) :   0.9252 B(  3-C ,  7-H ) :   0.9384

-----------------------------------------------------------------------------
         ABSORPTION SPECTRUM VIA TRANSITION ELECTRIC DIPOLE MOMENTS
-----------------------------------------------------------------------------
State   Energy    Wavelength  fosc         T2        TX        TY        TZ
        (cm-1)      (nm)                 (au**2)    (au)      (au)      (au)
-----------------------------------------------------------------------------
   1   23290.4    429.4   0.000102857   0.00145  -0.02751   0.00698   0.02546

FINAL SINGLE POINT ENERGY      -191.652485890658

DIPOLE MOMENT
-------------
                                X             Y             Z
Electronic contribution:     -1.69544      -1.27963      -0.19044
Nuclear contribution   :      2.05507       2.27111       0.37329
                        -----------------------------------------
Total Dipole Moment    :      0.35963       0.99148       0.18285
                        -----------------------------------------
Magnitude (a.u.)       :      1.07042
Magnitude (Debye)      :      2.72079

Rotational constants in cm-1:     0.687386     0.221837     0.168983
Rotational constants in MHz : 20607.314495  6650.508494  5065.968936

                             ****ORCA TERMINATED NORMALLY****
TOTAL RUN TIME: 0 days 0 hours 3 minutes 22 seconds 910 msec
