                         Program Version 5.0.3 -  RELEASE  -
|  1> ! B3LYP cc-pVDZ
|  2> !TightSCF
|  3> %scf
|  4>  ConvForced true
|  5>  convergence tight
|  6>  MaxIter 500
|  7> end
|  8>
|  9> %tddft
| 10>  nroots 1
| 11> end
| 12>
| 13> # 	6415
| 14> * xyz 0 1
| 15> 		C   -1.129334  -0.376352   0.061289
| 16> 		O   -2.185125  -0.339354   0.828257
| 17> 		C    0.060784   0.371427   0.374123
| 18> 		C    1.163833   0.156554  -0.345407
| 19> 		H   -1.075451  -1.051144  -0.858717
| 20> 		H    0.123066   1.007134   1.205707
| 21> 		H    1.082925  -0.440515  -1.260877
| 22> 		H    1.967245   0.689451  -0.009089
| 23> *
| 24>
| 25>                          ****END OF INPUT****

CARTESIAN COORDINATES (ANGSTROEM)
---------------------------------
  C     -1.129334   -0.376352    0.061289
  O     -2.185125   -0.339354    0.828257
  C      0.060784    0.371427    0.374123
  C      1.163833    0.156554   -0.345407
  H     -1.075451   -1.051144   -0.858717
  H      0.123066    1.007134    1.205707
  H      1.082925   -0.440515   -1.260877
  H      1.967245    0.689451   -0.009089

 Total Charge           Charge          ....    0
 Multiplicity           Mult            ....    1
 Number of Electrons    NEL             ....   30
 Basis Dimension        Dim             ....   76

ORBITAL ENERGIES
----------------

  NO   OCC          E(Eh)            E(eV)
   0   2.0000     -19.135703      -520.7089
   1   2.0000     -10.280459      -279.7455
   2   2.0000     -10.216233      -277.9978
   3   2.0000     -10.206379      -277.7297
   4   2.0000      -0.994039       -27.0492
   5   2.0000      -0.818847       -22.2820
   6   2.0000      -0.658079       -17.9072
   7   2.0000      -0.578150       -15.7323
   8   2.0000      -0.487096       -13.2546
   9   2.0000      -0.462841       -12.5946
  10   2.0000      -0.406801       -11.0696
  11   2.0000      -0.399112       -10.8604
  12   2.0000      -0.378309       -10.2943
  13   2.0000      -0.291016        -7.9189
  14   2.0000      -0.253186        -6.8895
  15   0.0000      -0.078290        -2.1304
  16   0.0000       0.041693         1.1345
  17   0.0000       0.066510         1.8098
  18   0.0000       0.076047         2.0693
  19   0.0000       0.124321         3.3829

MULLIKEN ATOMIC CHARGES
-----------------------
   0 C :    0.173988
   1 O :   -0.267176
   2 C :   -0.039776
   3 C :    0.110798
   4 H :    0.001977
   5 H :   -0.015555
   6 H :    0.027610
   7 H :    0.008135
Sum of atomic charges:   -0.0000000

LOEWDIN ATOMIC CHARGES
----------------------
   0 C :    0.009453
   1 O :   -0.088593
   2 C :   -0.041792
   3 C :    0.031823
   4 H :    0.009971
   5 H :    0.026910
   6 H :    0.034475
   7 H :    0.017753

  Mayer bond orders larger than 0.100000
B(  0-C ,  1-O ) :   2.0392 B(  0-C ,  2-C ) :   1.1266 B(  0-C ,  4-H ) :   0.9228
B(  1-O ,  3-C ) :   0.1215 B(  2-C ,  3-C ) :   1.9137 B(  2-C ,  5-H ) :   0.9543
B(  3-C ,  6-H ) :   0.9403 B(  3-C ,  7-H ) :   0.9295

-----------------------------------------------------------------------------
         ABSORPTION SPECTRUM VIA TRANSITION ELECTRIC DIPOLE MOMENTS
-----------------------------------------------------------------------------
State   Energy    Wavelength  fosc         T2        TX        TY        TZ
        (cm-1)      (nm)                 (au**2)    (au)      (au)      (au)
-----------------------------------------------------------------------------
   1   25046.5    399.3   0.000103983   0.00137  -0.03330   0.01381  -0.00818

FINAL SINGLE POINT ENERGY      -191.677191783786

DIPOLE MOMENT
-------------
                                X             Y             Z
Electronic contribution:     -2.86117      -0.26855       1.19401
Nuclear contribution   :      4.06607       0.41582      -1.75428
                        -----------------------------------------
Total Dipole Moment    :      1.20490       0.14727      -0.56027
                        -----------------------------------------
Magnitude (a.u.)       :      1.33692
Magnitude (Debye)      :      3.39819

Rotational constants in cm-1:     1.519184     0.155768     0.141553
Rotational constants in MHz : 45543.989659  4669.801485  4243.657487

                             ****ORCA TERMINATED NORMALLY****
TOTAL RUN TIME: 0 days 0 hours 3 minutes 27 seconds 969 msec
