                         Program Version 5.0.3 -  RELEASE  -
|  1> ! HF-3c
|  2> !TightSCF
|  3> %scf
|  4>  ConvForced true
|  5>  convergence tight
|  6>  MaxIter 500
|  7> end
|  8>
|  9> %tddft
| 10>  nroots 1
| 11> end
| 12>
| 13> # 	28369
| 14> * xyz 0 1
| 15> 		C   -0.572922  -0.423403  -0.050198
| 16> 		O   -0.592076  -1.642371   0.030264
| 17> 		C    0.620583   0.396970   0.011717
| 18> 		C    1.868238  -0.119087  -0.006813
| 19> 		H   -1.592396   0.166529   0.013610
| 20> 		H    0.489648   1.450035   0.121665
| 21> 		H    1.952989  -1.146070  -0.195225
| 22> 		H    2.676388   0.586568   0.135076
| 23> *
| 24>
| 25>                          ****END OF INPUT****

CARTESIAN COORDINATES (ANGSTROEM)
---------------------------------
  C     -0.572922   -0.423403   -0.050198
  O     -0.592076   -1.642371    0.030264
  C      0.620583    0.396970    0.011717
  C      1.868238   -0.119087   -0.006813
  H     -1.592396    0.166529    0.013610
  H      0.489648    1.450035    0.121665
  H      1.952989   -1.146070   -0.195225
  H      2.676388    0.586568    0.135076

 Total Charge           Charge          ....    0
 Multiplicity           Mult            ....    1
 Number of Electrons    NEL             ....   30
 Basis Dimension        Dim             ....   24

ORBITAL ENERGIES
----------------

  NO   OCC          E(Eh)            E(eV)
   0   2.0000     -20.356323      -553.9237
   1   2.0000     -11.289719      -307.2089
   2   2.0000     -11.196426      -304.6702
   3   2.0000     -11.188500      -304.4546
   4   2.0000      -1.389920       -37.8217
   5   2.0000      -1.083609       -29.4865
   6   2.0000      -0.895769       -24.3751
   7   2.0000      -0.739481       -20.1223
   8   2.0000      -0.706907       -19.2359
   9   2.0000      -0.611420       -16.6376
  10   2.0000      -0.593467       -16.1490
  11   2.0000      -0.541238       -14.7278
  12   2.0000      -0.536613       -14.6020
  13   2.0000      -0.408629       -11.1193
  14   2.0000      -0.390044       -10.6136
  15   0.0000       0.122111         3.3228
  16   0.0000       0.309651         8.4260
  17   0.0000       0.541866        14.7449
  18   0.0000       0.634689        17.2708
  19   0.0000       0.667198        18.1554

MULLIKEN ATOMIC CHARGES
-----------------------
   0 C :    0.165224
   1 O :   -0.356357
   2 C :   -0.179692
   3 C :   -0.218927
   4 H :    0.132239
   5 H :    0.141132
   6 H :    0.163227
   7 H :    0.153154
Sum of atomic charges:   -0.0000000

LOEWDIN ATOMIC CHARGES
----------------------
   0 C :    0.143782
   1 O :   -0.265694
   2 C :   -0.134747
   3 C :   -0.112743
   4 H :    0.075587
   5 H :    0.087883
   6 H :    0.104742
   7 H :    0.101190

  Mayer bond orders larger than 0.100000
B(  0-C ,  1-O ) :   1.8938 B(  0-C ,  2-C ) :   1.0459 B(  0-C ,  4-H ) :   0.9196
B(  2-C ,  3-C ) :   1.9274 B(  2-C ,  5-H ) :   0.9614 B(  3-C ,  6-H ) :   0.9605
B(  3-C ,  7-H ) :   0.9645

-----------------------------------------------------------------------------
         ABSORPTION SPECTRUM VIA TRANSITION ELECTRIC DIPOLE MOMENTS
-----------------------------------------------------------------------------
State   Energy    Wavelength  fosc         T2        TX        TY        TZ
        (cm-1)      (nm)                 (au**2)    (au)      (au)      (au)
-----------------------------------------------------------------------------
   1   31265.8    319.8   0.000031354   0.00033   0.01036  -0.00294  -0.01463

Dispersion correction           -0.025851208
FINAL SINGLE POINT ENERGY      -189.343313336403

DIPOLE MOMENT
-------------
                                X             Y             Z
Electronic contribution:     -1.80785      -1.79727      -0.09518
Nuclear contribution   :      2.15112       2.77904       0.06986
                        -----------------------------------------
Total Dipole Moment    :      0.34327       0.98177      -0.02532
                        -----------------------------------------
Magnitude (a.u.)       :      1.04036
Magnitude (Debye)      :      2.64439

Rotational constants in cm-1:     0.775123     0.206929     0.163704
Rotational constants in MHz : 23237.594933  6203.563372  4907.726254

                             ****ORCA TERMINATED NORMALLY****
TOTAL RUN TIME: 0 days 0 hours 0 minutes 10 seconds 168 msec
