                         Program Version 5.0.3 -  RELEASE  -
|  1> ! B3LYP cc-pVDZ
|  2> !TightSCF
|  3> %scf
|  4>  ConvForced true
|  5>  convergence tight
|  6>  MaxIter 500
|  7> end
|  8>
|  9> %tddft
| 10>  nroots 1
| 11> end
| 12>
| 13> # 	10468
| 14> * xyz 0 1
| 15> 		C   -1.186704  -0.280032  -0.043818
| 16> 		O   -1.660606  -1.050801  -0.815736
| 17> 		C    0.055850   0.471086  -0.250317
| 18> 		C    1.245295   0.067456   0.168094
| 19> 		H   -1.652880  -0.269033   0.965364
| 20> 		H   -0.073616   1.394318  -0.698528
| 21> 		H    1.213444  -0.822589   0.643232
| 22> 		H    2.036332   0.582826   0.027764
| 23> *
| 24>
| 25>                          ****END OF INPUT****

CARTESIAN COORDINATES (ANGSTROEM)
---------------------------------
  C     -1.186704   -0.280032   -0.043818
  O     -1.660606   -1.050801   -0.815736
  C      0.055850    0.471086   -0.250317
  C      1.245295    0.067456    0.168094
  H     -1.652880   -0.269033    0.965364
  H     -0.073616    1.394318   -0.698528
  H      1.213444   -0.822589    0.643232
  H      2.036332    0.582826    0.027764

 Total Charge           Charge          ....    0
 Multiplicity           Mult            ....    1
 Number of Electrons    NEL             ....   30
 Basis Dimension        Dim             ....   76

ORBITAL ENERGIES
----------------

  NO   OCC          E(Eh)            E(eV)
   0   2.0000     -19.142048      -520.8816
   1   2.0000     -10.275758      -279.6176
   2   2.0000     -10.197313      -277.4830
   3   2.0000     -10.183810      -277.1156
   4   2.0000      -1.062788       -28.9199
   5   2.0000      -0.808203       -21.9923
   6   2.0000      -0.663690       -18.0599
   7   2.0000      -0.566773       -15.4227
   8   2.0000      -0.513058       -13.9610
   9   2.0000      -0.472154       -12.8480
  10   2.0000      -0.442498       -12.0410
  11   2.0000      -0.411775       -11.2050
  12   2.0000      -0.377698       -10.2777
  13   2.0000      -0.288438        -7.8488
  14   2.0000      -0.253539        -6.8991
  15   0.0000      -0.030526        -0.8307
  16   0.0000      -0.006803        -0.1851
  17   0.0000       0.094289         2.5657
  18   0.0000       0.103713         2.8222
  19   0.0000       0.116231         3.1628

MULLIKEN ATOMIC CHARGES
-----------------------
   0 C :    0.150141
   1 O :   -0.164802
   2 C :   -0.101644
   3 C :    0.205524
   4 H :   -0.019125
   5 H :   -0.012416
   6 H :   -0.023083
   7 H :   -0.034594
Sum of atomic charges:   -0.0000000

LOEWDIN ATOMIC CHARGES
----------------------
   0 C :   -0.035800
   1 O :    0.029003
   2 C :   -0.032945
   3 C :    0.021302
   4 H :   -0.007740
   5 H :    0.020747
   6 H :    0.013182
   7 H :   -0.007749

  Mayer bond orders larger than 0.100000
B(  0-C ,  1-O ) :   2.2503 B(  0-C ,  2-C ) :   0.9827 B(  0-C ,  4-H ) :   0.9192
B(  2-C ,  3-C ) :   2.0625 B(  2-C ,  5-H ) :   0.9410 B(  3-C ,  6-H ) :   0.9334
B(  3-C ,  7-H ) :   0.9363

-----------------------------------------------------------------------------
         ABSORPTION SPECTRUM VIA TRANSITION ELECTRIC DIPOLE MOMENTS
-----------------------------------------------------------------------------
State   Energy    Wavelength  fosc         T2        TX        TY        TZ
        (cm-1)      (nm)                 (au**2)    (au)      (au)      (au)
-----------------------------------------------------------------------------
   1   33643.0    297.2   0.000432139   0.00423  -0.02408   0.01254  -0.05909

FINAL SINGLE POINT ENERGY      -191.614619651389

DIPOLE MOMENT
-------------
                                X             Y             Z
Electronic contribution:     -2.47434      -1.07174      -1.29514
Nuclear contribution   :      2.99436       1.67635       1.78302
                        -----------------------------------------
Total Dipole Moment    :      0.52002       0.60461       0.48787
                        -----------------------------------------
Magnitude (a.u.)       :      0.93488
Magnitude (Debye)      :      2.37627

Rotational constants in cm-1:     1.096582     0.168261     0.161734
Rotational constants in MHz : 32874.710391  5044.351574  4848.676057

                             ****ORCA TERMINATED NORMALLY****
TOTAL RUN TIME: 0 days 0 hours 3 minutes 19 seconds 375 msec
