                         Program Version 5.0.3 -  RELEASE  -
|  1> ! HF-3c
|  2> !TightSCF
|  3> %scf
|  4>  ConvForced true
|  5>  convergence tight
|  6>  MaxIter 500
|  7> end
|  8>
|  9> %tddft
| 10>  nroots 1
| 11> end
| 12>
| 13> # 	15181
| 14> * xyz 0 1
| 15> 		C   -1.127604  -0.313951   0.003900
| 16> 		O   -1.250046  -1.603452  -0.144275
| 17> 		C    0.042073   0.521184  -0.108834
| 18> 		C    1.255071   0.025506   0.031052
| 19> 		H   -2.272430   0.228143   0.334101
| 20> 		H   -0.101809   1.586388  -0.317592
| 21> 		H    1.251769  -1.026017   0.156662
| 22> 		H    2.146369   0.624249   0.067444
| 23> *
| 24>
| 25>                          ****END OF INPUT****

CARTESIAN COORDINATES (ANGSTROEM)
---------------------------------
  C     -1.127604   -0.313951    0.003900
  O     -1.250046   -1.603452   -0.144275
  C      0.042073    0.521184   -0.108834
  C      1.255071    0.025506    0.031052
  H     -2.272430    0.228143    0.334101
  H     -0.101809    1.586388   -0.317592
  H      1.251769   -1.026017    0.156662
  H      2.146369    0.624249    0.067444

 Total Charge           Charge          ....    0
 Multiplicity           Mult            ....    1
 Number of Electrons    NEL             ....   30
 Basis Dimension        Dim             ....   24

ORBITAL ENERGIES
----------------

  NO   OCC          E(Eh)            E(eV)
   0   2.0000     -20.328550      -553.1680
   1   2.0000     -11.269899      -306.6695
   2   2.0000     -11.202328      -304.8308
   3   2.0000     -11.201133      -304.7983
   4   2.0000      -1.327379       -36.1198
   5   2.0000      -1.099083       -29.9076
   6   2.0000      -0.889790       -24.2124
   7   2.0000      -0.734323       -19.9820
   8   2.0000      -0.687056       -18.6957
   9   2.0000      -0.605372       -16.4730
  10   2.0000      -0.574459       -15.6318
  11   2.0000      -0.531666       -14.4674
  12   2.0000      -0.494581       -13.4582
  13   2.0000      -0.397699       -10.8219
  14   2.0000      -0.389829       -10.6078
  15   0.0000       0.119312         3.2467
  16   0.0000       0.291320         7.9272
  17   0.0000       0.450321        12.2539
  18   0.0000       0.586444        15.9580
  19   0.0000       0.646855        17.6018

MULLIKEN ATOMIC CHARGES
-----------------------
   0 C :    0.155994
   1 O :   -0.351551
   2 C :   -0.186243
   3 C :   -0.221255
   4 H :    0.133896
   5 H :    0.150396
   6 H :    0.163555
   7 H :    0.155208
Sum of atomic charges:   -0.0000000

LOEWDIN ATOMIC CHARGES
----------------------
   0 C :    0.141344
   1 O :   -0.284853
   2 C :   -0.134814
   3 C :   -0.115902
   4 H :    0.089257
   5 H :    0.097352
   6 H :    0.105931
   7 H :    0.101685

  Mayer bond orders larger than 0.100000
B(  0-C ,  1-O ) :   1.8843 B(  0-C ,  2-C ) :   1.0596 B(  0-C ,  4-H ) :   0.9164
B(  2-C ,  3-C ) :   1.9276 B(  2-C ,  5-H ) :   0.9531 B(  3-C ,  6-H ) :   0.9574
B(  3-C ,  7-H ) :   0.9628

-----------------------------------------------------------------------------
         ABSORPTION SPECTRUM VIA TRANSITION ELECTRIC DIPOLE MOMENTS
-----------------------------------------------------------------------------
State   Energy    Wavelength  fosc         T2        TX        TY        TZ
        (cm-1)      (nm)                 (au**2)    (au)      (au)      (au)
-----------------------------------------------------------------------------
   1   27687.3    361.2   0.000127686   0.00152  -0.03283   0.00427  -0.02054

Dispersion correction           -0.025541289
FINAL SINGLE POINT ENERGY      -189.325577280205

DIPOLE MOMENT
-------------
                                X             Y             Z
Electronic contribution:     -1.68557      -1.68641      -0.26771
Nuclear contribution   :      2.07988       2.74208       0.42205
                        -----------------------------------------
Total Dipole Moment    :      0.39430       1.05567       0.15434
                        -----------------------------------------
Magnitude (a.u.)       :      1.13742
Magnitude (Debye)      :      2.89110

Rotational constants in cm-1:     0.773588     0.195409     0.157486
Rotational constants in MHz : 23191.579240  5858.217951  4721.300616

                             ****ORCA TERMINATED NORMALLY****
TOTAL RUN TIME: 0 days 0 hours 0 minutes 11 seconds 355 msec
