                         Program Version 5.0.3 -  RELEASE  -
|  1> ! HF-3c
|  2> !TightSCF
|  3> %scf
|  4>  ConvForced true
|  5>  convergence tight
|  6>  MaxIter 500
|  7> end
|  8>
|  9> %tddft
| 10>  nroots 1
| 11> end
| 12>
| 13> # 	7344
| 14> * xyz 0 1
| 15> 		C   -1.165236  -0.322119  -0.039959
| 16> 		O   -1.281197  -1.424919  -0.511784
| 17> 		C    0.010349   0.518052  -0.122996
| 18> 		C    1.226739  -0.023509   0.060233
| 19> 		H   -2.087962   0.148513   0.580173
| 20> 		H   -0.149977   1.573678  -0.422867
| 21> 		H    1.345463  -1.111699   0.478309
| 22> 		H    2.072022   0.644138  -0.004195
| 23> *
| 24>
| 25>                          ****END OF INPUT****

CARTESIAN COORDINATES (ANGSTROEM)
---------------------------------
  C     -1.165236   -0.322119   -0.039959
  O     -1.281197   -1.424919   -0.511784
  C      0.010349    0.518052   -0.122996
  C      1.226739   -0.023509    0.060233
  H     -2.087962    0.148513    0.580173
  H     -0.149977    1.573678   -0.422867
  H      1.345463   -1.111699    0.478309
  H      2.072022    0.644138   -0.004195

 Total Charge           Charge          ....    0
 Multiplicity           Mult            ....    1
 Number of Electrons    NEL             ....   30
 Basis Dimension        Dim             ....   24

ORBITAL ENERGIES
----------------

  NO   OCC          E(Eh)            E(eV)
   0   2.0000     -20.362238      -554.0847
   1   2.0000     -11.291451      -307.2560
   2   2.0000     -11.187337      -304.4229
   3   2.0000     -11.185677      -304.3777
   4   2.0000      -1.401507       -38.1369
   5   2.0000      -1.076691       -29.2982
   6   2.0000      -0.880950       -23.9719
   7   2.0000      -0.727115       -19.7858
   8   2.0000      -0.691511       -18.8170
   9   2.0000      -0.606735       -16.5101
  10   2.0000      -0.602140       -16.3851
  11   2.0000      -0.536519       -14.5994
  12   2.0000      -0.512303       -13.9405
  13   2.0000      -0.402520       -10.9531
  14   2.0000      -0.391391       -10.6503
  15   0.0000       0.151500         4.1225
  16   0.0000       0.274020         7.4565
  17   0.0000       0.523598        14.2478
  18   0.0000       0.570982        15.5372
  19   0.0000       0.632475        17.2105

MULLIKEN ATOMIC CHARGES
-----------------------
   0 C :    0.177721
   1 O :   -0.357660
   2 C :   -0.182755
   3 C :   -0.211532
   4 H :    0.125953
   5 H :    0.148860
   6 H :    0.157619
   7 H :    0.141794
Sum of atomic charges:    0.0000000

LOEWDIN ATOMIC CHARGES
----------------------
   0 C :    0.149887
   1 O :   -0.261513
   2 C :   -0.139950
   3 C :   -0.121043
   4 H :    0.071598
   5 H :    0.098721
   6 H :    0.111219
   7 H :    0.091082

  Mayer bond orders larger than 0.100000
B(  0-C ,  1-O ) :   1.9183 B(  0-C ,  2-C ) :   1.0261 B(  0-C ,  4-H ) :   0.9089
B(  2-C ,  3-C ) :   1.9529 B(  2-C ,  5-H ) :   0.9520 B(  3-C ,  6-H ) :   0.9586
B(  3-C ,  7-H ) :   0.9651

-----------------------------------------------------------------------------
         ABSORPTION SPECTRUM VIA TRANSITION ELECTRIC DIPOLE MOMENTS
-----------------------------------------------------------------------------
State   Energy    Wavelength  fosc         T2        TX        TY        TZ
        (cm-1)      (nm)                 (au**2)    (au)      (au)      (au)
-----------------------------------------------------------------------------
   1   33958.2    294.5   0.000024721   0.00024  -0.01508   0.00187  -0.00295

Dispersion correction           -0.025417568
FINAL SINGLE POINT ENERGY      -189.320407872911

DIPOLE MOMENT
-------------
                                X             Y             Z
Electronic contribution:     -1.95257      -1.59651      -0.74086
Nuclear contribution   :      2.32724       2.46381       1.17519
                        -----------------------------------------
Total Dipole Moment    :      0.37466       0.86730       0.43433
                        -----------------------------------------
Magnitude (a.u.)       :      1.03981
Magnitude (Debye)      :      2.64300

Rotational constants in cm-1:     0.780626     0.200949     0.166576
Rotational constants in MHz : 23402.569508  6024.310139  4993.826770

                             ****ORCA TERMINATED NORMALLY****
TOTAL RUN TIME: 0 days 0 hours 0 minutes 11 seconds 431 msec
