                         Program Version 5.0.3 -  RELEASE  -
|  1> ! HF-3c
|  2> !TightSCF
|  3> %scf
|  4>  ConvForced true
|  5>  convergence tight
|  6>  MaxIter 500
|  7> end
|  8>
|  9> %tddft
| 10>  nroots 1
| 11> end
| 12>
| 13> # 	22522
| 14> * xyz 0 1
| 15> 		C   -0.559581  -0.434091  -0.045439
| 16> 		O   -0.566930  -1.642796   0.027368
| 17> 		C    0.599358   0.450171  -0.009378
| 18> 		C    1.838659  -0.168085  -0.014277
| 19> 		H   -1.684046   0.202562   0.093043
| 20> 		H    0.531951   1.670322   0.197255
| 21> 		H    2.100841  -1.196866  -0.086281
| 22> 		H    2.659249   0.502942   0.204831
| 23> *
| 24>
| 25>                          ****END OF INPUT****

CARTESIAN COORDINATES (ANGSTROEM)
---------------------------------
  C     -0.559581   -0.434091   -0.045439
  O     -0.566930   -1.642796    0.027368
  C      0.599358    0.450171   -0.009378
  C      1.838659   -0.168085   -0.014277
  H     -1.684046    0.202562    0.093043
  H      0.531951    1.670322    0.197255
  H      2.100841   -1.196866   -0.086281
  H      2.659249    0.502942    0.204831

 Total Charge           Charge          ....    0
 Multiplicity           Mult            ....    1
 Number of Electrons    NEL             ....   30
 Basis Dimension        Dim             ....   24

ORBITAL ENERGIES
----------------

  NO   OCC          E(Eh)            E(eV)
   0   2.0000     -20.352268      -553.8134
   1   2.0000     -11.286140      -307.1115
   2   2.0000     -11.188897      -304.4654
   3   2.0000     -11.185612      -304.3760
   4   2.0000      -1.390712       -37.8432
   5   2.0000      -1.061554       -28.8864
   6   2.0000      -0.876335       -23.8463
   7   2.0000      -0.715423       -19.4676
   8   2.0000      -0.676022       -18.3955
   9   2.0000      -0.605356       -16.4726
  10   2.0000      -0.563489       -15.3333
  11   2.0000      -0.534051       -14.5323
  12   2.0000      -0.522627       -14.2214
  13   2.0000      -0.385939       -10.5019
  14   2.0000      -0.377770       -10.2796
  15   0.0000       0.125858         3.4248
  16   0.0000       0.306776         8.3478
  17   0.0000       0.447538        12.1781
  18   0.0000       0.507826        13.8187
  19   0.0000       0.626031        17.0352

MULLIKEN ATOMIC CHARGES
-----------------------
   0 C :    0.183258
   1 O :   -0.368688
   2 C :   -0.164041
   3 C :   -0.214790
   4 H :    0.113203
   5 H :    0.153773
   6 H :    0.159920
   7 H :    0.137366
Sum of atomic charges:    0.0000000

LOEWDIN ATOMIC CHARGES
----------------------
   0 C :    0.148736
   1 O :   -0.274249
   2 C :   -0.134336
   3 C :   -0.110540
   4 H :    0.066495
   5 H :    0.112598
   6 H :    0.103306
   7 H :    0.087990

  Mayer bond orders larger than 0.100000
B(  0-C ,  1-O ) :   1.8971 B(  0-C ,  2-C ) :   1.0436 B(  0-C ,  4-H ) :   0.9018
B(  2-C ,  3-C ) :   1.9193 B(  2-C ,  5-H ) :   0.9528 B(  3-C ,  6-H ) :   0.9624
B(  3-C ,  7-H ) :   0.9684

-----------------------------------------------------------------------------
         ABSORPTION SPECTRUM VIA TRANSITION ELECTRIC DIPOLE MOMENTS
-----------------------------------------------------------------------------
State   Energy    Wavelength  fosc         T2        TX        TY        TZ
        (cm-1)      (nm)                 (au**2)    (au)      (au)      (au)
-----------------------------------------------------------------------------
   1   31767.7    314.8   0.000039203   0.00041  -0.00876   0.00274   0.01794

Dispersion correction           -0.025124503
FINAL SINGLE POINT ENERGY      -189.299186153213

DIPOLE MOMENT
-------------
                                X             Y             Z
Electronic contribution:     -1.82433      -1.83011      -0.32341
Nuclear contribution   :      2.22552       2.89083       0.38263
                        -----------------------------------------
Total Dipole Moment    :      0.40120       1.06072       0.05922
                        -----------------------------------------
Magnitude (a.u.)       :      1.13560
Magnitude (Debye)      :      2.88648

Rotational constants in cm-1:     0.697936     0.212650     0.163426
Rotational constants in MHz : 20923.599618  6375.099441  4899.374111

                             ****ORCA TERMINATED NORMALLY****
TOTAL RUN TIME: 0 days 0 hours 0 minutes 10 seconds 395 msec
