                         Program Version 5.0.3 -  RELEASE  -
|  1> ! B3LYP cc-pVDZ
|  2> !TightSCF
|  3> %scf
|  4>  ConvForced true
|  5>  convergence tight
|  6>  MaxIter 500
|  7> end
|  8>
|  9> %tddft
| 10>  nroots 1
| 11> end
| 12>
| 13> # 	12788
| 14> * xyz 0 1
| 15> 		C   -1.125612  -0.343454  -0.036948
| 16> 		O   -1.367449  -1.373163  -0.476750
| 17> 		C    0.021504   0.476180  -0.175616
| 18> 		C    1.254410   0.021379   0.143845
| 19> 		H   -2.078986   0.154071   0.540240
| 20> 		H   -0.184185   1.567978  -0.373321
| 21> 		H    1.409934  -1.158281   0.323174
| 22> 		H    2.051599   0.677434   0.037982
| 23> *
| 24>
| 25>                          ****END OF INPUT****

CARTESIAN COORDINATES (ANGSTROEM)
---------------------------------
  C     -1.125612   -0.343454   -0.036948
  O     -1.367449   -1.373163   -0.476750
  C      0.021504    0.476180   -0.175616
  C      1.254410    0.021379    0.143845
  H     -2.078986    0.154071    0.540240
  H     -0.184185    1.567978   -0.373321
  H      1.409934   -1.158281    0.323174
  H      2.051599    0.677434    0.037982

 Total Charge           Charge          ....    0
 Multiplicity           Mult            ....    1
 Number of Electrons    NEL             ....   30
 Basis Dimension        Dim             ....   76

ORBITAL ENERGIES
----------------

  NO   OCC          E(Eh)            E(eV)
   0   2.0000     -19.138858      -520.7948
   1   2.0000     -10.273629      -279.5597
   2   2.0000     -10.221221      -278.1336
   3   2.0000     -10.210954      -277.8542
   4   2.0000      -1.086388       -29.5621
   5   2.0000      -0.803311       -21.8592
   6   2.0000      -0.658982       -17.9318
   7   2.0000      -0.525075       -14.2880
   8   2.0000      -0.512218       -13.9381
   9   2.0000      -0.453123       -12.3301
  10   2.0000      -0.448620       -12.2076
  11   2.0000      -0.405683       -11.0392
  12   2.0000      -0.384884       -10.4732
  13   2.0000      -0.291094        -7.9211
  14   2.0000      -0.247683        -6.7398
  15   0.0000      -0.052201        -1.4205
  16   0.0000       0.029836         0.8119
  17   0.0000       0.067877         1.8470
  18   0.0000       0.077901         2.1198
  19   0.0000       0.108704         2.9580

MULLIKEN ATOMIC CHARGES
-----------------------
   0 C :    0.126707
   1 O :   -0.125227
   2 C :   -0.083868
   3 C :    0.030202
   4 H :   -0.054985
   5 H :    0.022201
   6 H :    0.064268
   7 H :    0.020703
Sum of atomic charges:    0.0000000

LOEWDIN ATOMIC CHARGES
----------------------
   0 C :   -0.094585
   1 O :    0.065269
   2 C :   -0.071823
   3 C :    0.001764
   4 H :   -0.021681
   5 H :    0.046498
   6 H :    0.057866
   7 H :    0.016692

  Mayer bond orders larger than 0.100000
B(  0-C ,  1-O ) :   2.2822 B(  0-C ,  2-C ) :   1.0384 B(  0-C ,  4-H ) :   0.8802
B(  2-C ,  3-C ) :   1.9716 B(  2-C ,  5-H ) :   0.9305 B(  3-C ,  6-H ) :   0.9377
B(  3-C ,  7-H ) :   0.9399

-----------------------------------------------------------------------------
         ABSORPTION SPECTRUM VIA TRANSITION ELECTRIC DIPOLE MOMENTS
-----------------------------------------------------------------------------
State   Energy    Wavelength  fosc         T2        TX        TY        TZ
        (cm-1)      (nm)                 (au**2)    (au)      (au)      (au)
-----------------------------------------------------------------------------
   1   31072.7    321.8   0.005108138   0.05412   0.23239  -0.01010   0.00354

FINAL SINGLE POINT ENERGY      -191.634157083777

DIPOLE MOMENT
-------------
                                X             Y             Z
Electronic contribution:     -1.78790      -1.69296      -0.82327
Nuclear contribution   :      2.37175       2.41203       1.02064
                        -----------------------------------------
Total Dipole Moment    :      0.58385       0.71906       0.19737
                        -----------------------------------------
Magnitude (a.u.)       :      0.94704
Magnitude (Debye)      :      2.40718

Rotational constants in cm-1:     0.881914     0.193310     0.164803
Rotational constants in MHz : 26439.106594  5795.278661  4940.656020

                             ****ORCA TERMINATED NORMALLY****
TOTAL RUN TIME: 0 days 0 hours 3 minutes 22 seconds 262 msec
