                         Program Version 5.0.3 -  RELEASE  -
|  1> ! B3LYP cc-pVDZ
|  2> !TightSCF
|  3> %scf
|  4>  ConvForced true
|  5>  convergence tight
|  6>  MaxIter 500
|  7> end
|  8>
|  9> %tddft
| 10>  nroots 1
| 11> end
| 12>
| 13> # 	14361
| 14> * xyz 0 1
| 15> 		C   -1.149396  -0.376240  -0.068089
| 16> 		O   -1.249679  -1.579906   0.085570
| 17> 		C   -0.046791   0.501841   0.038091
| 18> 		C    1.192363  -0.070297  -0.072152
| 19> 		H   -2.230096   0.205245   0.004098
| 20> 		H   -0.084038   1.635668   0.163269
| 21> 		H    1.423917  -1.033070  -0.166004
| 22> 		H    2.136479   0.651205   0.023507
| 23> *
| 24>
| 25>                          ****END OF INPUT****

CARTESIAN COORDINATES (ANGSTROEM)
---------------------------------
  C     -1.149396   -0.376240   -0.068089
  O     -1.249679   -1.579906    0.085570
  C     -0.046791    0.501841    0.038091
  C      1.192363   -0.070297   -0.072152
  H     -2.230096    0.205245    0.004098
  H     -0.084038    1.635668    0.163269
  H      1.423917   -1.033070   -0.166004
  H      2.136479    0.651205    0.023507

 Total Charge           Charge          ....    0
 Multiplicity           Mult            ....    1
 Number of Electrons    NEL             ....   30
 Basis Dimension        Dim             ....   76

ORBITAL ENERGIES
----------------

  NO   OCC          E(Eh)            E(eV)
   0   2.0000     -19.138169      -520.7760
   1   2.0000     -10.278646      -279.6962
   2   2.0000     -10.227105      -278.2937
   3   2.0000     -10.219232      -278.0794
   4   2.0000      -1.041841       -28.3499
   5   2.0000      -0.806017       -21.9328
   6   2.0000      -0.662876       -18.0378
   7   2.0000      -0.548124       -14.9152
   8   2.0000      -0.499080       -13.5807
   9   2.0000      -0.453820       -12.3491
  10   2.0000      -0.404930       -11.0187
  11   2.0000      -0.398246       -10.8368
  12   2.0000      -0.391431       -10.6514
  13   2.0000      -0.290792        -7.9129
  14   2.0000      -0.248116        -6.7516
  15   0.0000      -0.081043        -2.2053
  16   0.0000       0.042903         1.1675
  17   0.0000       0.056328         1.5328
  18   0.0000       0.090861         2.4725
  19   0.0000       0.115297         3.1374

MULLIKEN ATOMIC CHARGES
-----------------------
   0 C :    0.159168
   1 O :   -0.191359
   2 C :   -0.096399
   3 C :    0.083648
   4 H :   -0.036739
   5 H :    0.030070
   6 H :    0.004942
   7 H :    0.046668
Sum of atomic charges:   -0.0000000

LOEWDIN ATOMIC CHARGES
----------------------
   0 C :   -0.056800
   1 O :   -0.012469
   2 C :   -0.085850
   3 C :    0.066716
   4 H :   -0.013681
   5 H :    0.052606
   6 H :    0.000171
   7 H :    0.049306

  Mayer bond orders larger than 0.100000
B(  0-C ,  1-O ) :   2.1731 B(  0-C ,  2-C ) :   1.0806 B(  0-C ,  4-H ) :   0.8990
B(  1-O ,  3-C ) :   0.1078 B(  2-C ,  3-C ) :   1.9070 B(  2-C ,  5-H ) :   0.9421
B(  3-C ,  6-H ) :   0.9549 B(  3-C ,  7-H ) :   0.9496

-----------------------------------------------------------------------------
         ABSORPTION SPECTRUM VIA TRANSITION ELECTRIC DIPOLE MOMENTS
-----------------------------------------------------------------------------
State   Energy    Wavelength  fosc         T2        TX        TY        TZ
        (cm-1)      (nm)                 (au**2)    (au)      (au)      (au)
-----------------------------------------------------------------------------
   1   24555.2    407.2   0.000435367   0.00584   0.06162  -0.01307  -0.04323

FINAL SINGLE POINT ENERGY      -191.664376153680

DIPOLE MOMENT
-------------
                                X             Y             Z
Electronic contribution:     -1.71365      -2.01116      -0.08013
Nuclear contribution   :      2.41297       2.90061       0.01336
                        -----------------------------------------
Total Dipole Moment    :      0.69932       0.88946      -0.06676
                        -----------------------------------------
Magnitude (a.u.)       :      1.13342
Magnitude (Debye)      :      2.88092

Rotational constants in cm-1:     0.765200     0.207456     0.163983
Rotational constants in MHz : 22940.120064  6219.361538  4916.080458

                             ****ORCA TERMINATED NORMALLY****
TOTAL RUN TIME: 0 days 0 hours 3 minutes 21 seconds 610 msec
