                         Program Version 5.0.3 -  RELEASE  -
|  1> ! HF-3c
|  2> !TightSCF
|  3> %scf
|  4>  ConvForced true
|  5>  convergence tight
|  6>  MaxIter 500
|  7> end
|  8>
|  9> %tddft
| 10>  nroots 1
| 11> end
| 12>
| 13> # 	25323
| 14> * xyz 0 1
| 15> 		C   -0.580980  -0.428394   0.009205
| 16> 		O   -0.588410  -1.621609   0.013678
| 17> 		C    0.638688   0.413146  -0.029954
| 18> 		C    1.850031  -0.144011  -0.033304
| 19> 		H   -1.486912   0.038019  -0.191847
| 20> 		H    0.455475   1.472121   0.372182
| 21> 		H    2.083569  -1.123118   0.120283
| 22> 		H    2.517639   0.510546   0.151678
| 23> *
| 24>
| 25>                          ****END OF INPUT****

CARTESIAN COORDINATES (ANGSTROEM)
---------------------------------
  C     -0.580980   -0.428394    0.009205
  O     -0.588410   -1.621609    0.013678
  C      0.638688    0.413146   -0.029954
  C      1.850031   -0.144011   -0.033304
  H     -1.486912    0.038019   -0.191847
  H      0.455475    1.472121    0.372182
  H      2.083569   -1.123118    0.120283
  H      2.517639    0.510546    0.151678

 Total Charge           Charge          ....    0
 Multiplicity           Mult            ....    1
 Number of Electrons    NEL             ....   30
 Basis Dimension        Dim             ....   24

ORBITAL ENERGIES
----------------

  NO   OCC          E(Eh)            E(eV)
   0   2.0000     -20.375212      -554.4377
   1   2.0000     -11.298812      -307.4563
   2   2.0000     -11.197443      -304.6979
   3   2.0000     -11.196137      -304.6624
   4   2.0000      -1.419381       -38.6233
   5   2.0000      -1.093593       -29.7582
   6   2.0000      -0.913989       -24.8709
   7   2.0000      -0.772110       -21.0102
   8   2.0000      -0.714524       -19.4432
   9   2.0000      -0.629626       -17.1330
  10   2.0000      -0.612855       -16.6766
  11   2.0000      -0.565118       -15.3776
  12   2.0000      -0.532908       -14.5012
  13   2.0000      -0.417385       -11.3576
  14   2.0000      -0.401503       -10.9255
  15   0.0000       0.122071         3.3217
  16   0.0000       0.286423         7.7940
  17   0.0000       0.575207        15.6522
  18   0.0000       0.619078        16.8460
  19   0.0000       0.738366        20.0920

MULLIKEN ATOMIC CHARGES
-----------------------
   0 C :    0.152145
   1 O :   -0.344382
   2 C :   -0.141448
   3 C :   -0.265471
   4 H :    0.135416
   5 H :    0.150721
   6 H :    0.167199
   7 H :    0.145820
Sum of atomic charges:    0.0000000

LOEWDIN ATOMIC CHARGES
----------------------
   0 C :    0.134842
   1 O :   -0.243830
   2 C :   -0.103123
   3 C :   -0.148601
   4 H :    0.065761
   5 H :    0.102356
   6 H :    0.106659
   7 H :    0.085935

  Mayer bond orders larger than 0.100000
B(  0-C ,  1-O ) :   1.9113 B(  0-C ,  2-C ) :   1.0154 B(  0-C ,  4-H ) :   0.9330
B(  2-C ,  3-C ) :   1.9531 B(  2-C ,  5-H ) :   0.9563 B(  3-C ,  6-H ) :   0.9603
B(  3-C ,  7-H ) :   0.9669

-----------------------------------------------------------------------------
         ABSORPTION SPECTRUM VIA TRANSITION ELECTRIC DIPOLE MOMENTS
-----------------------------------------------------------------------------
State   Energy    Wavelength  fosc         T2        TX        TY        TZ
        (cm-1)      (nm)                 (au**2)    (au)      (au)      (au)
-----------------------------------------------------------------------------
   1   31723.9    315.2   0.000371913   0.00386   0.06038   0.01224   0.00800

Dispersion correction           -0.026031102
FINAL SINGLE POINT ENERGY      -189.299976294387

DIPOLE MOMENT
-------------
                                X             Y             Z
Electronic contribution:     -1.97340      -1.70449      -0.28698
Nuclear contribution   :      2.19137       2.62928       0.42282
                        -----------------------------------------
Total Dipole Moment    :      0.21798       0.92479       0.13584
                        -----------------------------------------
Magnitude (a.u.)       :      0.95980
Magnitude (Debye)      :      2.43961

Rotational constants in cm-1:     0.781131     0.211163     0.167026
Rotational constants in MHz : 23417.709125  6330.518279  5007.306833

                             ****ORCA TERMINATED NORMALLY****
TOTAL RUN TIME: 0 days 0 hours 0 minutes 13 seconds 415 msec
