                         Program Version 5.0.3 -  RELEASE  -
|  1> ! B3LYP cc-pVDZ
|  2> !TightSCF
|  3> %scf
|  4>  ConvForced true
|  5>  convergence tight
|  6>  MaxIter 500
|  7> end
|  8>
|  9> %tddft
| 10>  nroots 1
| 11> end
| 12>
| 13> # 	30811
| 14> * xyz 0 1
| 15> 		C   -0.620782  -0.427163  -0.009132
| 16> 		O   -0.513717  -1.604258   0.014580
| 17> 		C    0.607422   0.434729  -0.014499
| 18> 		C    1.818622  -0.179263   0.016746
| 19> 		H   -1.584731   0.158795  -0.091728
| 20> 		H    0.615953   1.476480   0.150387
| 21> 		H    1.767944  -1.312243  -0.192928
| 22> 		H    2.795238   0.433198  -0.004559
| 23> *
| 24>
| 25>                          ****END OF INPUT****

CARTESIAN COORDINATES (ANGSTROEM)
---------------------------------
  C     -0.620782   -0.427163   -0.009132
  O     -0.513717   -1.604258    0.014580
  C      0.607422    0.434729   -0.014499
  C      1.818622   -0.179263    0.016746
  H     -1.584731    0.158795   -0.091728
  H      0.615953    1.476480    0.150387
  H      1.767944   -1.312243   -0.192928
  H      2.795238    0.433198   -0.004559

 Total Charge           Charge          ....    0
 Multiplicity           Mult            ....    1
 Number of Electrons    NEL             ....   30
 Basis Dimension        Dim             ....   76

ORBITAL ENERGIES
----------------

  NO   OCC          E(Eh)            E(eV)
   0   2.0000     -19.142267      -520.8876
   1   2.0000     -10.279244      -279.7124
   2   2.0000     -10.217202      -278.0242
   3   2.0000     -10.196262      -277.4544
   4   2.0000      -1.067369       -29.0446
   5   2.0000      -0.783707       -21.3257
   6   2.0000      -0.642928       -17.4950
   7   2.0000      -0.536010       -14.5856
   8   2.0000      -0.510305       -13.8861
   9   2.0000      -0.449257       -12.2249
  10   2.0000      -0.414750       -11.2859
  11   2.0000      -0.408287       -11.1101
  12   2.0000      -0.372639       -10.1400
  13   2.0000      -0.281892        -7.6707
  14   2.0000      -0.260332        -7.0840
  15   0.0000      -0.066058        -1.7975
  16   0.0000       0.056761         1.5445
  17   0.0000       0.071850         1.9551
  18   0.0000       0.085627         2.3300
  19   0.0000       0.122327         3.3287

MULLIKEN ATOMIC CHARGES
-----------------------
   0 C :    0.186670
   1 O :   -0.166318
   2 C :   -0.098172
   3 C :    0.006171
   4 H :   -0.012066
   5 H :   -0.023790
   6 H :    0.058827
   7 H :    0.048679
Sum of atomic charges:    0.0000000

LOEWDIN ATOMIC CHARGES
----------------------
   0 C :   -0.046215
   1 O :    0.027795
   2 C :   -0.087711
   3 C :    0.009189
   4 H :   -0.003526
   5 H :    0.014528
   6 H :    0.043371
   7 H :    0.042568

  Mayer bond orders larger than 0.100000
B(  0-C ,  1-O ) :   2.2108 B(  0-C ,  2-C ) :   1.0221 B(  0-C ,  4-H ) :   0.9135
B(  2-C ,  3-C ) :   1.9632 B(  2-C ,  5-H ) :   0.9484 B(  3-C ,  6-H ) :   0.9224
B(  3-C ,  7-H ) :   0.9409

-----------------------------------------------------------------------------
         ABSORPTION SPECTRUM VIA TRANSITION ELECTRIC DIPOLE MOMENTS
-----------------------------------------------------------------------------
State   Energy    Wavelength  fosc         T2        TX        TY        TZ
        (cm-1)      (nm)                 (au**2)    (au)      (au)      (au)
-----------------------------------------------------------------------------
   1   29887.0    334.6   0.000618551   0.00681  -0.07510  -0.00206  -0.03418

FINAL SINGLE POINT ENERGY      -191.660302102072

DIPOLE MOMENT
-------------
                                X             Y             Z
Electronic contribution:     -1.96156      -1.67808       0.10485
Nuclear contribution   :      2.21633       2.49790      -0.13074
                        -----------------------------------------
Total Dipole Moment    :      0.25477       0.81982      -0.02590
                        -----------------------------------------
Magnitude (a.u.)       :      0.85888
Magnitude (Debye)      :      2.18311

Rotational constants in cm-1:     0.728631     0.221921     0.170382
Rotational constants in MHz : 21843.814343  6653.020473  5107.913806

                             ****ORCA TERMINATED NORMALLY****
TOTAL RUN TIME: 0 days 0 hours 3 minutes 19 seconds 668 msec
