                         Program Version 5.0.3 -  RELEASE  -
|  1> ! HF-3c
|  2> !TightSCF
|  3> %scf
|  4>  ConvForced true
|  5>  convergence tight
|  6>  MaxIter 500
|  7> end
|  8>
|  9> %tddft
| 10>  nroots 1
| 11> end
| 12>
| 13> # 	19731
| 14> * xyz 0 1
| 15> 		C   -1.223991  -0.318425  -0.141770
| 16> 		O   -1.719186  -0.825951  -1.045059
| 17> 		C    0.093197   0.496128  -0.303250
| 18> 		C    1.197248   0.049209   0.229146
| 19> 		H   -1.542019  -0.491599   1.017845
| 20> 		H    0.007881   1.147771  -0.904754
| 21> 		H    1.035186  -0.756912   1.046381
| 22> 		H    2.105627   0.614236   0.113422
| 23> *
| 24>
| 25>                          ****END OF INPUT****

CARTESIAN COORDINATES (ANGSTROEM)
---------------------------------
  C     -1.223991   -0.318425   -0.141770
  O     -1.719186   -0.825951   -1.045059
  C      0.093197    0.496128   -0.303250
  C      1.197248    0.049209    0.229146
  H     -1.542019   -0.491599    1.017845
  H      0.007881    1.147771   -0.904754
  H      1.035186   -0.756912    1.046381
  H      2.105627    0.614236    0.113422

 Total Charge           Charge          ....    0
 Multiplicity           Mult            ....    1
 Number of Electrons    NEL             ....   30
 Basis Dimension        Dim             ....   24

ORBITAL ENERGIES
----------------

  NO   OCC          E(Eh)            E(eV)
   0   2.0000     -20.399792      -555.1066
   1   2.0000     -11.315982      -307.9235
   2   2.0000     -11.191065      -304.5244
   3   2.0000     -11.189901      -304.4927
   4   2.0000      -1.458660       -39.6922
   5   2.0000      -1.093854       -29.7653
   6   2.0000      -0.866220       -23.5711
   7   2.0000      -0.789950       -21.4956
   8   2.0000      -0.687820       -18.7165
   9   2.0000      -0.653229       -17.7753
  10   2.0000      -0.610481       -16.6120
  11   2.0000      -0.560313       -15.2469
  12   2.0000      -0.549902       -14.9636
  13   2.0000      -0.416393       -11.3306
  14   2.0000      -0.395957       -10.7745
  15   0.0000       0.180197         4.9034
  16   0.0000       0.255265         6.9461
  17   0.0000       0.484179        13.1752
  18   0.0000       0.569913        15.5081
  19   0.0000       0.612904        16.6780

MULLIKEN ATOMIC CHARGES
-----------------------
   0 C :    0.221418
   1 O :   -0.361453
   2 C :   -0.201527
   3 C :   -0.227621
   4 H :    0.130137
   5 H :    0.142281
   6 H :    0.145782
   7 H :    0.150983
Sum of atomic charges:   -0.0000000

LOEWDIN ATOMIC CHARGES
----------------------
   0 C :    0.169648
   1 O :   -0.239603
   2 C :   -0.143062
   3 C :   -0.135965
   4 H :    0.073705
   5 H :    0.075318
   6 H :    0.101492
   7 H :    0.098467

  Mayer bond orders larger than 0.100000
B(  0-C ,  1-O ) :   1.9682 B(  0-C ,  2-C ) :   0.9477 B(  0-C ,  4-H ) :   0.8968
B(  2-C ,  3-C ) :   1.9987 B(  2-C ,  5-H ) :   0.9638 B(  3-C ,  6-H ) :   0.9589
B(  3-C ,  7-H ) :   0.9600

-----------------------------------------------------------------------------
         ABSORPTION SPECTRUM VIA TRANSITION ELECTRIC DIPOLE MOMENTS
-----------------------------------------------------------------------------
State   Energy    Wavelength  fosc         T2        TX        TY        TZ
        (cm-1)      (nm)                 (au**2)    (au)      (au)      (au)
-----------------------------------------------------------------------------
   1   38795.1    257.8   0.000258661   0.00219   0.01959   0.02290  -0.03587

Dispersion correction           -0.025727583
FINAL SINGLE POINT ENERGY      -189.245269747621

DIPOLE MOMENT
-------------
                                X             Y             Z
Electronic contribution:     -2.64937      -0.83409      -1.56246
Nuclear contribution   :      3.16780       1.13961       2.39034
                        -----------------------------------------
Total Dipole Moment    :      0.51843       0.30552       0.82788
                        -----------------------------------------
Magnitude (a.u.)       :      1.02347
Magnitude (Debye)      :      2.60147

Rotational constants in cm-1:     1.134472     0.164089     0.158926
Rotational constants in MHz : 34010.606782  4919.258734  4764.477599

                             ****ORCA TERMINATED NORMALLY****
TOTAL RUN TIME: 0 days 0 hours 0 minutes 11 seconds 316 msec
