                         Program Version 5.0.3 -  RELEASE  -
|  1> ! B3LYP cc-pVDZ
|  2> !TightSCF
|  3> %scf
|  4>  ConvForced true
|  5>  convergence tight
|  6>  MaxIter 500
|  7> end
|  8>
|  9> %tddft
| 10>  nroots 1
| 11> end
| 12>
| 13> # 	10908
| 14> * xyz 0 1
| 15> 		C   -1.203314  -0.302729   0.020059
| 16> 		O   -1.597499  -1.139904   0.808670
| 17> 		C    0.025346   0.519463   0.257496
| 18> 		C    1.204381   0.000017  -0.053747
| 19> 		H   -1.575695  -0.185762  -1.043438
| 20> 		H   -0.145377   1.515182   0.550083
| 21> 		H    1.288532  -0.981655  -0.537497
| 22> 		H    2.029125   0.654120  -0.065503
| 23> *
| 24>
| 25>                          ****END OF INPUT****

CARTESIAN COORDINATES (ANGSTROEM)
---------------------------------
  C     -1.203314   -0.302729    0.020059
  O     -1.597499   -1.139904    0.808670
  C      0.025346    0.519463    0.257496
  C      1.204381    0.000017   -0.053747
  H     -1.575695   -0.185762   -1.043438
  H     -0.145377    1.515182    0.550083
  H      1.288532   -0.981655   -0.537497
  H      2.029125    0.654120   -0.065503

 Total Charge           Charge          ....    0
 Multiplicity           Mult            ....    1
 Number of Electrons    NEL             ....   30
 Basis Dimension        Dim             ....   76

ORBITAL ENERGIES
----------------

  NO   OCC          E(Eh)            E(eV)
   0   2.0000     -19.147487      -521.0296
   1   2.0000     -10.283273      -279.8221
   2   2.0000     -10.201435      -277.5952
   3   2.0000     -10.199423      -277.5404
   4   2.0000      -1.049212       -28.5505
   5   2.0000      -0.799597       -21.7581
   6   2.0000      -0.651121       -17.7179
   7   2.0000      -0.559574       -15.2268
   8   2.0000      -0.496384       -13.5073
   9   2.0000      -0.456646       -12.4260
  10   2.0000      -0.444096       -12.0845
  11   2.0000      -0.394271       -10.7287
  12   2.0000      -0.376301       -10.2397
  13   2.0000      -0.287073        -7.8117
  14   2.0000      -0.255322        -6.9477
  15   0.0000      -0.033820        -0.9203
  16   0.0000      -0.010928        -0.2974
  17   0.0000       0.085590         2.3290
  18   0.0000       0.095814         2.6072
  19   0.0000       0.097439         2.6514

MULLIKEN ATOMIC CHARGES
-----------------------
   0 C :    0.154065
   1 O :   -0.182079
   2 C :   -0.061788
   3 C :    0.051583
   4 H :    0.000123
   5 H :   -0.003269
   6 H :    0.024134
   7 H :    0.017232
Sum of atomic charges:   -0.0000000

LOEWDIN ATOMIC CHARGES
----------------------
   0 C :   -0.016569
   1 O :    0.006439
   2 C :   -0.044417
   3 C :   -0.021820
   4 H :   -0.001403
   5 H :    0.023112
   6 H :    0.032117
   7 H :    0.022542

  Mayer bond orders larger than 0.100000
B(  0-C ,  1-O ) :   2.2279 B(  0-C ,  2-C ) :   0.9837 B(  0-C ,  4-H ) :   0.9039
B(  2-C ,  3-C ) :   2.0426 B(  2-C ,  5-H ) :   0.9406 B(  3-C ,  6-H ) :   0.9448
B(  3-C ,  7-H ) :   0.9436

-----------------------------------------------------------------------------
         ABSORPTION SPECTRUM VIA TRANSITION ELECTRIC DIPOLE MOMENTS
-----------------------------------------------------------------------------
State   Energy    Wavelength  fosc         T2        TX        TY        TZ
        (cm-1)      (nm)                 (au**2)    (au)      (au)      (au)
-----------------------------------------------------------------------------
   1   32893.5    304.0   0.000295305   0.00296   0.02955   0.01821   0.04184

FINAL SINGLE POINT ENERGY      -191.640481167428

DIPOLE MOMENT
-------------
                                X             Y             Z
Electronic contribution:     -2.61862      -1.22286       1.40853
Nuclear contribution   :      3.06231       1.90582      -1.99242
                        -----------------------------------------
Total Dipole Moment    :      0.44369       0.68296      -0.58389
                        -----------------------------------------
Magnitude (a.u.)       :      1.00211
Magnitude (Debye)      :      2.54716

Rotational constants in cm-1:     0.916493     0.176449     0.164065
Rotational constants in MHz : 27475.777905  5289.810976  4918.550309

                             ****ORCA TERMINATED NORMALLY****
TOTAL RUN TIME: 0 days 0 hours 3 minutes 18 seconds 495 msec
