                         Program Version 5.0.3 -  RELEASE  -
|  1> ! HF-3c
|  2> !TightSCF
|  3> %scf
|  4>  ConvForced true
|  5>  convergence tight
|  6>  MaxIter 500
|  7> end
|  8>
|  9> %tddft
| 10>  nroots 1
| 11> end
| 12>
| 13> # 	21864
| 14> * xyz 0 1
| 15> 		C   -0.546376  -0.436848   0.008764
| 16> 		O   -0.606469  -1.628326  -0.015378
| 17> 		C    0.619766   0.373230   0.044334
| 18> 		C    1.853686  -0.102598  -0.022632
| 19> 		H   -1.448926   0.312056   0.072301
| 20> 		H    0.479992   1.305745  -0.368915
| 21> 		H    1.876777  -1.091080   0.075200
| 22> 		H    2.690141   0.550474   0.089092
| 23> *
| 24>
| 25>                          ****END OF INPUT****

CARTESIAN COORDINATES (ANGSTROEM)
---------------------------------
  C     -0.546376   -0.436848    0.008764
  O     -0.606469   -1.628326   -0.015378
  C      0.619766    0.373230    0.044334
  C      1.853686   -0.102598   -0.022632
  H     -1.448926    0.312056    0.072301
  H      0.479992    1.305745   -0.368915
  H      1.876777   -1.091080    0.075200
  H      2.690141    0.550474    0.089092

 Total Charge           Charge          ....    0
 Multiplicity           Mult            ....    1
 Number of Electrons    NEL             ....   30
 Basis Dimension        Dim             ....   24

ORBITAL ENERGIES
----------------

  NO   OCC          E(Eh)            E(eV)
   0   2.0000     -20.374224      -554.4108
   1   2.0000     -11.300799      -307.5104
   2   2.0000     -11.202899      -304.8464
   3   2.0000     -11.187828      -304.4363
   4   2.0000      -1.416162       -38.5357
   5   2.0000      -1.109320       -30.1861
   6   2.0000      -0.918258       -24.9871
   7   2.0000      -0.751501       -20.4494
   8   2.0000      -0.718147       -19.5418
   9   2.0000      -0.626371       -17.0444
  10   2.0000      -0.610228       -16.6051
  11   2.0000      -0.570639       -15.5279
  12   2.0000      -0.534039       -14.5319
  13   2.0000      -0.411959       -11.2100
  14   2.0000      -0.399915       -10.8822
  15   0.0000       0.117001         3.1838
  16   0.0000       0.305341         8.3087
  17   0.0000       0.559906        15.2358
  18   0.0000       0.667519        18.1641
  19   0.0000       0.698527        19.0079

MULLIKEN ATOMIC CHARGES
-----------------------
   0 C :    0.180716
   1 O :   -0.356964
   2 C :   -0.190598
   3 C :   -0.223730
   4 H :    0.128221
   5 H :    0.143228
   6 H :    0.159979
   7 H :    0.159148
Sum of atomic charges:    0.0000000

LOEWDIN ATOMIC CHARGES
----------------------
   0 C :    0.151913
   1 O :   -0.256319
   2 C :   -0.145716
   3 C :   -0.108906
   4 H :    0.070110
   5 H :    0.086959
   6 H :    0.097305
   7 H :    0.104654

  Mayer bond orders larger than 0.100000
B(  0-C ,  1-O ) :   1.9034 B(  0-C ,  2-C ) :   1.0420 B(  0-C ,  4-H ) :   0.9103
B(  2-C ,  3-C ) :   1.9243 B(  2-C ,  5-H ) :   0.9599 B(  3-C ,  6-H ) :   0.9613
B(  3-C ,  7-H ) :   0.9633

-----------------------------------------------------------------------------
         ABSORPTION SPECTRUM VIA TRANSITION ELECTRIC DIPOLE MOMENTS
-----------------------------------------------------------------------------
State   Energy    Wavelength  fosc         T2        TX        TY        TZ
        (cm-1)      (nm)                 (au**2)    (au)      (au)      (au)
-----------------------------------------------------------------------------
   1   32656.4    306.2   0.000331579   0.00334  -0.05569  -0.00083   0.01551

Dispersion correction           -0.026666674
FINAL SINGLE POINT ENERGY      -189.303575157084

DIPOLE MOMENT
-------------
                                X             Y             Z
Electronic contribution:     -1.84902      -1.84604       0.09020
Nuclear contribution   :      2.21947       2.79837      -0.12346
                        -----------------------------------------
Total Dipole Moment    :      0.37046       0.95234      -0.03326
                        -----------------------------------------
Magnitude (a.u.)       :      1.02240
Magnitude (Debye)      :      2.59872

Rotational constants in cm-1:     0.832434     0.209804     0.168207
Rotational constants in MHz : 24955.739582  6289.777578  5042.724485

                             ****ORCA TERMINATED NORMALLY****
TOTAL RUN TIME: 0 days 0 hours 0 minutes 12 seconds 73 msec
