                         Program Version 5.0.3 -  RELEASE  -
|  1> ! B3LYP cc-pVDZ
|  2> !TightSCF
|  3> %scf
|  4>  ConvForced true
|  5>  convergence tight
|  6>  MaxIter 500
|  7> end
|  8>
|  9> %tddft
| 10>  nroots 1
| 11> end
| 12>
| 13> # 	294
| 14> * xyz 0 1
| 15> 		C   -1.248768  -0.357300   0.019333
| 16> 		O   -1.915195  -0.930068   0.816527
| 17> 		C    0.014968   0.441187   0.214620
| 18> 		C    1.172079   0.056925  -0.240345
| 19> 		H   -1.473780  -0.543074  -1.032416
| 20> 		H    0.011366   1.546001   0.851451
| 21> 		H    1.447879  -0.878109  -0.699673
| 22> 		H    1.994882   0.613801  -0.029085
| 23> *
| 24>
| 25>                          ****END OF INPUT****

CARTESIAN COORDINATES (ANGSTROEM)
---------------------------------
  C     -1.248768   -0.357300    0.019333
  O     -1.915195   -0.930068    0.816527
  C      0.014968    0.441187    0.214620
  C      1.172079    0.056925   -0.240345
  H     -1.473780   -0.543074   -1.032416
  H      0.011366    1.546001    0.851451
  H      1.447879   -0.878109   -0.699673
  H      1.994882    0.613801   -0.029085

 Total Charge           Charge          ....    0
 Multiplicity           Mult            ....    1
 Number of Electrons    NEL             ....   30
 Basis Dimension        Dim             ....   76

ORBITAL ENERGIES
----------------

  NO   OCC          E(Eh)            E(eV)
   0   2.0000     -19.145601      -520.9783
   1   2.0000     -10.280133      -279.7366
   2   2.0000     -10.220013      -278.1007
   3   2.0000     -10.196148      -277.4513
   4   2.0000      -1.065058       -28.9817
   5   2.0000      -0.802325       -21.8324
   6   2.0000      -0.653300       -17.7772
   7   2.0000      -0.555231       -15.1086
   8   2.0000      -0.487541       -13.2667
   9   2.0000      -0.471779       -12.8378
  10   2.0000      -0.441953       -12.0262
  11   2.0000      -0.396600       -10.7920
  12   2.0000      -0.369304       -10.0493
  13   2.0000      -0.295202        -8.0328
  14   2.0000      -0.255137        -6.9426
  15   0.0000      -0.046052        -1.2531
  16   0.0000       0.009496         0.2584
  17   0.0000       0.060672         1.6510
  18   0.0000       0.093673         2.5490
  19   0.0000       0.113005         3.0750

MULLIKEN ATOMIC CHARGES
-----------------------
   0 C :    0.192134
   1 O :   -0.158847
   2 C :   -0.178222
   3 C :    0.095509
   4 H :   -0.020292
   5 H :    0.050612
   6 H :    0.014993
   7 H :    0.004113
Sum of atomic charges:    0.0000000

LOEWDIN ATOMIC CHARGES
----------------------
   0 C :   -0.040207
   1 O :    0.033905
   2 C :   -0.070672
   3 C :   -0.019934
   4 H :   -0.009448
   5 H :    0.063108
   6 H :    0.027115
   7 H :    0.016133

  Mayer bond orders larger than 0.100000
B(  0-C ,  1-O ) :   2.2556 B(  0-C ,  2-C ) :   0.9638 B(  0-C ,  4-H ) :   0.9186
B(  2-C ,  3-C ) :   2.0473 B(  2-C ,  5-H ) :   0.9101 B(  3-C ,  6-H ) :   0.9541
B(  3-C ,  7-H ) :   0.9315

-----------------------------------------------------------------------------
         ABSORPTION SPECTRUM VIA TRANSITION ELECTRIC DIPOLE MOMENTS
-----------------------------------------------------------------------------
State   Energy    Wavelength  fosc         T2        TX        TY        TZ
        (cm-1)      (nm)                 (au**2)    (au)      (au)      (au)
-----------------------------------------------------------------------------
   1   32073.4    311.8   0.000124095   0.00127   0.00173   0.03565  -0.00022

FINAL SINGLE POINT ENERGY      -191.627137814741

DIPOLE MOMENT
-------------
                                X             Y             Z
Electronic contribution:     -3.08895      -1.08772       1.16643
Nuclear contribution   :      3.80435       1.51546      -1.65250
                        -----------------------------------------
Total Dipole Moment    :      0.71540       0.42774      -0.48606
                        -----------------------------------------
Magnitude (a.u.)       :      0.96489
Magnitude (Debye)      :      2.45255

Rotational constants in cm-1:     1.188015     0.155924     0.150123
Rotational constants in MHz : 35615.782728  4674.474613  4500.559832

                             ****ORCA TERMINATED NORMALLY****
TOTAL RUN TIME: 0 days 0 hours 3 minutes 24 seconds 812 msec
