                         Program Version 5.0.3 -  RELEASE  -
|  1> ! B3LYP cc-pVDZ
|  2> !TightSCF
|  3> %scf
|  4>  ConvForced true
|  5>  convergence tight
|  6>  MaxIter 500
|  7> end
|  8>
|  9> %tddft
| 10>  nroots 1
| 11> end
| 12>
| 13> # 	14323
| 14> * xyz 0 1
| 15> 		C   -1.188287  -0.319930   0.011600
| 16> 		O   -1.238142  -1.548760   0.344725
| 17> 		C    0.010536   0.518304   0.070901
| 18> 		C    1.229913  -0.034474  -0.080352
| 19> 		H   -2.106345   0.165444  -0.494840
| 20> 		H   -0.056983   1.653833   0.327033
| 21> 		H    1.254725  -1.079381  -0.156770
| 22> 		H    2.075503   0.633714  -0.035119
| 23> *
| 24>
| 25>                          ****END OF INPUT****

CARTESIAN COORDINATES (ANGSTROEM)
---------------------------------
  C     -1.188287   -0.319930    0.011600
  O     -1.238142   -1.548760    0.344725
  C      0.010536    0.518304    0.070901
  C      1.229913   -0.034474   -0.080352
  H     -2.106345    0.165444   -0.494840
  H     -0.056983    1.653833    0.327033
  H      1.254725   -1.079381   -0.156770
  H      2.075503    0.633714   -0.035119

 Total Charge           Charge          ....    0
 Multiplicity           Mult            ....    1
 Number of Electrons    NEL             ....   30
 Basis Dimension        Dim             ....   76

ORBITAL ENERGIES
----------------

  NO   OCC          E(Eh)            E(eV)
   0   2.0000     -19.142085      -520.8826
   1   2.0000     -10.285172      -279.8737
   2   2.0000     -10.215639      -277.9817
   3   2.0000     -10.210741      -277.8484
   4   2.0000      -1.014424       -27.6039
   5   2.0000      -0.799578       -21.7576
   6   2.0000      -0.660780       -17.9807
   7   2.0000      -0.538748       -14.6601
   8   2.0000      -0.507337       -13.8053
   9   2.0000      -0.438605       -11.9351
  10   2.0000      -0.426409       -11.6032
  11   2.0000      -0.393223       -10.7001
  12   2.0000      -0.367285        -9.9943
  13   2.0000      -0.287849        -7.8328
  14   2.0000      -0.257128        -6.9968
  15   0.0000      -0.073388        -1.9970
  16   0.0000       0.025363         0.6902
  17   0.0000       0.067604         1.8396
  18   0.0000       0.091887         2.5004
  19   0.0000       0.109843         2.9890

MULLIKEN ATOMIC CHARGES
-----------------------
   0 C :    0.180037
   1 O :   -0.237612
   2 C :   -0.146603
   3 C :    0.122050
   4 H :    0.008577
   5 H :    0.024781
   6 H :    0.020236
   7 H :    0.028534
Sum of atomic charges:   -0.0000000

LOEWDIN ATOMIC CHARGES
----------------------
   0 C :    0.000003
   1 O :   -0.062047
   2 C :   -0.080654
   3 C :    0.033629
   4 H :    0.007708
   5 H :    0.045840
   6 H :    0.022928
   7 H :    0.032591

  Mayer bond orders larger than 0.100000
B(  0-C ,  1-O ) :   2.1183 B(  0-C ,  2-C ) :   1.0489 B(  0-C ,  4-H ) :   0.9149
B(  2-C ,  3-C ) :   1.9740 B(  2-C ,  5-H ) :   0.9358 B(  3-C ,  6-H ) :   0.9339
B(  3-C ,  7-H ) :   0.9406

-----------------------------------------------------------------------------
         ABSORPTION SPECTRUM VIA TRANSITION ELECTRIC DIPOLE MOMENTS
-----------------------------------------------------------------------------
State   Energy    Wavelength  fosc         T2        TX        TY        TZ
        (cm-1)      (nm)                 (au**2)    (au)      (au)      (au)
-----------------------------------------------------------------------------
   1   26881.5    372.0   0.000110878   0.00136  -0.02309  -0.00154  -0.02868

FINAL SINGLE POINT ENERGY      -191.671734014778

DIPOLE MOMENT
-------------
                                X             Y             Z
Electronic contribution:     -1.82894      -1.74574       0.46308
Nuclear contribution   :      2.28647       2.70557      -0.68035
                        -----------------------------------------
Total Dipole Moment    :      0.45752       0.95982      -0.21728
                        -----------------------------------------
Magnitude (a.u.)       :      1.08527
Magnitude (Debye)      :      2.75852

Rotational constants in cm-1:     0.744821     0.201457     0.161821
Rotational constants in MHz : 22329.177802  6039.526344  4851.266456

                             ****ORCA TERMINATED NORMALLY****
TOTAL RUN TIME: 0 days 0 hours 3 minutes 22 seconds 285 msec
