                         Program Version 5.0.3 -  RELEASE  -
|  1> ! B3LYP cc-pVDZ
|  2> !TightSCF
|  3> %scf
|  4>  ConvForced true
|  5>  convergence tight
|  6>  MaxIter 500
|  7> end
|  8>
|  9> %tddft
| 10>  nroots 1
| 11> end
| 12>
| 13> # 	21192
| 14> * xyz 0 1
| 15> 		C   -0.600748  -0.424175  -0.021430
| 16> 		O   -0.572317  -1.641915   0.005303
| 17> 		C    0.597363   0.410354   0.026903
| 18> 		C    1.884183  -0.113096  -0.028777
| 19> 		H   -1.670000   0.197685  -0.013514
| 20> 		H    0.431753   1.427668   0.052318
| 21> 		H    2.031579  -1.183911   0.194869
| 22> 		H    2.801403   0.402197  -0.042617
| 23> *
| 24>
| 25>                          ****END OF INPUT****

CARTESIAN COORDINATES (ANGSTROEM)
---------------------------------
  C     -0.600748   -0.424175   -0.021430
  O     -0.572317   -1.641915    0.005303
  C      0.597363    0.410354    0.026903
  C      1.884183   -0.113096   -0.028777
  H     -1.670000    0.197685   -0.013514
  H      0.431753    1.427668    0.052318
  H      2.031579   -1.183911    0.194869
  H      2.801403    0.402197   -0.042617

 Total Charge           Charge          ....    0
 Multiplicity           Mult            ....    1
 Number of Electrons    NEL             ....   30
 Basis Dimension        Dim             ....   76

ORBITAL ENERGIES
----------------

  NO   OCC          E(Eh)            E(eV)
   0   2.0000     -19.140003      -520.8260
   1   2.0000     -10.283679      -279.8331
   2   2.0000     -10.222112      -278.1578
   3   2.0000     -10.209402      -277.8119
   4   2.0000      -1.042735       -28.3743
   5   2.0000      -0.790068       -21.4988
   6   2.0000      -0.662768       -18.0348
   7   2.0000      -0.541011       -14.7217
   8   2.0000      -0.504268       -13.7218
   9   2.0000      -0.448106       -12.1936
  10   2.0000      -0.422478       -11.4962
  11   2.0000      -0.398881       -10.8541
  12   2.0000      -0.384356       -10.4589
  13   2.0000      -0.281561        -7.6617
  14   2.0000      -0.256584        -6.9820
  15   0.0000      -0.081402        -2.2151
  16   0.0000       0.054524         1.4837
  17   0.0000       0.064994         1.7686
  18   0.0000       0.088856         2.4179
  19   0.0000       0.119644         3.2557

MULLIKEN ATOMIC CHARGES
-----------------------
   0 C :    0.137874
   1 O :   -0.189018
   2 C :   -0.056642
   3 C :    0.071608
   4 H :   -0.011144
   5 H :   -0.029520
   6 H :    0.047479
   7 H :    0.029363
Sum of atomic charges:    0.0000000

LOEWDIN ATOMIC CHARGES
----------------------
   0 C :   -0.044699
   1 O :   -0.010455
   2 C :   -0.065496
   3 C :    0.049093
   4 H :    0.000794
   5 H :    0.011838
   6 H :    0.038316
   7 H :    0.020609

  Mayer bond orders larger than 0.100000
B(  0-C ,  1-O ) :   2.1760 B(  0-C ,  2-C ) :   1.0711 B(  0-C ,  4-H ) :   0.8893
B(  1-O ,  3-C ) :   0.1015 B(  2-C ,  3-C ) :   1.9209 B(  2-C ,  5-H ) :   0.9530
B(  3-C ,  6-H ) :   0.9436 B(  3-C ,  7-H ) :   0.9550

-----------------------------------------------------------------------------
         ABSORPTION SPECTRUM VIA TRANSITION ELECTRIC DIPOLE MOMENTS
-----------------------------------------------------------------------------
State   Energy    Wavelength  fosc         T2        TX        TY        TZ
        (cm-1)      (nm)                 (au**2)    (au)      (au)      (au)
-----------------------------------------------------------------------------
   1   26152.8    382.4   0.000164286   0.00207   0.03347  -0.01135  -0.02861

FINAL SINGLE POINT ENERGY      -191.673616100258

DIPOLE MOMENT
-------------
                                X             Y             Z
Electronic contribution:     -1.70259      -1.70590      -0.14500
Nuclear contribution   :      2.21779       2.57777       0.17949
                        -----------------------------------------
Total Dipole Moment    :      0.51519       0.87187       0.03449
                        -----------------------------------------
Magnitude (a.u.)       :      1.01330
Magnitude (Debye)      :      2.57560

Rotational constants in cm-1:     0.730955     0.206473     0.161205
Rotational constants in MHz : 21913.483041  6189.912433  4832.795595

                             ****ORCA TERMINATED NORMALLY****
TOTAL RUN TIME: 0 days 0 hours 3 minutes 19 seconds 529 msec
