                         Program Version 5.0.3 -  RELEASE  -
|  1> ! B3LYP cc-pVDZ
|  2> !TightSCF
|  3> %scf
|  4>  ConvForced true
|  5>  convergence tight
|  6>  MaxIter 500
|  7> end
|  8>
|  9> %tddft
| 10>  nroots 1
| 11> end
| 12>
| 13> # 	20011
| 14> * xyz 0 1
| 15> 		C   -0.649328  -0.469671   0.008164
| 16> 		O   -0.551775  -1.612423  -0.009806
| 17> 		C    0.651764   0.425483  -0.003388
| 18> 		C    1.855235  -0.121184   0.023142
| 19> 		H   -1.657948   0.093594   0.006612
| 20> 		H    0.532616   1.610348  -0.016973
| 21> 		H    1.987049  -1.330968   0.035300
| 22> 		H    2.731935   0.450744  -0.215034
| 23> *
| 24>
| 25>                          ****END OF INPUT****

CARTESIAN COORDINATES (ANGSTROEM)
---------------------------------
  C     -0.649328   -0.469671    0.008164
  O     -0.551775   -1.612423   -0.009806
  C      0.651764    0.425483   -0.003388
  C      1.855235   -0.121184    0.023142
  H     -1.657948    0.093594    0.006612
  H      0.532616    1.610348   -0.016973
  H      1.987049   -1.330968    0.035300
  H      2.731935    0.450744   -0.215034

 Total Charge           Charge          ....    0
 Multiplicity           Mult            ....    1
 Number of Electrons    NEL             ....   30
 Basis Dimension        Dim             ....   76

ORBITAL ENERGIES
----------------

  NO   OCC          E(Eh)            E(eV)
   0   2.0000     -19.147962      -521.0425
   1   2.0000     -10.284114      -279.8450
   2   2.0000     -10.210008      -277.8284
   3   2.0000     -10.208710      -277.7931
   4   2.0000      -1.091185       -29.6927
   5   2.0000      -0.778008       -21.1707
   6   2.0000      -0.630629       -17.1603
   7   2.0000      -0.533991       -14.5306
   8   2.0000      -0.493624       -13.4322
   9   2.0000      -0.452671       -12.3178
  10   2.0000      -0.430414       -11.7122
  11   2.0000      -0.420985       -11.4556
  12   2.0000      -0.362781        -9.8718
  13   2.0000      -0.285945        -7.7810
  14   2.0000      -0.258422        -7.0320
  15   0.0000      -0.054036        -1.4704
  16   0.0000       0.058083         1.5805
  17   0.0000       0.063180         1.7192
  18   0.0000       0.083423         2.2701
  19   0.0000       0.102641         2.7930

MULLIKEN ATOMIC CHARGES
-----------------------
   0 C :    0.164089
   1 O :   -0.120222
   2 C :   -0.168355
   3 C :    0.030516
   4 H :   -0.012890
   5 H :    0.015747
   6 H :    0.060371
   7 H :    0.030745
Sum of atomic charges:   -0.0000000

LOEWDIN ATOMIC CHARGES
----------------------
   0 C :   -0.060932
   1 O :    0.067835
   2 C :   -0.100315
   3 C :   -0.016705
   4 H :   -0.006410
   5 H :    0.037607
   6 H :    0.052936
   7 H :    0.025984

  Mayer bond orders larger than 0.100000
B(  0-C ,  1-O ) :   2.2803 B(  0-C ,  2-C ) :   0.9576 B(  0-C ,  4-H ) :   0.8967
B(  2-C ,  3-C ) :   2.0017 B(  2-C ,  5-H ) :   0.9299 B(  3-C ,  6-H ) :   0.9259
B(  3-C ,  7-H ) :   0.9379

-----------------------------------------------------------------------------
         ABSORPTION SPECTRUM VIA TRANSITION ELECTRIC DIPOLE MOMENTS
-----------------------------------------------------------------------------
State   Energy    Wavelength  fosc         T2        TX        TY        TZ
        (cm-1)      (nm)                 (au**2)    (au)      (au)      (au)
-----------------------------------------------------------------------------
   1   32126.3    311.3   0.000100191   0.00103  -0.02008  -0.00024  -0.02497

FINAL SINGLE POINT ENERGY      -191.637969080972

DIPOLE MOMENT
-------------
                                X             Y             Z
Electronic contribution:     -2.02100      -1.85994       0.13578
Nuclear contribution   :      2.21373       2.56019      -0.17760
                        -----------------------------------------
Total Dipole Moment    :      0.19273       0.70026      -0.04182
                        -----------------------------------------
Magnitude (a.u.)       :      0.72750
Magnitude (Debye)      :      1.84915

Rotational constants in cm-1:     0.745704     0.206900     0.162140
Rotational constants in MHz : 22355.649062  6202.697568  4860.842176

                             ****ORCA TERMINATED NORMALLY****
TOTAL RUN TIME: 0 days 0 hours 3 minutes 21 seconds 879 msec
