                         Program Version 5.0.3 -  RELEASE  -
|  1> ! HF-3c
|  2> !TightSCF
|  3> %scf
|  4>  ConvForced true
|  5>  convergence tight
|  6>  MaxIter 500
|  7> end
|  8>
|  9> %tddft
| 10>  nroots 1
| 11> end
| 12>
| 13> # 	28106
| 14> * xyz 0 1
| 15> 		C   -0.593864  -0.377927  -0.032082
| 16> 		O   -0.604727  -1.665067   0.025590
| 17> 		C    0.619153   0.343777   0.043401
| 18> 		C    1.860597  -0.094038  -0.035629
| 19> 		H   -1.601837   0.062662  -0.190148
| 20> 		H    0.765388   1.464963   0.052347
| 21> 		H    2.255845  -0.932107  -0.102348
| 22> 		H    2.695378   0.630538   0.138144
| 23> *
| 24>
| 25>                          ****END OF INPUT****

CARTESIAN COORDINATES (ANGSTROEM)
---------------------------------
  C     -0.593864   -0.377927   -0.032082
  O     -0.604727   -1.665067    0.025590
  C      0.619153    0.343777    0.043401
  C      1.860597   -0.094038   -0.035629
  H     -1.601837    0.062662   -0.190148
  H      0.765388    1.464963    0.052347
  H      2.255845   -0.932107   -0.102348
  H      2.695378    0.630538    0.138144

 Total Charge           Charge          ....    0
 Multiplicity           Mult            ....    1
 Number of Electrons    NEL             ....   30
 Basis Dimension        Dim             ....   24

ORBITAL ENERGIES
----------------

  NO   OCC          E(Eh)            E(eV)
   0   2.0000     -20.347012      -553.6703
   1   2.0000     -11.285409      -307.0916
   2   2.0000     -11.204304      -304.8846
   3   2.0000     -11.199643      -304.7578
   4   2.0000      -1.351193       -36.7678
   5   2.0000      -1.095609       -29.8130
   6   2.0000      -0.916028       -24.9264
   7   2.0000      -0.779499       -21.2112
   8   2.0000      -0.711058       -19.3489
   9   2.0000      -0.617959       -16.8155
  10   2.0000      -0.579701       -15.7745
  11   2.0000      -0.520889       -14.1741
  12   2.0000      -0.513973       -13.9859
  13   2.0000      -0.425283       -11.5725
  14   2.0000      -0.389386       -10.5957
  15   0.0000       0.106206         2.8900
  16   0.0000       0.309017         8.4088
  17   0.0000       0.509256        13.8576
  18   0.0000       0.590045        16.0559
  19   0.0000       0.673730        18.3331

MULLIKEN ATOMIC CHARGES
-----------------------
   0 C :    0.123850
   1 O :   -0.325009
   2 C :   -0.174452
   3 C :   -0.224519
   4 H :    0.152868
   5 H :    0.159453
   6 H :    0.144265
   7 H :    0.143544
Sum of atomic charges:   -0.0000000

LOEWDIN ATOMIC CHARGES
----------------------
   0 C :    0.125925
   1 O :   -0.254378
   2 C :   -0.125836
   3 C :   -0.118079
   4 H :    0.090354
   5 H :    0.108889
   6 H :    0.078282
   7 H :    0.094843

  Mayer bond orders larger than 0.100000
B(  0-C ,  1-O ) :   1.8708 B(  0-C ,  2-C ) :   1.0799 B(  0-C ,  4-H ) :   0.9360
B(  2-C ,  3-C ) :   1.9197 B(  2-C ,  5-H ) :   0.9476 B(  3-C ,  6-H ) :   0.9671
B(  3-C ,  7-H ) :   0.9642

-----------------------------------------------------------------------------
         ABSORPTION SPECTRUM VIA TRANSITION ELECTRIC DIPOLE MOMENTS
-----------------------------------------------------------------------------
State   Energy    Wavelength  fosc         T2        TX        TY        TZ
        (cm-1)      (nm)                 (au**2)    (au)      (au)      (au)
-----------------------------------------------------------------------------
   1   26518.4    377.1   0.000018985   0.00024  -0.00741  -0.00565   0.01220

Dispersion correction           -0.025483456
FINAL SINGLE POINT ENERGY      -189.311076322420

DIPOLE MOMENT
-------------
                                X             Y             Z
Electronic contribution:     -2.37259      -1.85726       0.04358
Nuclear contribution   :      2.70071       2.93621      -0.09630
                        -----------------------------------------
Total Dipole Moment    :      0.32812       1.07896      -0.05272
                        -----------------------------------------
Magnitude (a.u.)       :      1.12898
Magnitude (Debye)      :      2.86963

Rotational constants in cm-1:     0.803660     0.200575     0.160911
Rotational constants in MHz : 24093.111483  6013.083734  4824.000040

                             ****ORCA TERMINATED NORMALLY****
TOTAL RUN TIME: 0 days 0 hours 0 minutes 12 seconds 434 msec
