                         Program Version 5.0.3 -  RELEASE  -
|  1> ! B3LYP cc-pVDZ
|  2> !TightSCF
|  3> %scf
|  4>  ConvForced true
|  5>  convergence tight
|  6>  MaxIter 500
|  7> end
|  8>
|  9> %tddft
| 10>  nroots 1
| 11> end
| 12>
| 13> # 	20210
| 14> * xyz 0 1
| 15> 		C   -0.562002  -0.415556   0.023399
| 16> 		O   -0.566737  -1.671949  -0.014104
| 17> 		C    0.630778   0.441935  -0.028115
| 18> 		C    1.799688  -0.137256   0.004107
| 19> 		H   -1.573614   0.276682   0.091130
| 20> 		H    0.605964   1.599787   0.003340
| 21> 		H    1.932212  -1.047957   0.116979
| 22> 		H    2.741741   0.307728   0.017380
| 23> *
| 24>
| 25>                          ****END OF INPUT****

CARTESIAN COORDINATES (ANGSTROEM)
---------------------------------
  C     -0.562002   -0.415556    0.023399
  O     -0.566737   -1.671949   -0.014104
  C      0.630778    0.441935   -0.028115
  C      1.799688   -0.137256    0.004107
  H     -1.573614    0.276682    0.091130
  H      0.605964    1.599787    0.003340
  H      1.932212   -1.047957    0.116979
  H      2.741741    0.307728    0.017380

 Total Charge           Charge          ....    0
 Multiplicity           Mult            ....    1
 Number of Electrons    NEL             ....   30
 Basis Dimension        Dim             ....   76

ORBITAL ENERGIES
----------------

  NO   OCC          E(Eh)            E(eV)
   0   2.0000     -19.145444      -520.9740
   1   2.0000     -10.290177      -280.0099
   2   2.0000     -10.212063      -277.8844
   3   2.0000     -10.192886      -277.3625
   4   2.0000      -1.024784       -27.8858
   5   2.0000      -0.811395       -22.0792
   6   2.0000      -0.668708       -18.1965
   7   2.0000      -0.557259       -15.1638
   8   2.0000      -0.504039       -13.7156
   9   2.0000      -0.451694       -12.2912
  10   2.0000      -0.413460       -11.2508
  11   2.0000      -0.391798       -10.6614
  12   2.0000      -0.383726       -10.4417
  13   2.0000      -0.294221        -8.0062
  14   2.0000      -0.259664        -7.0658
  15   0.0000      -0.076474        -2.0810
  16   0.0000       0.055767         1.5175
  17   0.0000       0.058186         1.5833
  18   0.0000       0.090341         2.4583
  19   0.0000       0.115691         3.1481

MULLIKEN ATOMIC CHARGES
-----------------------
   0 C :    0.173467
   1 O :   -0.218845
   2 C :   -0.155879
   3 C :    0.233560
   4 H :   -0.001740
   5 H :    0.016220
   6 H :   -0.051202
   7 H :    0.004420
Sum of atomic charges:    0.0000000

LOEWDIN ATOMIC CHARGES
----------------------
   0 C :   -0.009416
   1 O :   -0.044663
   2 C :   -0.080536
   3 C :    0.074708
   4 H :    0.002625
   5 H :    0.047537
   6 H :   -0.017761
   7 H :    0.027506

  Mayer bond orders larger than 0.100000
B(  0-C ,  1-O ) :   2.1402 B(  0-C ,  2-C ) :   1.0498 B(  0-C ,  4-H ) :   0.8964
B(  2-C ,  3-C ) :   1.9656 B(  2-C ,  5-H ) :   0.9376 B(  3-C ,  6-H ) :   0.9329
B(  3-C ,  7-H ) :   0.9482

-----------------------------------------------------------------------------
         ABSORPTION SPECTRUM VIA TRANSITION ELECTRIC DIPOLE MOMENTS
-----------------------------------------------------------------------------
State   Energy    Wavelength  fosc         T2        TX        TY        TZ
        (cm-1)      (nm)                 (au**2)    (au)      (au)      (au)
-----------------------------------------------------------------------------
   1   27154.6    368.3   0.000122297   0.00148  -0.01742  -0.00635  -0.03375

FINAL SINGLE POINT ENERGY      -191.640776611174

DIPOLE MOMENT
-------------
                                X             Y             Z
Electronic contribution:     -1.76276      -1.92930      -0.15318
Nuclear contribution   :      2.31894       2.85136       0.21463
                        -----------------------------------------
Total Dipole Moment    :      0.55618       0.92206       0.06144
                        -----------------------------------------
Magnitude (a.u.)       :      1.07857
Magnitude (Debye)      :      2.74150

Rotational constants in cm-1:     0.734052     0.213375     0.165456
Rotational constants in MHz : 22006.331413  6396.822594  4960.238001

                             ****ORCA TERMINATED NORMALLY****
TOTAL RUN TIME: 0 days 0 hours 3 minutes 21 seconds 506 msec
