                         Program Version 5.0.3 -  RELEASE  -
|  1> ! HF-3c
|  2> !TightSCF
|  3> %scf
|  4>  ConvForced true
|  5>  convergence tight
|  6>  MaxIter 500
|  7> end
|  8>
|  9> %tddft
| 10>  nroots 1
| 11> end
| 12>
| 13> # 	32058
| 14> * xyz 0 1
| 15> 		C   -0.562840  -0.480363  -0.024982
| 16> 		O   -0.610124  -1.618177   0.022703
| 17> 		C    0.644682   0.385856   0.011880
| 18> 		C    1.840918  -0.106232  -0.022089
| 19> 		H   -1.503999   0.229115  -0.065235
| 20> 		H    0.619851   1.595145   0.065615
| 21> 		H    2.008361  -1.078519  -0.157148
| 22> 		H    2.644718   0.591740   0.234860
| 23> *
| 24>
| 25>                          ****END OF INPUT****

CARTESIAN COORDINATES (ANGSTROEM)
---------------------------------
  C     -0.562840   -0.480363   -0.024982
  O     -0.610124   -1.618177    0.022703
  C      0.644682    0.385856    0.011880
  C      1.840918   -0.106232   -0.022089
  H     -1.503999    0.229115   -0.065235
  H      0.619851    1.595145    0.065615
  H      2.008361   -1.078519   -0.157148
  H      2.644718    0.591740    0.234860

 Total Charge           Charge          ....    0
 Multiplicity           Mult            ....    1
 Number of Electrons    NEL             ....   30
 Basis Dimension        Dim             ....   24

ORBITAL ENERGIES
----------------

  NO   OCC          E(Eh)            E(eV)
   0   2.0000     -20.397964      -555.0568
   1   2.0000     -11.318707      -307.9977
   2   2.0000     -11.186130      -304.3901
   3   2.0000     -11.183026      -304.3056
   4   2.0000      -1.462103       -39.7858
   5   2.0000      -1.091797       -29.7093
   6   2.0000      -0.886550       -24.1243
   7   2.0000      -0.738082       -20.0842
   8   2.0000      -0.715871       -19.4798
   9   2.0000      -0.633815       -17.2470
  10   2.0000      -0.601232       -16.3603
  11   2.0000      -0.576961       -15.6999
  12   2.0000      -0.527339       -14.3496
  13   2.0000      -0.412534       -11.2256
  14   2.0000      -0.397227       -10.8091
  15   0.0000       0.146942         3.9985
  16   0.0000       0.331060         9.0086
  17   0.0000       0.499030        13.5793
  18   0.0000       0.562694        15.3117
  19   0.0000       0.648539        17.6476

MULLIKEN ATOMIC CHARGES
-----------------------
   0 C :    0.206539
   1 O :   -0.365436
   2 C :   -0.159156
   3 C :   -0.248868
   4 H :    0.120863
   5 H :    0.146093
   6 H :    0.151352
   7 H :    0.148614
Sum of atomic charges:   -0.0000000

LOEWDIN ATOMIC CHARGES
----------------------
   0 C :    0.159979
   1 O :   -0.242411
   2 C :   -0.129511
   3 C :   -0.142550
   4 H :    0.061245
   5 H :    0.103284
   6 H :    0.091071
   7 H :    0.098894

  Mayer bond orders larger than 0.100000
B(  0-C ,  1-O ) :   1.9335 B(  0-C ,  2-C ) :   0.9947 B(  0-C ,  4-H ) :   0.9027
B(  2-C ,  3-C ) :   1.9647 B(  2-C ,  5-H ) :   0.9543 B(  3-C ,  6-H ) :   0.9622
B(  3-C ,  7-H ) :   0.9619

-----------------------------------------------------------------------------
         ABSORPTION SPECTRUM VIA TRANSITION ELECTRIC DIPOLE MOMENTS
-----------------------------------------------------------------------------
State   Energy    Wavelength  fosc         T2        TX        TY        TZ
        (cm-1)      (nm)                 (au**2)    (au)      (au)      (au)
-----------------------------------------------------------------------------
   1   36541.4    273.7   0.000061079   0.00055  -0.02082  -0.00261   0.01049

Dispersion correction           -0.025847302
FINAL SINGLE POINT ENERGY      -189.288927030820

DIPOLE MOMENT
-------------
                                X             Y             Z
Electronic contribution:     -2.09135      -2.02843      -0.06977
Nuclear contribution   :      2.37563       3.04204       0.07231
                        -----------------------------------------
Total Dipole Moment    :      0.28428       1.01361       0.00253
                        -----------------------------------------
Magnitude (a.u.)       :      1.05272
Magnitude (Debye)      :      2.67580

Rotational constants in cm-1:     0.837921     0.205864     0.165626
Rotational constants in MHz : 25120.235284  6171.643775  4965.354071

                             ****ORCA TERMINATED NORMALLY****
TOTAL RUN TIME: 0 days 0 hours 0 minutes 12 seconds 952 msec
