                         Program Version 5.0.3 -  RELEASE  -
|  1> ! HF-3c
|  2> !TightSCF
|  3> %scf
|  4>  ConvForced true
|  5>  convergence tight
|  6>  MaxIter 500
|  7> end
|  8>
|  9> %tddft
| 10>  nroots 1
| 11> end
| 12>
| 13> # 	27541
| 14> * xyz 0 1
| 15> 		C   -0.501734  -0.382524  -0.048852
| 16> 		O   -0.592223  -1.641220   0.039797
| 17> 		C    0.591504   0.399866  -0.002814
| 18> 		C    1.810691  -0.134451  -0.022915
| 19> 		H   -1.463601  -0.017720  -0.035960
| 20> 		H    0.655454   1.463464   0.235720
| 21> 		H    1.885746  -1.291077  -0.235415
| 22> 		H    2.678895   0.516999   0.324944
| 23> *
| 24>
| 25>                          ****END OF INPUT****

CARTESIAN COORDINATES (ANGSTROEM)
---------------------------------
  C     -0.501734   -0.382524   -0.048852
  O     -0.592223   -1.641220    0.039797
  C      0.591504    0.399866   -0.002814
  C      1.810691   -0.134451   -0.022915
  H     -1.463601   -0.017720   -0.035960
  H      0.655454    1.463464    0.235720
  H      1.885746   -1.291077   -0.235415
  H      2.678895    0.516999    0.324944

 Total Charge           Charge          ....    0
 Multiplicity           Mult            ....    1
 Number of Electrons    NEL             ....   30
 Basis Dimension        Dim             ....   24

ORBITAL ENERGIES
----------------

  NO   OCC          E(Eh)            E(eV)
   0   2.0000     -20.329550      -553.1952
   1   2.0000     -11.280132      -306.9480
   2   2.0000     -11.200164      -304.7720
   3   2.0000     -11.191687      -304.5413
   4   2.0000      -1.359282       -36.9880
   5   2.0000      -1.103740       -30.0343
   6   2.0000      -0.907983       -24.7075
   7   2.0000      -0.741874       -20.1874
   8   2.0000      -0.722558       -19.6618
   9   2.0000      -0.602180       -16.3862
  10   2.0000      -0.575553       -15.6616
  11   2.0000      -0.531781       -14.4705
  12   2.0000      -0.514929       -14.0119
  13   2.0000      -0.415195       -11.2980
  14   2.0000      -0.378936       -10.3114
  15   0.0000       0.110452         3.0055
  16   0.0000       0.323790         8.8108
  17   0.0000       0.527688        14.3591
  18   0.0000       0.558772        15.2049
  19   0.0000       0.656112        17.8537

MULLIKEN ATOMIC CHARGES
-----------------------
   0 C :    0.112328
   1 O :   -0.347141
   2 C :   -0.219600
   3 C :   -0.164828
   4 H :    0.144866
   5 H :    0.156672
   6 H :    0.167740
   7 H :    0.149963
Sum of atomic charges:    0.0000000

LOEWDIN ATOMIC CHARGES
----------------------
   0 C :    0.121172
   1 O :   -0.276280
   2 C :   -0.170224
   3 C :   -0.073352
   4 H :    0.074989
   5 H :    0.103556
   6 H :    0.118209
   7 H :    0.101930

  Mayer bond orders larger than 0.100000
B(  0-C ,  1-O ) :   1.8360 B(  0-C ,  2-C ) :   1.1189 B(  0-C ,  4-H ) :   0.9429
B(  1-O ,  3-C ) :   0.1139 B(  2-C ,  3-C ) :   1.8708 B(  2-C ,  5-H ) :   0.9503
B(  3-C ,  6-H ) :   0.9525 B(  3-C ,  7-H ) :   0.9630

-----------------------------------------------------------------------------
         ABSORPTION SPECTRUM VIA TRANSITION ELECTRIC DIPOLE MOMENTS
-----------------------------------------------------------------------------
State   Energy    Wavelength  fosc         T2        TX        TY        TZ
        (cm-1)      (nm)                 (au**2)    (au)      (au)      (au)
-----------------------------------------------------------------------------
   1   27480.6    363.9   0.000064000   0.00077   0.01268  -0.00066   0.02461

Dispersion correction           -0.026412185
FINAL SINGLE POINT ENERGY      -189.316236410106

DIPOLE MOMENT
-------------
                                X             Y             Z
Electronic contribution:     -1.73556      -1.49608      -0.23192
Nuclear contribution   :      2.36382       2.41942       0.26981
                        -----------------------------------------
Total Dipole Moment    :      0.62827       0.92335       0.03788
                        -----------------------------------------
Magnitude (a.u.)       :      1.11746
Magnitude (Debye)      :      2.84036

Rotational constants in cm-1:     0.792132     0.216749     0.171150
Rotational constants in MHz : 23747.520599  6497.970249  5130.941649

                             ****ORCA TERMINATED NORMALLY****
TOTAL RUN TIME: 0 days 0 hours 0 minutes 11 seconds 475 msec
