                         Program Version 5.0.3 -  RELEASE  -
|  1> ! HF-3c
|  2> !TightSCF
|  3> %scf
|  4>  ConvForced true
|  5>  convergence tight
|  6>  MaxIter 500
|  7> end
|  8>
|  9> %tddft
| 10>  nroots 1
| 11> end
| 12>
| 13> # 	3214
| 14> * xyz 0 1
| 15> 		C   -1.144190  -0.452096   0.059326
| 16> 		O   -2.050635  -0.622937   0.873242
| 17> 		C    0.021746   0.366811   0.396237
| 18> 		C    1.162683  -0.009724  -0.193665
| 19> 		H   -1.103288  -0.554638  -1.012251
| 20> 		H   -0.100542   1.265200   0.997328
| 21> 		H    1.131808  -0.687576  -1.014510
| 22> 		H    2.095330   0.715081  -0.157234
| 23> *
| 24>
| 25>                          ****END OF INPUT****

CARTESIAN COORDINATES (ANGSTROEM)
---------------------------------
  C     -1.144190   -0.452096    0.059326
  O     -2.050635   -0.622937    0.873242
  C      0.021746    0.366811    0.396237
  C      1.162683   -0.009724   -0.193665
  H     -1.103288   -0.554638   -1.012251
  H     -0.100542    1.265200    0.997328
  H      1.131808   -0.687576   -1.014510
  H      2.095330    0.715081   -0.157234

 Total Charge           Charge          ....    0
 Multiplicity           Mult            ....    1
 Number of Electrons    NEL             ....   30
 Basis Dimension        Dim             ....   24

ORBITAL ENERGIES
----------------

  NO   OCC          E(Eh)            E(eV)
   0   2.0000     -20.371062      -554.3248
   1   2.0000     -11.294275      -307.3329
   2   2.0000     -11.184907      -304.3568
   3   2.0000     -11.179910      -304.2208
   4   2.0000      -1.391624       -37.8680
   5   2.0000      -1.091317       -29.6962
   6   2.0000      -0.878717       -23.9111
   7   2.0000      -0.781206       -21.2577
   8   2.0000      -0.663150       -18.0452
   9   2.0000      -0.635113       -17.2823
  10   2.0000      -0.596461       -16.2305
  11   2.0000      -0.539790       -14.6884
  12   2.0000      -0.510095       -13.8804
  13   2.0000      -0.414652       -11.2833
  14   2.0000      -0.391065       -10.6414
  15   0.0000       0.135774         3.6946
  16   0.0000       0.262820         7.1517
  17   0.0000       0.548361        14.9217
  18   0.0000       0.637115        17.3368
  19   0.0000       0.649145        17.6641

MULLIKEN ATOMIC CHARGES
-----------------------
   0 C :    0.157200
   1 O :   -0.336782
   2 C :   -0.168701
   3 C :   -0.230638
   4 H :    0.144958
   5 H :    0.157248
   6 H :    0.133251
   7 H :    0.143465
Sum of atomic charges:   -0.0000000

LOEWDIN ATOMIC CHARGES
----------------------
   0 C :    0.146767
   1 O :   -0.247765
   2 C :   -0.121693
   3 C :   -0.143709
   4 H :    0.079352
   5 H :    0.102874
   6 H :    0.083893
   7 H :    0.100281

  Mayer bond orders larger than 0.100000
B(  0-C ,  1-O ) :   1.9197 B(  0-C ,  2-C ) :   1.0177 B(  0-C ,  4-H ) :   0.9231
B(  2-C ,  3-C ) :   1.9600 B(  2-C ,  5-H ) :   0.9533 B(  3-C ,  6-H ) :   0.9664
B(  3-C ,  7-H ) :   0.9612

-----------------------------------------------------------------------------
         ABSORPTION SPECTRUM VIA TRANSITION ELECTRIC DIPOLE MOMENTS
-----------------------------------------------------------------------------
State   Energy    Wavelength  fosc         T2        TX        TY        TZ
        (cm-1)      (nm)                 (au**2)    (au)      (au)      (au)
-----------------------------------------------------------------------------
   1   31241.3    320.1   0.000077982   0.00082  -0.01045  -0.00898  -0.02514

Dispersion correction           -0.026135571
FINAL SINGLE POINT ENERGY      -189.320066926094

DIPOLE MOMENT
-------------
                                X             Y             Z
Electronic contribution:     -3.06056      -1.04949       1.43049
Nuclear contribution   :      3.90306       1.37965      -2.17024
                        -----------------------------------------
Total Dipole Moment    :      0.84250       0.33017      -0.73975
                        -----------------------------------------
Magnitude (a.u.)       :      1.16878
Magnitude (Debye)      :      2.97080

Rotational constants in cm-1:     1.371840     0.162185     0.150086
Rotational constants in MHz : 41126.735187  4862.193063  4499.463553

                             ****ORCA TERMINATED NORMALLY****
TOTAL RUN TIME: 0 days 0 hours 0 minutes 11 seconds 48 msec
