                         Program Version 5.0.3 -  RELEASE  -
|  1> ! HF-3c
|  2> !TightSCF
|  3> %scf
|  4>  ConvForced true
|  5>  convergence tight
|  6>  MaxIter 500
|  7> end
|  8>
|  9> %tddft
| 10>  nroots 1
| 11> end
| 12>
| 13> # 	28913
| 14> * xyz 0 1
| 15> 		C   -0.563958  -0.403071  -0.008519
| 16> 		O   -0.602399  -1.688127   0.013005
| 17> 		C    0.636096   0.416666  -0.011983
| 18> 		C    1.847861  -0.098206   0.009177
| 19> 		H   -1.501961   0.165766  -0.045526
| 20> 		H    0.447939   1.547807   0.090477
| 21> 		H    1.962650  -1.150665  -0.182820
| 22> 		H    2.750755   0.502276   0.077976
| 23> *
| 24>
| 25>                          ****END OF INPUT****

CARTESIAN COORDINATES (ANGSTROEM)
---------------------------------
  C     -0.563958   -0.403071   -0.008519
  O     -0.602399   -1.688127    0.013005
  C      0.636096    0.416666   -0.011983
  C      1.847861   -0.098206    0.009177
  H     -1.501961    0.165766   -0.045526
  H      0.447939    1.547807    0.090477
  H      1.962650   -1.150665   -0.182820
  H      2.750755    0.502276    0.077976

 Total Charge           Charge          ....    0
 Multiplicity           Mult            ....    1
 Number of Electrons    NEL             ....   30
 Basis Dimension        Dim             ....   24

ORBITAL ENERGIES
----------------

  NO   OCC          E(Eh)            E(eV)
   0   2.0000     -20.344016      -553.5888
   1   2.0000     -11.279173      -306.9219
   2   2.0000     -11.196736      -304.6787
   3   2.0000     -11.193947      -304.6028
   4   2.0000      -1.346218       -36.6324
   5   2.0000      -1.087071       -29.5807
   6   2.0000      -0.903177       -24.5767
   7   2.0000      -0.741361       -20.1735
   8   2.0000      -0.694065       -18.8865
   9   2.0000      -0.610925       -16.6241
  10   2.0000      -0.583640       -15.8816
  11   2.0000      -0.519552       -14.1377
  12   2.0000      -0.515972       -14.0403
  13   2.0000      -0.417715       -11.3666
  14   2.0000      -0.389095       -10.5878
  15   0.0000       0.115562         3.1446
  16   0.0000       0.307359         8.3637
  17   0.0000       0.532990        14.5034
  18   0.0000       0.596826        16.2405
  19   0.0000       0.664176        18.0731

MULLIKEN ATOMIC CHARGES
-----------------------
   0 C :    0.139378
   1 O :   -0.340431
   2 C :   -0.173504
   3 C :   -0.218310
   4 H :    0.137521
   5 H :    0.145035
   6 H :    0.161068
   7 H :    0.149242
Sum of atomic charges:   -0.0000000

LOEWDIN ATOMIC CHARGES
----------------------
   0 C :    0.139668
   1 O :   -0.268679
   2 C :   -0.131194
   3 C :   -0.115842
   4 H :    0.075725
   5 H :    0.097457
   6 H :    0.105154
   7 H :    0.097710

  Mayer bond orders larger than 0.100000
B(  0-C ,  1-O ) :   1.8853 B(  0-C ,  2-C ) :   1.0554 B(  0-C ,  4-H ) :   0.9351
B(  2-C ,  3-C ) :   1.9310 B(  2-C ,  5-H ) :   0.9538 B(  3-C ,  6-H ) :   0.9572
B(  3-C ,  7-H ) :   0.9633

-----------------------------------------------------------------------------
         ABSORPTION SPECTRUM VIA TRANSITION ELECTRIC DIPOLE MOMENTS
-----------------------------------------------------------------------------
State   Energy    Wavelength  fosc         T2        TX        TY        TZ
        (cm-1)      (nm)                 (au**2)    (au)      (au)      (au)
-----------------------------------------------------------------------------
   1   28398.6    352.1   0.000028300   0.00033   0.01508  -0.00138   0.00994

Dispersion correction           -0.025609017
FINAL SINGLE POINT ENERGY      -189.354333924995

DIPOLE MOMENT
-------------
                                X             Y             Z
Electronic contribution:     -1.90493      -1.76008       0.03481
Nuclear contribution   :      2.27431       2.78546      -0.05678
                        -----------------------------------------
Total Dipole Moment    :      0.36938       1.02539      -0.02197
                        -----------------------------------------
Magnitude (a.u.)       :      1.09011
Magnitude (Debye)      :      2.77084

Rotational constants in cm-1:     0.751427     0.203688     0.160422
Rotational constants in MHz : 22527.215995  6106.412530  4809.321214

                             ****ORCA TERMINATED NORMALLY****
TOTAL RUN TIME: 0 days 0 hours 0 minutes 12 seconds 838 msec
