                         Program Version 5.0.3 -  RELEASE  -
|  1> ! B3LYP cc-pVDZ
|  2> !TightSCF
|  3> %scf
|  4>  ConvForced true
|  5>  convergence tight
|  6>  MaxIter 500
|  7> end
|  8>
|  9> %tddft
| 10>  nroots 1
| 11> end
| 12>
| 13> # 	639
| 14> * xyz 0 1
| 15> 		C   -1.198768  -0.355371   0.149779
| 16> 		O   -2.121982  -0.241864   0.831665
| 17> 		C    0.032351   0.402586   0.361581
| 18> 		C    1.171942   0.104896  -0.358926
| 19> 		H   -1.183798  -1.093796  -0.812100
| 20> 		H   -0.003190   1.206500   1.130884
| 21> 		H    1.195919  -0.677751  -1.049049
| 22> 		H    2.141019   0.614727  -0.217548
| 23> *
| 24>
| 25>                          ****END OF INPUT****

CARTESIAN COORDINATES (ANGSTROEM)
---------------------------------
  C     -1.198768   -0.355371    0.149779
  O     -2.121982   -0.241864    0.831665
  C      0.032351    0.402586    0.361581
  C      1.171942    0.104896   -0.358926
  H     -1.183798   -1.093796   -0.812100
  H     -0.003190    1.206500    1.130884
  H      1.195919   -0.677751   -1.049049
  H      2.141019    0.614727   -0.217548

 Total Charge           Charge          ....    0
 Multiplicity           Mult            ....    1
 Number of Electrons    NEL             ....   30
 Basis Dimension        Dim             ....   76

ORBITAL ENERGIES
----------------

  NO   OCC          E(Eh)            E(eV)
   0   2.0000     -19.139740      -520.8188
   1   2.0000     -10.276298      -279.6323
   2   2.0000     -10.220192      -278.1056
   3   2.0000     -10.212536      -277.8972
   4   2.0000      -1.082047       -29.4440
   5   2.0000      -0.793472       -21.5915
   6   2.0000      -0.646121       -17.5819
   7   2.0000      -0.559545       -15.2260
   8   2.0000      -0.480652       -13.0792
   9   2.0000      -0.470809       -12.8114
  10   2.0000      -0.424830       -11.5602
  11   2.0000      -0.415643       -11.3102
  12   2.0000      -0.395481       -10.7616
  13   2.0000      -0.288658        -7.8548
  14   2.0000      -0.255182        -6.9439
  15   0.0000      -0.063115        -1.7175
  16   0.0000       0.055283         1.5043
  17   0.0000       0.072468         1.9720
  18   0.0000       0.078054         2.1240
  19   0.0000       0.120854         3.2886

MULLIKEN ATOMIC CHARGES
-----------------------
   0 C :    0.139215
   1 O :   -0.138871
   2 C :   -0.087881
   3 C :    0.056445
   4 H :   -0.038064
   5 H :    0.011244
   6 H :    0.015454
   7 H :    0.042460
Sum of atomic charges:    0.0000000

LOEWDIN ATOMIC CHARGES
----------------------
   0 C :   -0.091522
   1 O :    0.057384
   2 C :   -0.056354
   3 C :    0.017240
   4 H :   -0.013804
   5 H :    0.036351
   6 H :    0.015119
   7 H :    0.035586

  Mayer bond orders larger than 0.100000
B(  0-C ,  1-O ) :   2.2285 B(  0-C ,  2-C ) :   1.0644 B(  0-C ,  4-H ) :   0.8880
B(  2-C ,  3-C ) :   1.9200 B(  2-C ,  5-H ) :   0.9475 B(  3-C ,  6-H ) :   0.9450
B(  3-C ,  7-H ) :   0.9501

-----------------------------------------------------------------------------
         ABSORPTION SPECTRUM VIA TRANSITION ELECTRIC DIPOLE MOMENTS
-----------------------------------------------------------------------------
State   Energy    Wavelength  fosc         T2        TX        TY        TZ
        (cm-1)      (nm)                 (au**2)    (au)      (au)      (au)
-----------------------------------------------------------------------------
   1   30165.3    331.5   0.000073374   0.00080   0.02270  -0.01306   0.01072

FINAL SINGLE POINT ENERGY      -191.661817042756

DIPOLE MOMENT
-------------
                                X             Y             Z
Electronic contribution:     -3.15621      -0.09387       1.42605
Nuclear contribution   :      4.11697       0.17693      -1.82990
                        -----------------------------------------
Total Dipole Moment    :      0.96075       0.08306      -0.40384
                        -----------------------------------------
Magnitude (a.u.)       :      1.04548
Magnitude (Debye)      :      2.65741

Rotational constants in cm-1:     1.530076     0.158389     0.143903
Rotational constants in MHz : 45870.524583  4748.387139  4314.117425

                             ****ORCA TERMINATED NORMALLY****
TOTAL RUN TIME: 0 days 0 hours 3 minutes 23 seconds 225 msec
