                         Program Version 5.0.3 -  RELEASE  -
|  1> ! HF-3c
|  2> !TightSCF
|  3> %scf
|  4>  ConvForced true
|  5>  convergence tight
|  6>  MaxIter 500
|  7> end
|  8>
|  9> %tddft
| 10>  nroots 1
| 11> end
| 12>
| 13> # 	32133
| 14> * xyz 0 1
| 15> 		C   -0.586731  -0.448947  -0.029136
| 16> 		O   -0.606022  -1.688192   0.005562
| 17> 		C    0.627595   0.432151   0.008743
| 18> 		C    1.884701  -0.057175  -0.006930
| 19> 		H   -1.588845   0.258214   0.185183
| 20> 		H    0.449503   1.553544  -0.051294
| 21> 		H    1.951116  -1.186786   0.029379
| 22> 		H    2.813474   0.311521   0.072822
| 23> *
| 24>
| 25>                          ****END OF INPUT****

CARTESIAN COORDINATES (ANGSTROEM)
---------------------------------
  C     -0.586731   -0.448947   -0.029136
  O     -0.606022   -1.688192    0.005562
  C      0.627595    0.432151    0.008743
  C      1.884701   -0.057175   -0.006930
  H     -1.588845    0.258214    0.185183
  H      0.449503    1.553544   -0.051294
  H      1.951116   -1.186786    0.029379
  H      2.813474    0.311521    0.072822

 Total Charge           Charge          ....    0
 Multiplicity           Mult            ....    1
 Number of Electrons    NEL             ....   30
 Basis Dimension        Dim             ....   24

ORBITAL ENERGIES
----------------

  NO   OCC          E(Eh)            E(eV)
   0   2.0000     -20.359981      -554.0232
   1   2.0000     -11.289321      -307.1980
   2   2.0000     -11.191332      -304.5316
   3   2.0000     -11.189918      -304.4931
   4   2.0000      -1.377414       -37.4813
   5   2.0000      -1.067909       -29.0593
   6   2.0000      -0.886915       -24.1342
   7   2.0000      -0.738042       -20.0831
   8   2.0000      -0.681243       -18.5376
   9   2.0000      -0.615486       -16.7482
  10   2.0000      -0.584652       -15.9092
  11   2.0000      -0.525983       -14.3127
  12   2.0000      -0.507503       -13.8098
  13   2.0000      -0.403923       -10.9913
  14   2.0000      -0.389863       -10.6087
  15   0.0000       0.123170         3.3516
  16   0.0000       0.297399         8.0926
  17   0.0000       0.481257        13.0957
  18   0.0000       0.574309        15.6277
  19   0.0000       0.582579        15.8528

MULLIKEN ATOMIC CHARGES
-----------------------
   0 C :    0.177724
   1 O :   -0.354449
   2 C :   -0.167017
   3 C :   -0.227427
   4 H :    0.130876
   5 H :    0.140340
   6 H :    0.153450
   7 H :    0.146503
Sum of atomic charges:    0.0000000

LOEWDIN ATOMIC CHARGES
----------------------
   0 C :    0.152991
   1 O :   -0.266948
   2 C :   -0.128714
   3 C :   -0.122080
   4 H :    0.080085
   5 H :    0.092415
   6 H :    0.103810
   7 H :    0.088441

  Mayer bond orders larger than 0.100000
B(  0-C ,  1-O ) :   1.9112 B(  0-C ,  2-C ) :   1.0214 B(  0-C ,  4-H ) :   0.9094
B(  2-C ,  3-C ) :   1.9436 B(  2-C ,  5-H ) :   0.9576 B(  3-C ,  6-H ) :   0.9574
B(  3-C ,  7-H ) :   0.9681

-----------------------------------------------------------------------------
         ABSORPTION SPECTRUM VIA TRANSITION ELECTRIC DIPOLE MOMENTS
-----------------------------------------------------------------------------
State   Energy    Wavelength  fosc         T2        TX        TY        TZ
        (cm-1)      (nm)                 (au**2)    (au)      (au)      (au)
-----------------------------------------------------------------------------
   1   31195.0    320.6   0.000182531   0.00193   0.04210  -0.00519  -0.01126

Dispersion correction           -0.025105176
FINAL SINGLE POINT ENERGY      -189.321169509720

DIPOLE MOMENT
-------------
                                X             Y             Z
Electronic contribution:     -1.95248      -1.70597      -0.19315
Nuclear contribution   :      2.24395       2.66493       0.22166
                        -----------------------------------------
Total Dipole Moment    :      0.29147       0.95895       0.02850
                        -----------------------------------------
Magnitude (a.u.)       :      1.00267
Magnitude (Debye)      :      2.54860

Rotational constants in cm-1:     0.737145     0.197478     0.155913
Rotational constants in MHz : 22099.050335  5920.250357  4674.153351

                             ****ORCA TERMINATED NORMALLY****
TOTAL RUN TIME: 0 days 0 hours 0 minutes 9 seconds 483 msec
