                         Program Version 5.0.3 -  RELEASE  -
|  1> ! HF-3c
|  2> !TightSCF
|  3> %scf
|  4>  ConvForced true
|  5>  convergence tight
|  6>  MaxIter 500
|  7> end
|  8>
|  9> %tddft
| 10>  nroots 1
| 11> end
| 12>
| 13> # 	25117
| 14> * xyz 0 1
| 15> 		C   -0.634748  -0.421829   0.016485
| 16> 		O   -0.551147  -1.649696  -0.009247
| 17> 		C    0.637795   0.449182  -0.022169
| 18> 		C    1.831904  -0.146423   0.023254
| 19> 		H   -1.441090  -0.031915   0.025137
| 20> 		H    0.557370   1.639508   0.017173
| 21> 		H    1.908143  -1.228353  -0.005939
| 22> 		H    2.843319   0.465838  -0.104369
| 23> *
| 24>
| 25>                          ****END OF INPUT****

CARTESIAN COORDINATES (ANGSTROEM)
---------------------------------
  C     -0.634748   -0.421829    0.016485
  O     -0.551147   -1.649696   -0.009247
  C      0.637795    0.449182   -0.022169
  C      1.831904   -0.146423    0.023254
  H     -1.441090   -0.031915    0.025137
  H      0.557370    1.639508    0.017173
  H      1.908143   -1.228353   -0.005939
  H      2.843319    0.465838   -0.104369

 Total Charge           Charge          ....    0
 Multiplicity           Mult            ....    1
 Number of Electrons    NEL             ....   30
 Basis Dimension        Dim             ....   24

ORBITAL ENERGIES
----------------

  NO   OCC          E(Eh)            E(eV)
   0   2.0000     -20.372462      -554.3629
   1   2.0000     -11.303814      -307.5924
   2   2.0000     -11.181710      -304.2698
   3   2.0000     -11.179609      -304.2126
   4   2.0000      -1.396993       -38.0141
   5   2.0000      -1.058206       -28.7952
   6   2.0000      -0.910721       -24.7820
   7   2.0000      -0.763991       -20.7892
   8   2.0000      -0.690048       -18.7772
   9   2.0000      -0.609678       -16.5902
  10   2.0000      -0.577472       -15.7138
  11   2.0000      -0.534734       -14.5508
  12   2.0000      -0.514712       -14.0060
  13   2.0000      -0.425860       -11.5882
  14   2.0000      -0.387030       -10.5316
  15   0.0000       0.132438         3.6038
  16   0.0000       0.293192         7.9782
  17   0.0000       0.502150        13.6642
  18   0.0000       0.530755        14.4426
  19   0.0000       0.619428        16.8555

MULLIKEN ATOMIC CHARGES
-----------------------
   0 C :    0.124771
   1 O :   -0.331448
   2 C :   -0.157263
   3 C :   -0.218463
   4 H :    0.139639
   5 H :    0.143163
   6 H :    0.154561
   7 H :    0.145040
Sum of atomic charges:    0.0000000

LOEWDIN ATOMIC CHARGES
----------------------
   0 C :    0.131550
   1 O :   -0.243076
   2 C :   -0.124080
   3 C :   -0.127166
   4 H :    0.059705
   5 H :    0.099731
   6 H :    0.100642
   7 H :    0.102694

  Mayer bond orders larger than 0.100000
B(  0-C ,  1-O ) :   1.9152 B(  0-C ,  2-C ) :   1.0055 B(  0-C ,  4-H ) :   0.9493
B(  2-C ,  3-C ) :   1.9600 B(  2-C ,  5-H ) :   0.9556 B(  3-C ,  6-H ) :   0.9576
B(  3-C ,  7-H ) :   0.9606

-----------------------------------------------------------------------------
         ABSORPTION SPECTRUM VIA TRANSITION ELECTRIC DIPOLE MOMENTS
-----------------------------------------------------------------------------
State   Energy    Wavelength  fosc         T2        TX        TY        TZ
        (cm-1)      (nm)                 (au**2)    (au)      (au)      (au)
-----------------------------------------------------------------------------
   1   31190.0    320.6   0.000020349   0.00021  -0.01405  -0.00389  -0.00150

Dispersion correction           -0.025458983
FINAL SINGLE POINT ENERGY      -189.288851041373

DIPOLE MOMENT
-------------
                                X             Y             Z
Electronic contribution:     -2.14146      -1.66786       0.05853
Nuclear contribution   :      2.46998       2.58094      -0.06356
                        -----------------------------------------
Total Dipole Moment    :      0.32851       0.91307      -0.00504
                        -----------------------------------------
Magnitude (a.u.)       :      0.97039
Magnitude (Debye)      :      2.46652

Rotational constants in cm-1:     0.729783     0.208939     0.162524
Rotational constants in MHz : 21878.332356  6263.831233  4872.358057

                             ****ORCA TERMINATED NORMALLY****
TOTAL RUN TIME: 0 days 0 hours 0 minutes 10 seconds 676 msec
