                         Program Version 5.0.3 -  RELEASE  -
|  1> ! B3LYP cc-pVDZ
|  2> !TightSCF
|  3> %scf
|  4>  ConvForced true
|  5>  convergence tight
|  6>  MaxIter 500
|  7> end
|  8>
|  9> %tddft
| 10>  nroots 1
| 11> end
| 12>
| 13> # 	90
| 14> * xyz 0 1
| 15> 		C   -1.211771  -0.392166  -0.045080
| 16> 		O   -1.668435  -1.173897  -0.768059
| 17> 		C   -0.037657   0.463823  -0.259335
| 18> 		C    1.169597   0.015058   0.161009
| 19> 		H   -1.481438  -0.168875   0.968425
| 20> 		H   -0.013023   1.442621  -0.827687
| 21> 		H    1.266862  -0.891989   0.740771
| 22> 		H    1.996123   0.686402   0.058448
| 23> *
| 24>
| 25>                          ****END OF INPUT****

CARTESIAN COORDINATES (ANGSTROEM)
---------------------------------
  C     -1.211771   -0.392166   -0.045080
  O     -1.668435   -1.173897   -0.768059
  C     -0.037657    0.463823   -0.259335
  C      1.169597    0.015058    0.161009
  H     -1.481438   -0.168875    0.968425
  H     -0.013023    1.442621   -0.827687
  H      1.266862   -0.891989    0.740771
  H      1.996123    0.686402    0.058448

 Total Charge           Charge          ....    0
 Multiplicity           Mult            ....    1
 Number of Electrons    NEL             ....   30
 Basis Dimension        Dim             ....   76

ORBITAL ENERGIES
----------------

  NO   OCC          E(Eh)            E(eV)
   0   2.0000     -19.149641      -521.0882
   1   2.0000     -10.276408      -279.6353
   2   2.0000     -10.203723      -277.6574
   3   2.0000     -10.199808      -277.5509
   4   2.0000      -1.083989       -29.4968
   5   2.0000      -0.796755       -21.6808
   6   2.0000      -0.656410       -17.8618
   7   2.0000      -0.558172       -15.1886
   8   2.0000      -0.496395       -13.5076
   9   2.0000      -0.466917       -12.7054
  10   2.0000      -0.446006       -12.1364
  11   2.0000      -0.401343       -10.9211
  12   2.0000      -0.384160       -10.4535
  13   2.0000      -0.280214        -7.6250
  14   2.0000      -0.257034        -6.9943
  15   0.0000      -0.031784        -0.8649
  16   0.0000      -0.004308        -0.1172
  17   0.0000       0.083589         2.2746
  18   0.0000       0.094921         2.5829
  19   0.0000       0.111464         3.0331

MULLIKEN ATOMIC CHARGES
-----------------------
   0 C :    0.208742
   1 O :   -0.133069
   2 C :   -0.141040
   3 C :    0.029322
   4 H :   -0.026437
   5 H :    0.025987
   6 H :    0.015256
   7 H :    0.021239
Sum of atomic charges:    0.0000000

LOEWDIN ATOMIC CHARGES
----------------------
   0 C :   -0.063247
   1 O :    0.070285
   2 C :   -0.059211
   3 C :   -0.027548
   4 H :   -0.012480
   5 H :    0.045251
   6 H :    0.021767
   7 H :    0.025182

  Mayer bond orders larger than 0.100000
B(  0-C ,  1-O ) :   2.3071 B(  0-C ,  2-C ) :   0.9661 B(  0-C ,  4-H ) :   0.9065
B(  2-C ,  3-C ) :   2.0457 B(  2-C ,  5-H ) :   0.9318 B(  3-C ,  6-H ) :   0.9523
B(  3-C ,  7-H ) :   0.9446

-----------------------------------------------------------------------------
         ABSORPTION SPECTRUM VIA TRANSITION ELECTRIC DIPOLE MOMENTS
-----------------------------------------------------------------------------
State   Energy    Wavelength  fosc         T2        TX        TY        TZ
        (cm-1)      (nm)                 (au**2)    (au)      (au)      (au)
-----------------------------------------------------------------------------
   1   35057.1    285.2   0.000014471   0.00014  -0.00152  -0.01122   0.00279

FINAL SINGLE POINT ENERGY      -191.621581977236

DIPOLE MOMENT
-------------
                                X             Y             Z
Electronic contribution:     -2.91955      -1.49016      -1.30272
Nuclear contribution   :      3.37294       2.10451       1.74833
                        -----------------------------------------
Total Dipole Moment    :      0.45339       0.61435       0.44561
                        -----------------------------------------
Magnitude (a.u.)       :      0.88405
Magnitude (Debye)      :      2.24709

Rotational constants in cm-1:     1.022715     0.171691     0.162537
Rotational constants in MHz : 30660.227749  5147.177703  4872.723535

                             ****ORCA TERMINATED NORMALLY****
TOTAL RUN TIME: 0 days 0 hours 3 minutes 9 seconds 656 msec
