                         Program Version 5.0.3 -  RELEASE  -
|  1> ! B3LYP cc-pVDZ
|  2> !TightSCF
|  3> %scf
|  4>  ConvForced true
|  5>  convergence tight
|  6>  MaxIter 500
|  7> end
|  8>
|  9> %tddft
| 10>  nroots 1
| 11> end
| 12>
| 13> # 	12995
| 14> * xyz 0 1
| 15> 		C   -1.186694  -0.332640  -0.065061
| 16> 		O   -1.988928  -0.560243  -0.938980
| 17> 		C    0.059938   0.455026  -0.273731
| 18> 		C    1.199756   0.064668   0.295689
| 19> 		H   -1.291628  -0.769104   0.953354
| 20> 		H   -0.103636   1.234953  -0.999230
| 21> 		H    1.206141  -0.788917   0.876739
| 22> 		H    2.111513   0.690198   0.179466
| 23> *
| 24>
| 25>                          ****END OF INPUT****

CARTESIAN COORDINATES (ANGSTROEM)
---------------------------------
  C     -1.186694   -0.332640   -0.065061
  O     -1.988928   -0.560243   -0.938980
  C      0.059938    0.455026   -0.273731
  C      1.199756    0.064668    0.295689
  H     -1.291628   -0.769104    0.953354
  H     -0.103636    1.234953   -0.999230
  H      1.206141   -0.788917    0.876739
  H      2.111513    0.690198    0.179466

 Total Charge           Charge          ....    0
 Multiplicity           Mult            ....    1
 Number of Electrons    NEL             ....   30
 Basis Dimension        Dim             ....   76

ORBITAL ENERGIES
----------------

  NO   OCC          E(Eh)            E(eV)
   0   2.0000     -19.140977      -520.8525
   1   2.0000     -10.275156      -279.6012
   2   2.0000     -10.211443      -277.8675
   3   2.0000     -10.205463      -277.7048
   4   2.0000      -1.049300       -28.5529
   5   2.0000      -0.803219       -21.8567
   6   2.0000      -0.647617       -17.6225
   7   2.0000      -0.572502       -15.5786
   8   2.0000      -0.481919       -13.1137
   9   2.0000      -0.470184       -12.7943
  10   2.0000      -0.431192       -11.7333
  11   2.0000      -0.397214       -10.8088
  12   2.0000      -0.387427       -10.5424
  13   2.0000      -0.292061        -7.9474
  14   2.0000      -0.254688        -6.9304
  15   0.0000      -0.060018        -1.6332
  16   0.0000       0.032398         0.8816
  17   0.0000       0.081623         2.2211
  18   0.0000       0.086239         2.3467
  19   0.0000       0.123855         3.3703

MULLIKEN ATOMIC CHARGES
-----------------------
   0 C :    0.159232
   1 O :   -0.188780
   2 C :   -0.076622
   3 C :    0.083168
   4 H :   -0.022781
   5 H :    0.000606
   6 H :    0.003661
   7 H :    0.041516
Sum of atomic charges:    0.0000000

LOEWDIN ATOMIC CHARGES
----------------------
   0 C :   -0.033108
   1 O :    0.004712
   2 C :   -0.049517
   3 C :    0.001470
   4 H :   -0.008980
   5 H :    0.029871
   6 H :    0.014530
   7 H :    0.041022

  Mayer bond orders larger than 0.100000
B(  0-C ,  1-O ) :   2.1868 B(  0-C ,  2-C ) :   1.0486 B(  0-C ,  4-H ) :   0.9148
B(  2-C ,  3-C ) :   1.9716 B(  2-C ,  5-H ) :   0.9475 B(  3-C ,  6-H ) :   0.9363
B(  3-C ,  7-H ) :   0.9420

-----------------------------------------------------------------------------
         ABSORPTION SPECTRUM VIA TRANSITION ELECTRIC DIPOLE MOMENTS
-----------------------------------------------------------------------------
State   Energy    Wavelength  fosc         T2        TX        TY        TZ
        (cm-1)      (nm)                 (au**2)    (au)      (au)      (au)
-----------------------------------------------------------------------------
   1   29734.8    336.3   0.000639410   0.00708  -0.07856   0.01144  -0.02787

FINAL SINGLE POINT ENERGY      -191.666165376363

DIPOLE MOMENT
-------------
                                X             Y             Z
Electronic contribution:     -2.88862      -0.50369      -1.33370
Nuclear contribution   :      3.72335       0.76263       1.90986
                        -----------------------------------------
Total Dipole Moment    :      0.83472       0.25895       0.57616
                        -----------------------------------------
Magnitude (a.u.)       :      1.04679
Magnitude (Debye)      :      2.66073

Rotational constants in cm-1:     1.375025     0.157784     0.147570
Rotational constants in MHz : 41222.204985  4730.252174  4424.038348

                             ****ORCA TERMINATED NORMALLY****
TOTAL RUN TIME: 0 days 0 hours 2 minutes 49 seconds 55 msec
