                         Program Version 5.0.3 -  RELEASE  -
|  1> ! B3LYP cc-pVDZ
|  2> !TightSCF
|  3> %scf
|  4>  ConvForced true
|  5>  convergence tight
|  6>  MaxIter 500
|  7> end
|  8>
|  9> %tddft
| 10>  nroots 1
| 11> end
| 12>
| 13> # 	4245
| 14> * xyz 0 1
| 15> 		C   -1.219920  -0.367512   0.010314
| 16> 		O   -1.397851  -1.434058   0.491063
| 17> 		C    0.007720   0.480117   0.074166
| 18> 		C    1.261810   0.009914  -0.082542
| 19> 		H   -2.061116   0.011453  -0.535451
| 20> 		H   -0.108131   1.558589   0.454353
| 21> 		H    1.451400  -0.920561  -0.276572
| 22> 		H    2.039515   0.665427  -0.165377
| 23> *
| 24>
| 25>                          ****END OF INPUT****

CARTESIAN COORDINATES (ANGSTROEM)
---------------------------------
  C     -1.219920   -0.367512    0.010314
  O     -1.397851   -1.434058    0.491063
  C      0.007720    0.480117    0.074166
  C      1.261810    0.009914   -0.082542
  H     -2.061116    0.011453   -0.535451
  H     -0.108131    1.558589    0.454353
  H      1.451400   -0.920561   -0.276572
  H      2.039515    0.665427   -0.165377

 Total Charge           Charge          ....    0
 Multiplicity           Mult            ....    1
 Number of Electrons    NEL             ....   30
 Basis Dimension        Dim             ....   76

ORBITAL ENERGIES
----------------

  NO   OCC          E(Eh)            E(eV)
   0   2.0000     -19.137908      -520.7689
   1   2.0000     -10.271651      -279.5058
   2   2.0000     -10.212304      -277.8909
   3   2.0000     -10.193572      -277.3812
   4   2.0000      -1.062413       -28.9097
   5   2.0000      -0.794683       -21.6244
   6   2.0000      -0.663291       -18.0491
   7   2.0000      -0.558504       -15.1977
   8   2.0000      -0.510057       -13.8793
   9   2.0000      -0.449868       -12.2415
  10   2.0000      -0.445243       -12.1157
  11   2.0000      -0.406738       -11.0679
  12   2.0000      -0.380834       -10.3630
  13   2.0000      -0.286946        -7.8082
  14   2.0000      -0.251084        -6.8323
  15   0.0000      -0.051717        -1.4073
  16   0.0000       0.018629         0.5069
  17   0.0000       0.079706         2.1689
  18   0.0000       0.108901         2.9633
  19   0.0000       0.114236         3.1085

MULLIKEN ATOMIC CHARGES
-----------------------
   0 C :    0.193526
   1 O :   -0.164631
   2 C :   -0.180231
   3 C :    0.173000
   4 H :   -0.031113
   5 H :    0.028916
   6 H :   -0.025764
   7 H :    0.006297
Sum of atomic charges:   -0.0000000

LOEWDIN ATOMIC CHARGES
----------------------
   0 C :   -0.046205
   1 O :    0.027088
   2 C :   -0.062543
   3 C :    0.034639
   4 H :   -0.013235
   5 H :    0.045961
   6 H :   -0.004942
   7 H :    0.019238

  Mayer bond orders larger than 0.100000
B(  0-C ,  1-O ) :   2.2519 B(  0-C ,  2-C ) :   0.9929 B(  0-C ,  4-H ) :   0.9234
B(  2-C ,  3-C ) :   2.0160 B(  2-C ,  5-H ) :   0.9321 B(  3-C ,  6-H ) :   0.9482
B(  3-C ,  7-H ) :   0.9444

-----------------------------------------------------------------------------
         ABSORPTION SPECTRUM VIA TRANSITION ELECTRIC DIPOLE MOMENTS
-----------------------------------------------------------------------------
State   Energy    Wavelength  fosc         T2        TX        TY        TZ
        (cm-1)      (nm)                 (au**2)    (au)      (au)      (au)
-----------------------------------------------------------------------------
   1   30785.4    324.8   0.000001438   0.00002  -0.00006   0.00320  -0.00227

FINAL SINGLE POINT ENERGY      -191.637483060215

DIPOLE MOMENT
-------------
                                X             Y             Z
Electronic contribution:     -2.15611      -1.79079       0.66516
Nuclear contribution   :      2.59259       2.56625      -0.97754
                        -----------------------------------------
Total Dipole Moment    :      0.43648       0.77546      -0.31237
                        -----------------------------------------
Magnitude (a.u.)       :      0.94309
Magnitude (Debye)      :      2.39715

Rotational constants in cm-1:     0.881720     0.184146     0.157434
Rotational constants in MHz : 26433.314160  5520.551340  4719.757963

                             ****ORCA TERMINATED NORMALLY****
TOTAL RUN TIME: 0 days 0 hours 3 minutes 25 seconds 334 msec
