                         Program Version 5.0.3 -  RELEASE  -
|  1> ! HF-3c
|  2> !TightSCF
|  3> %scf
|  4>  ConvForced true
|  5>  convergence tight
|  6>  MaxIter 500
|  7> end
|  8>
|  9> %tddft
| 10>  nroots 1
| 11> end
| 12>
| 13> # 	2231
| 14> * xyz 0 1
| 15> 		C   -1.196312  -0.280499   0.016822
| 16> 		O   -1.851574  -0.853751   0.843640
| 17> 		C    0.028828   0.514556   0.267599
| 18> 		C    1.270066   0.100401  -0.139366
| 19> 		H   -1.467333  -0.530684  -1.030626
| 20> 		H   -0.132230   1.429995   0.939021
| 21> 		H    1.198142  -0.909439  -0.824694
| 22> 		H    2.157597   0.499512  -0.068540
| 23> *
| 24>
| 25>                          ****END OF INPUT****

CARTESIAN COORDINATES (ANGSTROEM)
---------------------------------
  C     -1.196312   -0.280499    0.016822
  O     -1.851574   -0.853751    0.843640
  C      0.028828    0.514556    0.267599
  C      1.270066    0.100401   -0.139366
  H     -1.467333   -0.530684   -1.030626
  H     -0.132230    1.429995    0.939021
  H      1.198142   -0.909439   -0.824694
  H      2.157597    0.499512   -0.068540

 Total Charge           Charge          ....    0
 Multiplicity           Mult            ....    1
 Number of Electrons    NEL             ....   30
 Basis Dimension        Dim             ....   24

ORBITAL ENERGIES
----------------

  NO   OCC          E(Eh)            E(eV)
   0   2.0000     -20.376501      -554.4728
   1   2.0000     -11.302040      -307.5441
   2   2.0000     -11.194344      -304.6136
   3   2.0000     -11.186440      -304.3985
   4   2.0000      -1.414962       -38.5031
   5   2.0000      -1.066401       -29.0183
   6   2.0000      -0.884402       -24.0658
   7   2.0000      -0.769153       -20.9297
   8   2.0000      -0.666534       -18.1373
   9   2.0000      -0.657715       -17.8973
  10   2.0000      -0.600800       -16.3486
  11   2.0000      -0.533228       -14.5099
  12   2.0000      -0.502619       -13.6770
  13   2.0000      -0.413038       -11.2393
  14   2.0000      -0.391537       -10.6543
  15   0.0000       0.156035         4.2459
  16   0.0000       0.238707         6.4955
  17   0.0000       0.495761        13.4903
  18   0.0000       0.573307        15.6005
  19   0.0000       0.670612        18.2483

MULLIKEN ATOMIC CHARGES
-----------------------
   0 C :    0.162487
   1 O :   -0.343804
   2 C :   -0.151783
   3 C :   -0.236518
   4 H :    0.137449
   5 H :    0.152476
   6 H :    0.137611
   7 H :    0.142082
Sum of atomic charges:   -0.0000000

LOEWDIN ATOMIC CHARGES
----------------------
   0 C :    0.143238
   1 O :   -0.245680
   2 C :   -0.111816
   3 C :   -0.145320
   4 H :    0.073571
   5 H :    0.103700
   6 H :    0.099134
   7 H :    0.083173

  Mayer bond orders larger than 0.100000
B(  0-C ,  1-O ) :   1.9353 B(  0-C ,  2-C ) :   1.0001 B(  0-C ,  4-H ) :   0.9209
B(  2-C ,  3-C ) :   1.9805 B(  2-C ,  5-H ) :   0.9478 B(  3-C ,  6-H ) :   0.9614
B(  3-C ,  7-H ) :   0.9696

-----------------------------------------------------------------------------
         ABSORPTION SPECTRUM VIA TRANSITION ELECTRIC DIPOLE MOMENTS
-----------------------------------------------------------------------------
State   Energy    Wavelength  fosc         T2        TX        TY        TZ
        (cm-1)      (nm)                 (au**2)    (au)      (au)      (au)
-----------------------------------------------------------------------------
   1   33953.7    294.5   0.000054248   0.00053   0.00597   0.00577   0.02138

Dispersion correction           -0.024957446
FINAL SINGLE POINT ENERGY      -189.296458428731

DIPOLE MOMENT
-------------
                                X             Y             Z
Electronic contribution:     -2.77327      -0.66368       1.22935
Nuclear contribution   :      3.40915       1.06129      -1.86887
                        -----------------------------------------
Total Dipole Moment    :      0.63588       0.39762      -0.63952
                        -----------------------------------------
Magnitude (a.u.)       :      0.98561
Magnitude (Debye)      :      2.50523

Rotational constants in cm-1:     1.117295     0.157543     0.152080
Rotational constants in MHz : 33495.664269  4723.029166  4559.242823

                             ****ORCA TERMINATED NORMALLY****
TOTAL RUN TIME: 0 days 0 hours 0 minutes 11 seconds 192 msec
