                         Program Version 5.0.3 -  RELEASE  -
|  1> ! HF-3c
|  2> !TightSCF
|  3> %scf
|  4>  ConvForced true
|  5>  convergence tight
|  6>  MaxIter 500
|  7> end
|  8>
|  9> %tddft
| 10>  nroots 1
| 11> end
| 12>
| 13> # 	16797
| 14> * xyz 0 1
| 15> 		C   -1.143473  -0.284776  -0.050008
| 16> 		O   -1.999157  -0.634239  -0.976551
| 17> 		C    0.102986   0.468965  -0.370518
| 18> 		C    1.148675   0.136534   0.335279
| 19> 		H   -1.416795  -0.837717   1.028599
| 20> 		H    0.081814   1.104925  -1.092745
| 21> 		H    1.128062  -0.602665   1.095666
| 22> 		H    2.074933   0.627428   0.053299
| 23> *
| 24>
| 25>                          ****END OF INPUT****

CARTESIAN COORDINATES (ANGSTROEM)
---------------------------------
  C     -1.143473   -0.284776   -0.050008
  O     -1.999157   -0.634239   -0.976551
  C      0.102986    0.468965   -0.370518
  C      1.148675    0.136534    0.335279
  H     -1.416795   -0.837717    1.028599
  H      0.081814    1.104925   -1.092745
  H      1.128062   -0.602665    1.095666
  H      2.074933    0.627428    0.053299

 Total Charge           Charge          ....    0
 Multiplicity           Mult            ....    1
 Number of Electrons    NEL             ....   30
 Basis Dimension        Dim             ....   24

ORBITAL ENERGIES
----------------

  NO   OCC          E(Eh)            E(eV)
   0   2.0000     -20.326718      -553.1181
   1   2.0000     -11.266007      -306.5636
   2   2.0000     -11.212160      -305.0984
   3   2.0000     -11.203613      -304.8658
   4   2.0000      -1.325435       -36.0669
   5   2.0000      -1.110606       -30.2211
   6   2.0000      -0.872982       -23.7550
   7   2.0000      -0.787948       -21.4411
   8   2.0000      -0.662185       -18.0190
   9   2.0000      -0.646400       -17.5895
  10   2.0000      -0.580482       -15.7957
  11   2.0000      -0.535034       -14.5590
  12   2.0000      -0.494101       -13.4452
  13   2.0000      -0.403443       -10.9782
  14   2.0000      -0.397915       -10.8278
  15   0.0000       0.132461         3.6045
  16   0.0000       0.269798         7.3416
  17   0.0000       0.466838        12.7033
  18   0.0000       0.599347        16.3091
  19   0.0000       0.653682        17.7876

MULLIKEN ATOMIC CHARGES
-----------------------
   0 C :    0.151249
   1 O :   -0.345696
   2 C :   -0.189499
   3 C :   -0.225925
   4 H :    0.146826
   5 H :    0.160989
   6 H :    0.149897
   7 H :    0.152159
Sum of atomic charges:    0.0000000

LOEWDIN ATOMIC CHARGES
----------------------
   0 C :    0.139112
   1 O :   -0.278516
   2 C :   -0.122392
   3 C :   -0.125348
   4 H :    0.097259
   5 H :    0.094004
   6 H :    0.096183
   7 H :    0.099698

  Mayer bond orders larger than 0.100000
B(  0-C ,  1-O ) :   1.8996 B(  0-C ,  2-C ) :   1.0276 B(  0-C ,  4-H ) :   0.9252
B(  2-C ,  3-C ) :   1.9545 B(  2-C ,  5-H ) :   0.9567 B(  3-C ,  6-H ) :   0.9641
B(  3-C ,  7-H ) :   0.9611

-----------------------------------------------------------------------------
         ABSORPTION SPECTRUM VIA TRANSITION ELECTRIC DIPOLE MOMENTS
-----------------------------------------------------------------------------
State   Energy    Wavelength  fosc         T2        TX        TY        TZ
        (cm-1)      (nm)                 (au**2)    (au)      (au)      (au)
-----------------------------------------------------------------------------
   1   28090.4    356.0   0.000078783   0.00092   0.00117  -0.02423   0.01830

Dispersion correction           -0.025503350
FINAL SINGLE POINT ENERGY      -189.318770528271

DIPOLE MOMENT
-------------
                                X             Y             Z
Electronic contribution:     -2.74211      -0.45637      -1.25843
Nuclear contribution   :      3.65846       0.66779       2.04855
                        -----------------------------------------
Total Dipole Moment    :      0.91635       0.21141       0.79012
                        -----------------------------------------
Magnitude (a.u.)       :      1.22828
Magnitude (Debye)      :      3.12205

Rotational constants in cm-1:     1.282460     0.157137     0.145189
Rotational constants in MHz : 38447.193568  4710.861819  4352.653758

                             ****ORCA TERMINATED NORMALLY****
TOTAL RUN TIME: 0 days 0 hours 0 minutes 11 seconds 346 msec
