                         Program Version 5.0.3 -  RELEASE  -
|  1> ! B3LYP cc-pVDZ
|  2> !TightSCF
|  3> %scf
|  4>  ConvForced true
|  5>  convergence tight
|  6>  MaxIter 500
|  7> end
|  8>
|  9> %tddft
| 10>  nroots 1
| 11> end
| 12>
| 13> # 	17605
| 14> * xyz 0 1
| 15> 		C   -1.187750  -0.273937  -0.079819
| 16> 		O   -1.327110  -1.307654  -0.670209
| 17> 		C    0.065736   0.576581  -0.195454
| 18> 		C    1.238460   0.025161   0.124707
| 19> 		H   -1.983493   0.100466   0.927458
| 20> 		H   -0.077684   1.466135  -0.688419
| 21> 		H    0.996732  -1.120367   0.452664
| 22> 		H    2.271987   0.531330   0.120384
| 23> *
| 24>
| 25>                          ****END OF INPUT****

CARTESIAN COORDINATES (ANGSTROEM)
---------------------------------
  C     -1.187750   -0.273937   -0.079819
  O     -1.327110   -1.307654   -0.670209
  C      0.065736    0.576581   -0.195454
  C      1.238460    0.025161    0.124707
  H     -1.983493    0.100466    0.927458
  H     -0.077684    1.466135   -0.688419
  H      0.996732   -1.120367    0.452664
  H      2.271987    0.531330    0.120384

 Total Charge           Charge          ....    0
 Multiplicity           Mult            ....    1
 Number of Electrons    NEL             ....   30
 Basis Dimension        Dim             ....   76

ORBITAL ENERGIES
----------------

  NO   OCC          E(Eh)            E(eV)
   0   2.0000     -19.158595      -521.3319
   1   2.0000     -10.300135      -280.2809
   2   2.0000     -10.222929      -278.1800
   3   2.0000     -10.205361      -277.7020
   4   2.0000      -1.067665       -29.0526
   5   2.0000      -0.794503       -21.6195
   6   2.0000      -0.633840       -17.2477
   7   2.0000      -0.541718       -14.7409
   8   2.0000      -0.491568       -13.3762
   9   2.0000      -0.450540       -12.2598
  10   2.0000      -0.441841       -12.0231
  11   2.0000      -0.391253       -10.6465
  12   2.0000      -0.375428       -10.2159
  13   2.0000      -0.287896        -7.8340
  14   2.0000      -0.258735        -7.0405
  15   0.0000      -0.041988        -1.1426
  16   0.0000      -0.006875        -0.1871
  17   0.0000       0.054747         1.4897
  18   0.0000       0.070486         1.9180
  19   0.0000       0.095601         2.6014

MULLIKEN ATOMIC CHARGES
-----------------------
   0 C :    0.093249
   1 O :   -0.150990
   2 C :   -0.010382
   3 C :   -0.022710
   4 H :   -0.005755
   5 H :   -0.012233
   6 H :    0.051496
   7 H :    0.057326
Sum of atomic charges:   -0.0000000

LOEWDIN ATOMIC CHARGES
----------------------
   0 C :   -0.033500
   1 O :    0.026985
   2 C :   -0.064281
   3 C :   -0.035969
   4 H :   -0.005539
   5 H :    0.010950
   6 H :    0.055309
   7 H :    0.046044

  Mayer bond orders larger than 0.100000
B(  0-C ,  1-O ) :   2.2308 B(  0-C ,  2-C ) :   0.9657 B(  0-C ,  4-H ) :   0.8515
B(  2-C ,  3-C ) :   1.9981 B(  2-C ,  5-H ) :   0.9531 B(  3-C ,  6-H ) :   0.9237
B(  3-C ,  7-H ) :   0.9443

-----------------------------------------------------------------------------
         ABSORPTION SPECTRUM VIA TRANSITION ELECTRIC DIPOLE MOMENTS
-----------------------------------------------------------------------------
State   Energy    Wavelength  fosc         T2        TX        TY        TZ
        (cm-1)      (nm)                 (au**2)    (au)      (au)      (au)
-----------------------------------------------------------------------------
   1   33308.3    300.2   0.001279799   0.01265   0.08675   0.01627  -0.06971

FINAL SINGLE POINT ENERGY      -191.609320272786

DIPOLE MOMENT
-------------
                                X             Y             Z
Electronic contribution:     -1.95586      -1.26372      -1.29530
Nuclear contribution   :      2.36429       1.97289       1.53905
                        -----------------------------------------
Total Dipole Moment    :      0.40843       0.70917       0.24375
                        -----------------------------------------
Magnitude (a.u.)       :      0.85390
Magnitude (Debye)      :      2.17045

Rotational constants in cm-1:     0.790292     0.189805     0.165380
Rotational constants in MHz : 23692.367337  5690.208978  4957.967350

                             ****ORCA TERMINATED NORMALLY****
TOTAL RUN TIME: 0 days 0 hours 3 minutes 18 seconds 451 msec
