                         Program Version 5.0.3 -  RELEASE  -
|  1> ! B3LYP cc-pVDZ
|  2> !TightSCF
|  3> %scf
|  4>  ConvForced true
|  5>  convergence tight
|  6>  MaxIter 500
|  7> end
|  8>
|  9> %tddft
| 10>  nroots 1
| 11> end
| 12>
| 13> # 	52
| 14> * xyz 0 1
| 15> 		C   -1.226384  -0.370807  -0.015343
| 16> 		O   -1.858725  -0.706573  -0.933948
| 17> 		C   -0.011273   0.446414  -0.212753
| 18> 		C    1.187302   0.032214   0.182645
| 19> 		H   -1.356585  -0.770011   0.935113
| 20> 		H   -0.047839   1.407552  -0.810014
| 21> 		H    1.353646  -0.874286   0.782650
| 22> 		H    2.013025   0.800748   0.002590
| 23> *
| 24>
| 25>                          ****END OF INPUT****

CARTESIAN COORDINATES (ANGSTROEM)
---------------------------------
  C     -1.226384   -0.370807   -0.015343
  O     -1.858725   -0.706573   -0.933948
  C     -0.011273    0.446414   -0.212753
  C      1.187302    0.032214    0.182645
  H     -1.356585   -0.770011    0.935113
  H     -0.047839    1.407552   -0.810014
  H      1.353646   -0.874286    0.782650
  H      2.013025    0.800748    0.002590

 Total Charge           Charge          ....    0
 Multiplicity           Mult            ....    1
 Number of Electrons    NEL             ....   30
 Basis Dimension        Dim             ....   76

ORBITAL ENERGIES
----------------

  NO   OCC          E(Eh)            E(eV)
   0   2.0000     -19.140237      -520.8323
   1   2.0000     -10.268714      -279.4259
   2   2.0000     -10.208164      -277.7783
   3   2.0000     -10.201309      -277.5917
   4   2.0000      -1.076848       -29.3025
   5   2.0000      -0.794923       -21.6310
   6   2.0000      -0.643907       -17.5216
   7   2.0000      -0.570087       -15.5129
   8   2.0000      -0.492949       -13.4138
   9   2.0000      -0.462312       -12.5801
  10   2.0000      -0.436342       -11.8735
  11   2.0000      -0.397705       -10.8221
  12   2.0000      -0.380211       -10.3461
  13   2.0000      -0.287909        -7.8344
  14   2.0000      -0.254059        -6.9133
  15   0.0000      -0.045913        -1.2493
  16   0.0000       0.024954         0.6790
  17   0.0000       0.076239         2.0746
  18   0.0000       0.084576         2.3014
  19   0.0000       0.120865         3.2889

MULLIKEN ATOMIC CHARGES
-----------------------
   0 C :    0.209812
   1 O :   -0.151219
   2 C :   -0.106963
   3 C :    0.004490
   4 H :   -0.042001
   5 H :    0.022291
   6 H :    0.022366
   7 H :    0.041225
Sum of atomic charges:    0.0000000

LOEWDIN ATOMIC CHARGES
----------------------
   0 C :   -0.052243
   1 O :    0.056060
   2 C :   -0.064396
   3 C :   -0.035679
   4 H :   -0.018550
   5 H :    0.043426
   6 H :    0.026213
   7 H :    0.045169

  Mayer bond orders larger than 0.100000
B(  0-C ,  1-O ) :   2.2465 B(  0-C ,  2-C ) :   1.0123 B(  0-C ,  4-H ) :   0.9255
B(  2-C ,  3-C ) :   2.0096 B(  2-C ,  5-H ) :   0.9339 B(  3-C ,  6-H ) :   0.9469
B(  3-C ,  7-H ) :   0.9339

-----------------------------------------------------------------------------
         ABSORPTION SPECTRUM VIA TRANSITION ELECTRIC DIPOLE MOMENTS
-----------------------------------------------------------------------------
State   Energy    Wavelength  fosc         T2        TX        TY        TZ
        (cm-1)      (nm)                 (au**2)    (au)      (au)      (au)
-----------------------------------------------------------------------------
   1   32334.0    309.3   0.001386063   0.01411  -0.11037  -0.00037  -0.04393

FINAL SINGLE POINT ENERGY      -191.640043849692

DIPOLE MOMENT
-------------
                                X             Y             Z
Electronic contribution:     -3.13602      -0.84465      -1.21421
Nuclear contribution   :      3.71954       1.15311       1.81938
                        -----------------------------------------
Total Dipole Moment    :      0.58352       0.30846       0.60518
                        -----------------------------------------
Magnitude (a.u.)       :      0.89548
Magnitude (Debye)      :      2.27614

Rotational constants in cm-1:     1.204275     0.165135     0.157807
Rotational constants in MHz : 36103.265518  4950.608874  4730.936099

                             ****ORCA TERMINATED NORMALLY****
TOTAL RUN TIME: 0 days 0 hours 3 minutes 10 seconds 214 msec
