                         Program Version 5.0.3 -  RELEASE  -
|  1> ! HF-3c
|  2> !TightSCF
|  3> %scf
|  4>  ConvForced true
|  5>  convergence tight
|  6>  MaxIter 500
|  7> end
|  8>
|  9> %tddft
| 10>  nroots 1
| 11> end
| 12>
| 13> # 	28068
| 14> * xyz 0 1
| 15> 		C   -0.583303  -0.432973   0.007996
| 16> 		O   -0.617077  -1.669101   0.000618
| 17> 		C    0.658618   0.405292   0.014848
| 18> 		C    1.860643  -0.083762  -0.030848
| 19> 		H   -1.600936   0.130790  -0.133384
| 20> 		H    0.370022   1.513757   0.044314
| 21> 		H    2.117190  -1.143128   0.130391
| 22> 		H    2.809219   0.591119   0.048846
| 23> *
| 24>
| 25>                          ****END OF INPUT****

CARTESIAN COORDINATES (ANGSTROEM)
---------------------------------
  C     -0.583303   -0.432973    0.007996
  O     -0.617077   -1.669101    0.000618
  C      0.658618    0.405292    0.014848
  C      1.860643   -0.083762   -0.030848
  H     -1.600936    0.130790   -0.133384
  H      0.370022    1.513757    0.044314
  H      2.117190   -1.143128    0.130391
  H      2.809219    0.591119    0.048846

 Total Charge           Charge          ....    0
 Multiplicity           Mult            ....    1
 Number of Electrons    NEL             ....   30
 Basis Dimension        Dim             ....   24

ORBITAL ENERGIES
----------------

  NO   OCC          E(Eh)            E(eV)
   0   2.0000     -20.352036      -553.8071
   1   2.0000     -11.282060      -307.0005
   2   2.0000     -11.192251      -304.5566
   3   2.0000     -11.191296      -304.5306
   4   2.0000      -1.376145       -37.4468
   5   2.0000      -1.077145       -29.3106
   6   2.0000      -0.878741       -23.9118
   7   2.0000      -0.728995       -19.8370
   8   2.0000      -0.680670       -18.5220
   9   2.0000      -0.616494       -16.7757
  10   2.0000      -0.576025       -15.6744
  11   2.0000      -0.526120       -14.3165
  12   2.0000      -0.508286       -13.8312
  13   2.0000      -0.403211       -10.9719
  14   2.0000      -0.398831       -10.8527
  15   0.0000       0.135920         3.6986
  16   0.0000       0.312390         8.5006
  17   0.0000       0.473401        12.8819
  18   0.0000       0.594016        16.1640
  19   0.0000       0.630823        17.1656

MULLIKEN ATOMIC CHARGES
-----------------------
   0 C :    0.164271
   1 O :   -0.353481
   2 C :   -0.176611
   3 C :   -0.214734
   4 H :    0.132420
   5 H :    0.144102
   6 H :    0.158007
   7 H :    0.146027
Sum of atomic charges:   -0.0000000

LOEWDIN ATOMIC CHARGES
----------------------
   0 C :    0.144203
   1 O :   -0.265798
   2 C :   -0.134194
   3 C :   -0.122945
   4 H :    0.076082
   5 H :    0.096542
   6 H :    0.104908
   7 H :    0.101202

  Mayer bond orders larger than 0.100000
B(  0-C ,  1-O ) :   1.9094 B(  0-C ,  2-C ) :   1.0154 B(  0-C ,  4-H ) :   0.9238
B(  2-C ,  3-C ) :   1.9623 B(  2-C ,  5-H ) :   0.9532 B(  3-C ,  6-H ) :   0.9562
B(  3-C ,  7-H ) :   0.9577

-----------------------------------------------------------------------------
         ABSORPTION SPECTRUM VIA TRANSITION ELECTRIC DIPOLE MOMENTS
-----------------------------------------------------------------------------
State   Energy    Wavelength  fosc         T2        TX        TY        TZ
        (cm-1)      (nm)                 (au**2)    (au)      (au)      (au)
-----------------------------------------------------------------------------
   1   31036.8    322.2   0.000027040   0.00029  -0.01286  -0.00233  -0.01077

Dispersion correction           -0.025033432
FINAL SINGLE POINT ENERGY      -189.338868222643

DIPOLE MOMENT
-------------
                                X             Y             Z
Electronic contribution:     -1.95509      -1.81109      -0.04996
Nuclear contribution   :      2.30843       2.81076       0.08429
                        -----------------------------------------
Total Dipole Moment    :      0.35334       0.99967       0.03433
                        -----------------------------------------
Magnitude (a.u.)       :      1.06083
Magnitude (Debye)      :      2.69641

Rotational constants in cm-1:     0.772761     0.197927     0.157729
Rotational constants in MHz : 23166.801978  5933.703027  4728.596172

                             ****ORCA TERMINATED NORMALLY****
TOTAL RUN TIME: 0 days 0 hours 0 minutes 10 seconds 969 msec
