                         Program Version 5.0.3 -  RELEASE  -
|  1> ! B3LYP cc-pVDZ
|  2> !TightSCF
|  3> %scf
|  4>  ConvForced true
|  5>  convergence tight
|  6>  MaxIter 500
|  7> end
|  8>
|  9> %tddft
| 10>  nroots 1
| 11> end
| 12>
| 13> # 	31104
| 14> * xyz 0 1
| 15> 		C   -0.536083  -0.423526   0.073465
| 16> 		O   -0.579602  -1.606671  -0.043168
| 17> 		C    0.591680   0.384917  -0.081555
| 18> 		C    1.872604  -0.123551   0.046331
| 19> 		H   -1.645863   0.217928   0.327197
| 20> 		H    0.282695   1.314895  -0.227062
| 21> 		H    1.763849  -1.312578   0.006810
| 22> 		H    2.725759   0.457640   0.112952
| 23> *
| 24>
| 25>                          ****END OF INPUT****

CARTESIAN COORDINATES (ANGSTROEM)
---------------------------------
  C     -0.536083   -0.423526    0.073465
  O     -0.579602   -1.606671   -0.043168
  C      0.591680    0.384917   -0.081555
  C      1.872604   -0.123551    0.046331
  H     -1.645863    0.217928    0.327197
  H      0.282695    1.314895   -0.227062
  H      1.763849   -1.312578    0.006810
  H      2.725759    0.457640    0.112952

 Total Charge           Charge          ....    0
 Multiplicity           Mult            ....    1
 Number of Electrons    NEL             ....   30
 Basis Dimension        Dim             ....   76

ORBITAL ENERGIES
----------------

  NO   OCC          E(Eh)            E(eV)
   0   2.0000     -19.140206      -520.8315
   1   2.0000     -10.278284      -279.6863
   2   2.0000     -10.230841      -278.3953
   3   2.0000     -10.199990      -277.5558
   4   2.0000      -1.061007       -28.8715
   5   2.0000      -0.805818       -21.9274
   6   2.0000      -0.671154       -18.2630
   7   2.0000      -0.528268       -14.3749
   8   2.0000      -0.516289       -14.0489
   9   2.0000      -0.448233       -12.1970
  10   2.0000      -0.428928       -11.6717
  11   2.0000      -0.409779       -11.1506
  12   2.0000      -0.382119       -10.3980
  13   2.0000      -0.284623        -7.7450
  14   2.0000      -0.254864        -6.9352
  15   0.0000      -0.079160        -2.1541
  16   0.0000       0.050767         1.3814
  17   0.0000       0.069449         1.8898
  18   0.0000       0.078640         2.1399
  19   0.0000       0.120603         3.2818

MULLIKEN ATOMIC CHARGES
-----------------------
   0 C :    0.087212
   1 O :   -0.169222
   2 C :    0.012010
   3 C :    0.067772
   4 H :   -0.033874
   5 H :   -0.062359
   6 H :    0.072419
   7 H :    0.026042
Sum of atomic charges:    0.0000000

LOEWDIN ATOMIC CHARGES
----------------------
   0 C :   -0.071060
   1 O :    0.016921
   2 C :   -0.063543
   3 C :    0.047506
   4 H :   -0.010793
   5 H :    0.001155
   6 H :    0.064457
   7 H :    0.015358

  Mayer bond orders larger than 0.100000
B(  0-C ,  1-O ) :   2.1850 B(  0-C ,  2-C ) :   1.1035 B(  0-C ,  4-H ) :   0.8711
B(  2-C ,  3-C ) :   1.9030 B(  2-C ,  5-H ) :   0.9522 B(  3-C ,  6-H ) :   0.9140
B(  3-C ,  7-H ) :   0.9482

-----------------------------------------------------------------------------
         ABSORPTION SPECTRUM VIA TRANSITION ELECTRIC DIPOLE MOMENTS
-----------------------------------------------------------------------------
State   Energy    Wavelength  fosc         T2        TX        TY        TZ
        (cm-1)      (nm)                 (au**2)    (au)      (au)      (au)
-----------------------------------------------------------------------------
   1   26743.2    373.9   0.000899479   0.01107  -0.09370   0.01785  -0.04444

FINAL SINGLE POINT ENERGY      -191.641573864879

DIPOLE MOMENT
-------------
                                X             Y             Z
Electronic contribution:     -1.19078      -1.60874      -0.18551
Nuclear contribution   :      1.77963       2.42456       0.20631
                        -----------------------------------------
Total Dipole Moment    :      0.58885       0.81583       0.02080
                        -----------------------------------------
Magnitude (a.u.)       :      1.00635
Magnitude (Debye)      :      2.55795

Rotational constants in cm-1:     0.767953     0.215064     0.169270
Rotational constants in MHz : 23022.657449  6447.450589  5074.589992

                             ****ORCA TERMINATED NORMALLY****
TOTAL RUN TIME: 0 days 0 hours 3 minutes 13 seconds 297 msec
