                         Program Version 5.0.3 -  RELEASE  -
|  1> ! HF-3c
|  2> !TightSCF
|  3> %scf
|  4>  ConvForced true
|  5>  convergence tight
|  6>  MaxIter 500
|  7> end
|  8>
|  9> %tddft
| 10>  nroots 1
| 11> end
| 12>
| 13> # 	610
| 14> * xyz 0 1
| 15> 		C   -1.207190  -0.281108   0.009607
| 16> 		O   -1.610029  -1.030213   0.793688
| 17> 		C    0.026004   0.533371   0.206628
| 18> 		C    1.206358   0.082893  -0.276019
| 19> 		H   -1.704950  -0.301486  -1.028159
| 20> 		H   -0.092916   1.326323   0.936785
| 21> 		H    1.335317  -0.815646  -0.671876
| 22> 		H    2.031231   0.545765   0.057124
| 23> *
| 24>
| 25>                          ****END OF INPUT****

CARTESIAN COORDINATES (ANGSTROEM)
---------------------------------
  C     -1.207190   -0.281108    0.009607
  O     -1.610029   -1.030213    0.793688
  C      0.026004    0.533371    0.206628
  C      1.206358    0.082893   -0.276019
  H     -1.704950   -0.301486   -1.028159
  H     -0.092916    1.326323    0.936785
  H      1.335317   -0.815646   -0.671876
  H      2.031231    0.545765    0.057124

 Total Charge           Charge          ....    0
 Multiplicity           Mult            ....    1
 Number of Electrons    NEL             ....   30
 Basis Dimension        Dim             ....   24

ORBITAL ENERGIES
----------------

  NO   OCC          E(Eh)            E(eV)
   0   2.0000     -20.389779      -554.8341
   1   2.0000     -11.312847      -307.8382
   2   2.0000     -11.201639      -304.8121
   3   2.0000     -11.187966      -304.4400
   4   2.0000      -1.451284       -39.4914
   5   2.0000      -1.086469       -29.5643
   6   2.0000      -0.894482       -24.3401
   7   2.0000      -0.776617       -21.1328
   8   2.0000      -0.698068       -18.9954
   9   2.0000      -0.657500       -17.8915
  10   2.0000      -0.618508       -16.8305
  11   2.0000      -0.578011       -15.7285
  12   2.0000      -0.534977       -14.5575
  13   2.0000      -0.407117       -11.0782
  14   2.0000      -0.403646       -10.9838
  15   0.0000       0.176015         4.7896
  16   0.0000       0.223793         6.0897
  17   0.0000       0.556119        15.1328
  18   0.0000       0.622501        16.9391
  19   0.0000       0.708514        19.2796

MULLIKEN ATOMIC CHARGES
-----------------------
   0 C :    0.187922
   1 O :   -0.355748
   2 C :   -0.140686
   3 C :   -0.276960
   4 H :    0.135050
   5 H :    0.158378
   6 H :    0.146194
   7 H :    0.145850
Sum of atomic charges:    0.0000000

LOEWDIN ATOMIC CHARGES
----------------------
   0 C :    0.150381
   1 O :   -0.241515
   2 C :   -0.092977
   3 C :   -0.170975
   4 H :    0.073065
   5 H :    0.103833
   6 H :    0.088685
   7 H :    0.089501

  Mayer bond orders larger than 0.100000
B(  0-C ,  1-O ) :   1.9508 B(  0-C ,  2-C ) :   0.9797 B(  0-C ,  4-H ) :   0.9088
B(  2-C ,  3-C ) :   1.9895 B(  2-C ,  5-H ) :   0.9524 B(  3-C ,  6-H ) :   0.9681
B(  3-C ,  7-H ) :   0.9659

-----------------------------------------------------------------------------
         ABSORPTION SPECTRUM VIA TRANSITION ELECTRIC DIPOLE MOMENTS
-----------------------------------------------------------------------------
State   Energy    Wavelength  fosc         T2        TX        TY        TZ
        (cm-1)      (nm)                 (au**2)    (au)      (au)      (au)
-----------------------------------------------------------------------------
   1   37647.8    265.6   0.000111075   0.00097   0.01000   0.00925   0.02803

Dispersion correction           -0.025468685
FINAL SINGLE POINT ENERGY      -189.284723024714

DIPOLE MOMENT
-------------
                                X             Y             Z
Electronic contribution:     -2.65313      -0.92676       0.94277
Nuclear contribution   :      3.05231       1.47900      -1.40797
                        -----------------------------------------
Total Dipole Moment    :      0.39918       0.55224      -0.46520
                        -----------------------------------------
Magnitude (a.u.)       :      0.82506
Magnitude (Debye)      :      2.09714

Rotational constants in cm-1:     1.005006     0.171345     0.164985
Rotational constants in MHz : 30129.321517  5136.803861  4946.124848

                             ****ORCA TERMINATED NORMALLY****
TOTAL RUN TIME: 0 days 0 hours 0 minutes 10 seconds 965 msec
