                         Program Version 5.0.3 -  RELEASE  -
|  1> ! B3LYP cc-pVDZ
|  2> !TightSCF
|  3> %scf
|  4>  ConvForced true
|  5>  convergence tight
|  6>  MaxIter 500
|  7> end
|  8>
|  9> %tddft
| 10>  nroots 1
| 11> end
| 12>
| 13> # 	4745
| 14> * xyz 0 1
| 15> 		C   -1.193748  -0.340825  -0.022525
| 16> 		O   -1.404257  -1.326040  -0.626851
| 17> 		C    0.014056   0.455654  -0.137238
| 18> 		C    1.222543   0.053410   0.163108
| 19> 		H   -1.975848   0.002782   0.751531
| 20> 		H   -0.092870   1.564171  -0.580346
| 21> 		H    1.218761  -1.067714   0.504435
| 22> 		H    2.247001   0.553952  -0.037728
| 23> *
| 24>
| 25>                          ****END OF INPUT****

CARTESIAN COORDINATES (ANGSTROEM)
---------------------------------
  C     -1.193748   -0.340825   -0.022525
  O     -1.404257   -1.326040   -0.626851
  C      0.014056    0.455654   -0.137238
  C      1.222543    0.053410    0.163108
  H     -1.975848    0.002782    0.751531
  H     -0.092870    1.564171   -0.580346
  H      1.218761   -1.067714    0.504435
  H      2.247001    0.553952   -0.037728

 Total Charge           Charge          ....    0
 Multiplicity           Mult            ....    1
 Number of Electrons    NEL             ....   30
 Basis Dimension        Dim             ....   76

ORBITAL ENERGIES
----------------

  NO   OCC          E(Eh)            E(eV)
   0   2.0000     -19.145958      -520.9880
   1   2.0000     -10.281348      -279.7697
   2   2.0000     -10.216161      -277.9959
   3   2.0000     -10.210504      -277.8420
   4   2.0000      -1.074682       -29.2436
   5   2.0000      -0.799169       -21.7465
   6   2.0000      -0.649205       -17.6658
   7   2.0000      -0.535070       -14.5600
   8   2.0000      -0.498584       -13.5672
   9   2.0000      -0.458884       -12.4869
  10   2.0000      -0.449056       -12.2194
  11   2.0000      -0.394949       -10.7471
  12   2.0000      -0.358364        -9.7516
  13   2.0000      -0.292568        -7.9612
  14   2.0000      -0.258132        -7.0241
  15   0.0000      -0.040667        -1.1066
  16   0.0000       0.009550         0.2599
  17   0.0000       0.068892         1.8746
  18   0.0000       0.080935         2.2024
  19   0.0000       0.096816         2.6345

MULLIKEN ATOMIC CHARGES
-----------------------
   0 C :    0.156231
   1 O :   -0.147136
   2 C :   -0.103696
   3 C :   -0.014630
   4 H :   -0.018749
   5 H :    0.034892
   6 H :    0.037694
   7 H :    0.055394
Sum of atomic charges:   -0.0000000

LOEWDIN ATOMIC CHARGES
----------------------
   0 C :   -0.057093
   1 O :    0.045829
   2 C :   -0.084542
   3 C :   -0.040046
   4 H :   -0.005974
   5 H :    0.052217
   6 H :    0.042112
   7 H :    0.047496

  Mayer bond orders larger than 0.100000
B(  0-C ,  1-O ) :   2.2617 B(  0-C ,  2-C ) :   0.9867 B(  0-C ,  4-H ) :   0.9058
B(  2-C ,  3-C ) :   2.0279 B(  2-C ,  5-H ) :   0.9180 B(  3-C ,  6-H ) :   0.9291
B(  3-C ,  7-H ) :   0.9418

-----------------------------------------------------------------------------
         ABSORPTION SPECTRUM VIA TRANSITION ELECTRIC DIPOLE MOMENTS
-----------------------------------------------------------------------------
State   Energy    Wavelength  fosc         T2        TX        TY        TZ
        (cm-1)      (nm)                 (au**2)    (au)      (au)      (au)
-----------------------------------------------------------------------------
   1   33600.3    297.6   0.000038136   0.00037  -0.01043  -0.00923  -0.01341

FINAL SINGLE POINT ENERGY      -191.628031369673

DIPOLE MOMENT
-------------
                                X             Y             Z
Electronic contribution:     -2.26701      -1.49234      -0.90975
Nuclear contribution   :      2.67045       2.18700       1.21722
                        -----------------------------------------
Total Dipole Moment    :      0.40344       0.69467       0.30747
                        -----------------------------------------
Magnitude (a.u.)       :      0.86015
Magnitude (Debye)      :      2.18633

Rotational constants in cm-1:     0.898529     0.185340     0.164220
Rotational constants in MHz : 26937.232932  5556.364405  4923.191926

                             ****ORCA TERMINATED NORMALLY****
TOTAL RUN TIME: 0 days 0 hours 3 minutes 21 seconds 683 msec
