                         Program Version 5.0.3 -  RELEASE  -
|  1> ! HF-3c
|  2> !TightSCF
|  3> %scf
|  4>  ConvForced true
|  5>  convergence tight
|  6>  MaxIter 500
|  7> end
|  8>
|  9> %tddft
| 10>  nroots 1
| 11> end
| 12>
| 13> # 	19421
| 14> * xyz 0 1
| 15> 		C   -1.248639  -0.283983   0.013414
| 16> 		O   -1.221851  -1.467400   0.131210
| 17> 		C   -0.059007   0.515556   0.067372
| 18> 		C    1.205686   0.001586  -0.016150
| 19> 		H   -2.145182   0.083972  -0.274179
| 20> 		H   -0.043701   1.671640   0.165597
| 21> 		H    1.361306  -1.119798  -0.238244
| 22> 		H    2.099683   0.626111   0.159558
| 23> *
| 24>
| 25>                          ****END OF INPUT****

CARTESIAN COORDINATES (ANGSTROEM)
---------------------------------
  C     -1.248639   -0.283983    0.013414
  O     -1.221851   -1.467400    0.131210
  C     -0.059007    0.515556    0.067372
  C      1.205686    0.001586   -0.016150
  H     -2.145182    0.083972   -0.274179
  H     -0.043701    1.671640    0.165597
  H      1.361306   -1.119798   -0.238244
  H      2.099683    0.626111    0.159558

 Total Charge           Charge          ....    0
 Multiplicity           Mult            ....    1
 Number of Electrons    NEL             ....   30
 Basis Dimension        Dim             ....   24

ORBITAL ENERGIES
----------------

  NO   OCC          E(Eh)            E(eV)
   0   2.0000     -20.365198      -554.1652
   1   2.0000     -11.303559      -307.5855
   2   2.0000     -11.186592      -304.4026
   3   2.0000     -11.180389      -304.2338
   4   2.0000      -1.421045       -38.6686
   5   2.0000      -1.063349       -28.9352
   6   2.0000      -0.895595       -24.3704
   7   2.0000      -0.763970       -20.7887
   8   2.0000      -0.697366       -18.9763
   9   2.0000      -0.608907       -16.5692
  10   2.0000      -0.597689       -16.2639
  11   2.0000      -0.545842       -14.8531
  12   2.0000      -0.510166       -13.8823
  13   2.0000      -0.422295       -11.4912
  14   2.0000      -0.379821       -10.3355
  15   0.0000       0.128679         3.5015
  16   0.0000       0.310234         8.4419
  17   0.0000       0.544237        14.8094
  18   0.0000       0.597970        16.2716
  19   0.0000       0.613038        16.6816

MULLIKEN ATOMIC CHARGES
-----------------------
   0 C :    0.136652
   1 O :   -0.348260
   2 C :   -0.175465
   3 C :   -0.196732
   4 H :    0.143437
   5 H :    0.143706
   6 H :    0.154043
   7 H :    0.142620
Sum of atomic charges:   -0.0000000

LOEWDIN ATOMIC CHARGES
----------------------
   0 C :    0.128474
   1 O :   -0.250262
   2 C :   -0.141856
   3 C :   -0.103965
   4 H :    0.070322
   5 H :    0.098112
   6 H :    0.105478
   7 H :    0.093698

  Mayer bond orders larger than 0.100000
B(  0-C ,  1-O ) :   1.8854 B(  0-C ,  2-C ) :   1.0503 B(  0-C ,  4-H ) :   0.9348
B(  2-C ,  3-C ) :   1.9255 B(  2-C ,  5-H ) :   0.9557 B(  3-C ,  6-H ) :   0.9590
B(  3-C ,  7-H ) :   0.9663

-----------------------------------------------------------------------------
         ABSORPTION SPECTRUM VIA TRANSITION ELECTRIC DIPOLE MOMENTS
-----------------------------------------------------------------------------
State   Energy    Wavelength  fosc         T2        TX        TY        TZ
        (cm-1)      (nm)                 (au**2)    (au)      (au)      (au)
-----------------------------------------------------------------------------
   1   32440.4    308.3   0.000052312   0.00053  -0.01891   0.00213  -0.01298

Dispersion correction           -0.025607440
FINAL SINGLE POINT ENERGY      -189.317932550071

DIPOLE MOMENT
-------------
                                X             Y             Z
Electronic contribution:     -2.07856      -1.59031       0.23053
Nuclear contribution   :      2.48517       2.46618      -0.35430
                        -----------------------------------------
Total Dipole Moment    :      0.40660       0.87588      -0.12377
                        -----------------------------------------
Magnitude (a.u.)       :      0.97355
Magnitude (Debye)      :      2.47457

Rotational constants in cm-1:     0.776517     0.211523     0.167378
Rotational constants in MHz : 23279.397916  6341.291656  5017.877205

                             ****ORCA TERMINATED NORMALLY****
TOTAL RUN TIME: 0 days 0 hours 0 minutes 12 seconds 61 msec
