                         Program Version 5.0.3 -  RELEASE  -
|  1> ! B3LYP cc-pVDZ
|  2> !TightSCF
|  3> %scf
|  4>  ConvForced true
|  5>  convergence tight
|  6>  MaxIter 500
|  7> end
|  8>
|  9> %tddft
| 10>  nroots 1
| 11> end
| 12>
| 13> # 	16384
| 14> * xyz 0 1
| 15> 		C   -1.183602  -0.291071  -0.072792
| 16> 		O   -1.378009  -1.458589  -0.470884
| 17> 		C    0.017214   0.485782  -0.146949
| 18> 		C    1.234833  -0.004317   0.027518
| 19> 		H   -1.981023   0.107790   0.664462
| 20> 		H   -0.134945   1.504826  -0.435990
| 21> 		H    1.325526  -0.982344   0.307423
| 22> 		H    2.074731   0.646873   0.116894
| 23> *
| 24>
| 25>                          ****END OF INPUT****

CARTESIAN COORDINATES (ANGSTROEM)
---------------------------------
  C     -1.183602   -0.291071   -0.072792
  O     -1.378009   -1.458589   -0.470884
  C      0.017214    0.485782   -0.146949
  C      1.234833   -0.004317    0.027518
  H     -1.981023    0.107790    0.664462
  H     -0.134945    1.504826   -0.435990
  H      1.325526   -0.982344    0.307423
  H      2.074731    0.646873    0.116894

 Total Charge           Charge          ....    0
 Multiplicity           Mult            ....    1
 Number of Electrons    NEL             ....   30
 Basis Dimension        Dim             ....   76

ORBITAL ENERGIES
----------------

  NO   OCC          E(Eh)            E(eV)
   0   2.0000     -19.139406      -520.8097
   1   2.0000     -10.278976      -279.7052
   2   2.0000     -10.206264      -277.7266
   3   2.0000     -10.205141      -277.6960
   4   2.0000      -1.025884       -27.9157
   5   2.0000      -0.810830       -22.0638
   6   2.0000      -0.671073       -18.2608
   7   2.0000      -0.550349       -14.9758
   8   2.0000      -0.508031       -13.8242
   9   2.0000      -0.452824       -12.3220
  10   2.0000      -0.436379       -11.8745
  11   2.0000      -0.398855       -10.8534
  12   2.0000      -0.366923        -9.9845
  13   2.0000      -0.293517        -7.9870
  14   2.0000      -0.252752        -6.8777
  15   0.0000      -0.064394        -1.7522
  16   0.0000       0.017330         0.4716
  17   0.0000       0.078110         2.1255
  18   0.0000       0.098124         2.6701
  19   0.0000       0.113700         3.0939

MULLIKEN ATOMIC CHARGES
-----------------------
   0 C :    0.146476
   1 O :   -0.215352
   2 C :   -0.085585
   3 C :    0.128652
   4 H :   -0.002229
   5 H :   -0.000604
   6 H :    0.002415
   7 H :    0.026228
Sum of atomic charges:    0.0000000

LOEWDIN ATOMIC CHARGES
----------------------
   0 C :   -0.018293
   1 O :   -0.036376
   2 C :   -0.062966
   3 C :    0.031420
   4 H :    0.005556
   5 H :    0.032566
   6 H :    0.016013
   7 H :    0.032081

  Mayer bond orders larger than 0.100000
B(  0-C ,  1-O ) :   2.1737 B(  0-C ,  2-C ) :   1.0504 B(  0-C ,  4-H ) :   0.9099
B(  2-C ,  3-C ) :   1.9987 B(  2-C ,  5-H ) :   0.9348 B(  3-C ,  6-H ) :   0.9371
B(  3-C ,  7-H ) :   0.9416

-----------------------------------------------------------------------------
         ABSORPTION SPECTRUM VIA TRANSITION ELECTRIC DIPOLE MOMENTS
-----------------------------------------------------------------------------
State   Energy    Wavelength  fosc         T2        TX        TY        TZ
        (cm-1)      (nm)                 (au**2)    (au)      (au)      (au)
-----------------------------------------------------------------------------
   1   27669.1    361.4   0.000135831   0.00162   0.02180   0.00231   0.03370

FINAL SINGLE POINT ENERGY      -191.664302548155

DIPOLE MOMENT
-------------
                                X             Y             Z
Electronic contribution:     -1.98401      -1.60003      -0.89947
Nuclear contribution   :      2.52381       2.50461       1.22266
                        -----------------------------------------
Total Dipole Moment    :      0.53980       0.90457       0.32319
                        -----------------------------------------
Magnitude (a.u.)       :      1.10186
Magnitude (Debye)      :      2.80070

Rotational constants in cm-1:     0.844870     0.191405     0.161333
Rotational constants in MHz : 25328.580167  5738.184497  4836.632756

                             ****ORCA TERMINATED NORMALLY****
TOTAL RUN TIME: 0 days 0 hours 3 minutes 15 seconds 558 msec
