                         Program Version 5.0.3 -  RELEASE  -
|  1> ! HF-3c
|  2> !TightSCF
|  3> %scf
|  4>  ConvForced true
|  5>  convergence tight
|  6>  MaxIter 500
|  7> end
|  8>
|  9> %tddft
| 10>  nroots 1
| 11> end
| 12>
| 13> # 	17170
| 14> * xyz 0 1
| 15> 		C   -1.145755  -0.380138   0.002329
| 16> 		O   -1.658285  -1.133524  -0.791325
| 17> 		C    0.021472   0.494149  -0.210533
| 18> 		C    1.216832   0.019289   0.155943
| 19> 		H   -1.715362  -0.249792   0.998882
| 20> 		H   -0.120537   1.528863  -0.662982
| 21> 		H    1.368655  -0.923928   0.551571
| 22> 		H    2.085060   0.596469  -0.027479
| 23> *
| 24>
| 25>                          ****END OF INPUT****

CARTESIAN COORDINATES (ANGSTROEM)
---------------------------------
  C     -1.145755   -0.380138    0.002329
  O     -1.658285   -1.133524   -0.791325
  C      0.021472    0.494149   -0.210533
  C      1.216832    0.019289    0.155943
  H     -1.715362   -0.249792    0.998882
  H     -0.120537    1.528863   -0.662982
  H      1.368655   -0.923928    0.551571
  H      2.085060    0.596469   -0.027479

 Total Charge           Charge          ....    0
 Multiplicity           Mult            ....    1
 Number of Electrons    NEL             ....   30
 Basis Dimension        Dim             ....   24

ORBITAL ENERGIES
----------------

  NO   OCC          E(Eh)            E(eV)
   0   2.0000     -20.374024      -554.4054
   1   2.0000     -11.298033      -307.4351
   2   2.0000     -11.198956      -304.7391
   3   2.0000     -11.183577      -304.3206
   4   2.0000      -1.406557       -38.2744
   5   2.0000      -1.085801       -29.5461
   6   2.0000      -0.885428       -24.0937
   7   2.0000      -0.758745       -20.6465
   8   2.0000      -0.688012       -18.7218
   9   2.0000      -0.637465       -17.3463
  10   2.0000      -0.608612       -16.5612
  11   2.0000      -0.556601       -15.1459
  12   2.0000      -0.502307       -13.6685
  13   2.0000      -0.416803       -11.3418
  14   2.0000      -0.397438       -10.8148
  15   0.0000       0.192264         5.2318
  16   0.0000       0.203207         5.5295
  17   0.0000       0.563178        15.3249
  18   0.0000       0.589310        16.0359
  19   0.0000       0.677547        18.4370

MULLIKEN ATOMIC CHARGES
-----------------------
   0 C :    0.172645
   1 O :   -0.344104
   2 C :   -0.155347
   3 C :   -0.255392
   4 H :    0.135005
   5 H :    0.162246
   6 H :    0.142445
   7 H :    0.142501
Sum of atomic charges:   -0.0000000

LOEWDIN ATOMIC CHARGES
----------------------
   0 C :    0.149915
   1 O :   -0.248162
   2 C :   -0.110599
   3 C :   -0.157548
   4 H :    0.075392
   5 H :    0.112158
   6 H :    0.088397
   7 H :    0.090447

  Mayer bond orders larger than 0.100000
B(  0-C ,  1-O ) :   1.9468 B(  0-C ,  2-C ) :   0.9950 B(  0-C ,  4-H ) :   0.9129
B(  2-C ,  3-C ) :   1.9913 B(  2-C ,  5-H ) :   0.9450 B(  3-C ,  6-H ) :   0.9674
B(  3-C ,  7-H ) :   0.9651

-----------------------------------------------------------------------------
         ABSORPTION SPECTRUM VIA TRANSITION ELECTRIC DIPOLE MOMENTS
-----------------------------------------------------------------------------
State   Energy    Wavelength  fosc         T2        TX        TY        TZ
        (cm-1)      (nm)                 (au**2)    (au)      (au)      (au)
-----------------------------------------------------------------------------
   1   34347.5    291.1   0.000171433   0.00164   0.03787   0.00649  -0.01293

Dispersion correction           -0.025138961
FINAL SINGLE POINT ENERGY      -189.321276739031

DIPOLE MOMENT
-------------
                                X             Y             Z
Electronic contribution:     -2.59152      -1.24862      -1.05968
Nuclear contribution   :      3.09186       1.92265       1.62983
                        -----------------------------------------
Total Dipole Moment    :      0.50034       0.67403       0.57015
                        -----------------------------------------
Magnitude (a.u.)       :      1.01476
Magnitude (Debye)      :      2.57931

Rotational constants in cm-1:     0.987928     0.169057     0.159912
Rotational constants in MHz : 29617.331602  5068.187752  4794.040548

                             ****ORCA TERMINATED NORMALLY****
TOTAL RUN TIME: 0 days 0 hours 0 minutes 16 seconds 32 msec
