                         Program Version 5.0.3 -  RELEASE  -
|  1> ! HF-3c
|  2> !TightSCF
|  3> %scf
|  4>  ConvForced true
|  5>  convergence tight
|  6>  MaxIter 500
|  7> end
|  8>
|  9> %tddft
| 10>  nroots 1
| 11> end
| 12>
| 13> # 	19622
| 14> * xyz 0 1
| 15> 		C   -1.208731  -0.420899  -0.032908
| 16> 		O   -1.347697  -1.645685  -0.289896
| 17> 		C    0.007824   0.458482  -0.156164
| 18> 		C    1.232100   0.000583  -0.057982
| 19> 		H   -2.170979   0.226523   0.166392
| 20> 		H    0.000615   1.720875  -0.098911
| 21> 		H    1.334709  -1.070103   0.351780
| 22> 		H    2.072941   0.738306   0.211128
| 23> *
| 24>
| 25>                          ****END OF INPUT****

CARTESIAN COORDINATES (ANGSTROEM)
---------------------------------
  C     -1.208731   -0.420899   -0.032908
  O     -1.347697   -1.645685   -0.289896
  C      0.007824    0.458482   -0.156164
  C      1.232100    0.000583   -0.057982
  H     -2.170979    0.226523    0.166392
  H      0.000615    1.720875   -0.098911
  H      1.334709   -1.070103    0.351780
  H      2.072941    0.738306    0.211128

 Total Charge           Charge          ....    0
 Multiplicity           Mult            ....    1
 Number of Electrons    NEL             ....   30
 Basis Dimension        Dim             ....   24

ORBITAL ENERGIES
----------------

  NO   OCC          E(Eh)            E(eV)
   0   2.0000     -20.353915      -553.8582
   1   2.0000     -11.285610      -307.0971
   2   2.0000     -11.184123      -304.3355
   3   2.0000     -11.179511      -304.2100
   4   2.0000      -1.362517       -37.0760
   5   2.0000      -1.073135       -29.2015
   6   2.0000      -0.870840       -23.6968
   7   2.0000      -0.708911       -19.2904
   8   2.0000      -0.672440       -18.2980
   9   2.0000      -0.591857       -16.1052
  10   2.0000      -0.573668       -15.6103
  11   2.0000      -0.514927       -14.0119
  12   2.0000      -0.487043       -13.2531
  13   2.0000      -0.404574       -11.0090
  14   2.0000      -0.390740       -10.6326
  15   0.0000       0.127641         3.4733
  16   0.0000       0.292679         7.9642
  17   0.0000       0.443768        12.0755
  18   0.0000       0.520016        14.1503
  19   0.0000       0.608090        16.5470

MULLIKEN ATOMIC CHARGES
-----------------------
   0 C :    0.161453
   1 O :   -0.348347
   2 C :   -0.166518
   3 C :   -0.219189
   4 H :    0.131468
   5 H :    0.148463
   6 H :    0.150674
   7 H :    0.141996
Sum of atomic charges:    0.0000000

LOEWDIN ATOMIC CHARGES
----------------------
   0 C :    0.149457
   1 O :   -0.267809
   2 C :   -0.134924
   3 C :   -0.133152
   4 H :    0.075817
   5 H :    0.109837
   6 H :    0.103495
   7 H :    0.097280

  Mayer bond orders larger than 0.100000
B(  0-C ,  1-O ) :   1.9089 B(  0-C ,  2-C ) :   1.0218 B(  0-C ,  4-H ) :   0.9215
B(  2-C ,  3-C ) :   1.9476 B(  2-C ,  5-H ) :   0.9457 B(  3-C ,  6-H ) :   0.9550
B(  3-C ,  7-H ) :   0.9593

-----------------------------------------------------------------------------
         ABSORPTION SPECTRUM VIA TRANSITION ELECTRIC DIPOLE MOMENTS
-----------------------------------------------------------------------------
State   Energy    Wavelength  fosc         T2        TX        TY        TZ
        (cm-1)      (nm)                 (au**2)    (au)      (au)      (au)
-----------------------------------------------------------------------------
   1   30538.7    327.5   0.000400526   0.00432   0.06484   0.00953   0.00479

Dispersion correction           -0.024830041
FINAL SINGLE POINT ENERGY      -189.300670096384

DIPOLE MOMENT
-------------
                                X             Y             Z
Electronic contribution:     -2.08305      -2.01676      -0.67728
Nuclear contribution   :      2.48082       3.12047       1.05551
                        -----------------------------------------
Total Dipole Moment    :      0.39778       1.10371       0.37823
                        -----------------------------------------
Magnitude (a.u.)       :      1.23266
Magnitude (Debye)      :      3.13317

Rotational constants in cm-1:     0.804266     0.183966     0.151592
Rotational constants in MHz : 24111.299665  5515.148198  4544.598865

                             ****ORCA TERMINATED NORMALLY****
TOTAL RUN TIME: 0 days 0 hours 0 minutes 10 seconds 617 msec
