                         Program Version 5.0.3 -  RELEASE  -
|  1> ! B3LYP cc-pVDZ
|  2> !TightSCF
|  3> %scf
|  4>  ConvForced true
|  5>  convergence tight
|  6>  MaxIter 500
|  7> end
|  8>
|  9> %tddft
| 10>  nroots 1
| 11> end
| 12>
| 13> # 	21420
| 14> * xyz 0 1
| 15> 		C   -0.552603  -0.449151  -0.037596
| 16> 		O   -0.576561  -1.649939   0.026179
| 17> 		C    0.617090   0.438407   0.088118
| 18> 		C    1.802652  -0.109423  -0.046935
| 19> 		H   -1.590945   0.157093  -0.395344
| 20> 		H    0.740440   1.619525   0.043077
| 21> 		H    1.880993  -1.285173  -0.003856
| 22> 		H    2.881497   0.371620  -0.099098
| 23> *
| 24>
| 25>                          ****END OF INPUT****

CARTESIAN COORDINATES (ANGSTROEM)
---------------------------------
  C     -0.552603   -0.449151   -0.037596
  O     -0.576561   -1.649939    0.026179
  C      0.617090    0.438407    0.088118
  C      1.802652   -0.109423   -0.046935
  H     -1.590945    0.157093   -0.395344
  H      0.740440    1.619525    0.043077
  H      1.880993   -1.285173   -0.003856
  H      2.881497    0.371620   -0.099098

 Total Charge           Charge          ....    0
 Multiplicity           Mult            ....    1
 Number of Electrons    NEL             ....   30
 Basis Dimension        Dim             ....   76

ORBITAL ENERGIES
----------------

  NO   OCC          E(Eh)            E(eV)
   0   2.0000     -19.147849      -521.0395
   1   2.0000     -10.293359      -280.0965
   2   2.0000     -10.225811      -278.2585
   3   2.0000     -10.215678      -277.9827
   4   2.0000      -1.057988       -28.7893
   5   2.0000      -0.802784       -21.8449
   6   2.0000      -0.640475       -17.4282
   7   2.0000      -0.528090       -14.3701
   8   2.0000      -0.499526       -13.5928
   9   2.0000      -0.450704       -12.2643
  10   2.0000      -0.420609       -11.4453
  11   2.0000      -0.400882       -10.9086
  12   2.0000      -0.356022        -9.6878
  13   2.0000      -0.296631        -8.0717
  14   2.0000      -0.260690        -7.0937
  15   0.0000      -0.066885        -1.8200
  16   0.0000       0.042105         1.1457
  17   0.0000       0.056655         1.5417
  18   0.0000       0.078474         2.1354
  19   0.0000       0.094693         2.5767

MULLIKEN ATOMIC CHARGES
-----------------------
   0 C :    0.155860
   1 O :   -0.171272
   2 C :   -0.099800
   3 C :   -0.014458
   4 H :   -0.012480
   5 H :    0.029086
   6 H :    0.057429
   7 H :    0.055633
Sum of atomic charges:   -0.0000000

LOEWDIN ATOMIC CHARGES
----------------------
   0 C :   -0.042268
   1 O :    0.008710
   2 C :   -0.112949
   3 C :    0.005080
   4 H :   -0.004205
   5 H :    0.056866
   6 H :    0.042671
   7 H :    0.046095

  Mayer bond orders larger than 0.100000
B(  0-C ,  1-O ) :   2.1994 B(  0-C ,  2-C ) :   0.9996 B(  0-C ,  4-H ) :   0.8897
B(  2-C ,  3-C ) :   1.9387 B(  2-C ,  5-H ) :   0.9361 B(  3-C ,  6-H ) :   0.9311
B(  3-C ,  7-H ) :   0.9458

-----------------------------------------------------------------------------
         ABSORPTION SPECTRUM VIA TRANSITION ELECTRIC DIPOLE MOMENTS
-----------------------------------------------------------------------------
State   Energy    Wavelength  fosc         T2        TX        TY        TZ
        (cm-1)      (nm)                 (au**2)    (au)      (au)      (au)
-----------------------------------------------------------------------------
   1   29804.1    335.5   0.000770152   0.00851  -0.07912  -0.01330   0.04550

FINAL SINGLE POINT ENERGY      -191.641011345678

DIPOLE MOMENT
-------------
                                X             Y             Z
Electronic contribution:     -1.96616      -1.76876       0.36474
Nuclear contribution   :      2.50946       2.59774      -0.42690
                        -----------------------------------------
Total Dipole Moment    :      0.54330       0.82897      -0.06215
                        -----------------------------------------
Magnitude (a.u.)       :      0.99309
Magnitude (Debye)      :      2.52424

Rotational constants in cm-1:     0.756017     0.209021     0.164763
Rotational constants in MHz : 22664.817246  6266.286087  4939.468133

                             ****ORCA TERMINATED NORMALLY****
TOTAL RUN TIME: 0 days 0 hours 3 minutes 20 seconds 394 msec
