                         Program Version 5.0.3 -  RELEASE  -
|  1> ! B3LYP cc-pVDZ
|  2> !TightSCF
|  3> %scf
|  4>  ConvForced true
|  5>  convergence tight
|  6>  MaxIter 500
|  7> end
|  8>
|  9> %tddft
| 10>  nroots 1
| 11> end
| 12>
| 13> # 	11599
| 14> * xyz 0 1
| 15> 		C   -1.269706  -0.336536  -0.117160
| 16> 		O   -2.187121  -0.282545  -0.823205
| 17> 		C    0.135214   0.358948  -0.330077
| 18> 		C    1.205779   0.235110   0.309088
| 19> 		H   -1.283083  -1.195706   0.899532
| 20> 		H    0.203689   1.094836  -1.234339
| 21> 		H    1.138062  -0.479511   1.192787
| 22> 		H    2.022185   0.639556   0.055045
| 23> *
| 24>
| 25>                          ****END OF INPUT****

CARTESIAN COORDINATES (ANGSTROEM)
---------------------------------
  C     -1.269706   -0.336536   -0.117160
  O     -2.187121   -0.282545   -0.823205
  C      0.135214    0.358948   -0.330077
  C      1.205779    0.235110    0.309088
  H     -1.283083   -1.195706    0.899532
  H      0.203689    1.094836   -1.234339
  H      1.138062   -0.479511    1.192787
  H      2.022185    0.639556    0.055045

 Total Charge           Charge          ....    0
 Multiplicity           Mult            ....    1
 Number of Electrons    NEL             ....   30
 Basis Dimension        Dim             ....   76

ORBITAL ENERGIES
----------------

  NO   OCC          E(Eh)            E(eV)
   0   2.0000     -19.160326      -521.3790
   1   2.0000     -10.302316      -280.3403
   2   2.0000     -10.209912      -277.8258
   3   2.0000     -10.194527      -277.4072
   4   2.0000      -1.091047       -29.6889
   5   2.0000      -0.813841       -22.1457
   6   2.0000      -0.635716       -17.2987
   7   2.0000      -0.542236       -14.7550
   8   2.0000      -0.501177       -13.6377
   9   2.0000      -0.471240       -12.8231
  10   2.0000      -0.441990       -12.0272
  11   2.0000      -0.423244       -11.5171
  12   2.0000      -0.366235        -9.9657
  13   2.0000      -0.310694        -8.4544
  14   2.0000      -0.259906        -7.0724
  15   0.0000      -0.052110        -1.4180
  16   0.0000       0.049116         1.3365
  17   0.0000       0.062445         1.6992
  18   0.0000       0.081998         2.2313
  19   0.0000       0.095957         2.6111

MULLIKEN ATOMIC CHARGES
-----------------------
   0 C :    0.117480
   1 O :   -0.113301
   2 C :   -0.176591
   3 C :    0.211045
   4 H :   -0.031892
   5 H :    0.012690
   6 H :    0.019562
   7 H :   -0.038994
Sum of atomic charges:   -0.0000000

LOEWDIN ATOMIC CHARGES
----------------------
   0 C :   -0.057882
   1 O :    0.066224
   2 C :   -0.073742
   3 C :    0.010060
   4 H :   -0.020941
   5 H :    0.042355
   6 H :    0.042583
   7 H :   -0.008658

  Mayer bond orders larger than 0.100000
B(  0-C ,  1-O ) :   2.2686 B(  0-C ,  2-C ) :   0.9508 B(  0-C ,  4-H ) :   0.8437
B(  2-C ,  3-C ) :   2.0435 B(  2-C ,  5-H ) :   0.9290 B(  3-C ,  6-H ) :   0.9175
B(  3-C ,  7-H ) :   0.8986

-----------------------------------------------------------------------------
         ABSORPTION SPECTRUM VIA TRANSITION ELECTRIC DIPOLE MOMENTS
-----------------------------------------------------------------------------
State   Energy    Wavelength  fosc         T2        TX        TY        TZ
        (cm-1)      (nm)                 (au**2)    (au)      (au)      (au)
-----------------------------------------------------------------------------
   1   32765.1    305.2   0.000455238   0.00457   0.00469   0.06740   0.00300

FINAL SINGLE POINT ENERGY      -191.603997468373

DIPOLE MOMENT
-------------
                                X             Y             Z
Electronic contribution:     -3.20435       0.00114      -1.47876
Nuclear contribution   :      4.07281       0.14325       1.77912
                        -----------------------------------------
Total Dipole Moment    :      0.86847       0.14439       0.30036
                        -----------------------------------------
Magnitude (a.u.)       :      0.93021
Magnitude (Debye)      :      2.36441

Rotational constants in cm-1:     1.578102     0.148253     0.135703
Rotational constants in MHz : 47310.299187  4444.522419  4068.282750

                             ****ORCA TERMINATED NORMALLY****
TOTAL RUN TIME: 0 days 0 hours 3 minutes 27 seconds 232 msec
