                         Program Version 5.0.3 -  RELEASE  -
|  1> ! B3LYP cc-pVDZ
|  2> !TightSCF
|  3> %scf
|  4>  ConvForced true
|  5>  convergence tight
|  6>  MaxIter 500
|  7> end
|  8>
|  9> %tddft
| 10>  nroots 1
| 11> end
| 12>
| 13> # 	14708
| 14> * xyz 0 1
| 15> 		C   -1.191594  -0.357560  -0.070612
| 16> 		O   -1.649316  -1.158088  -0.826209
| 17> 		C    0.022647   0.509060  -0.238372
| 18> 		C    1.224904   0.055863   0.129924
| 19> 		H   -1.516299  -0.300486   1.072197
| 20> 		H   -0.131286   1.410732  -0.698158
| 21> 		H    1.222815  -0.879217   0.649958
| 22> 		H    2.098059   0.700074   0.063639
| 23> *
| 24>
| 25>                          ****END OF INPUT****

CARTESIAN COORDINATES (ANGSTROEM)
---------------------------------
  C     -1.191594   -0.357560   -0.070612
  O     -1.649316   -1.158088   -0.826209
  C      0.022647    0.509060   -0.238372
  C      1.224904    0.055863    0.129924
  H     -1.516299   -0.300486    1.072197
  H     -0.131286    1.410732   -0.698158
  H      1.222815   -0.879217    0.649958
  H      2.098059    0.700074    0.063639

 Total Charge           Charge          ....    0
 Multiplicity           Mult            ....    1
 Number of Electrons    NEL             ....   30
 Basis Dimension        Dim             ....   76

ORBITAL ENERGIES
----------------

  NO   OCC          E(Eh)            E(eV)
   0   2.0000     -19.153942      -521.2053
   1   2.0000     -10.288832      -279.9733
   2   2.0000     -10.203534      -277.6523
   3   2.0000     -10.201525      -277.5976
   4   2.0000      -1.066439       -29.0193
   5   2.0000      -0.800650       -21.7868
   6   2.0000      -0.648374       -17.6432
   7   2.0000      -0.561218       -15.2715
   8   2.0000      -0.490620       -13.3504
   9   2.0000      -0.461615       -12.5612
  10   2.0000      -0.445975       -12.1356
  11   2.0000      -0.403028       -10.9669
  12   2.0000      -0.386333       -10.5127
  13   2.0000      -0.286600        -7.7988
  14   2.0000      -0.256619        -6.9830
  15   0.0000      -0.035775        -0.9735
  16   0.0000      -0.009660        -0.2629
  17   0.0000       0.085775         2.3340
  18   0.0000       0.091003         2.4763
  19   0.0000       0.105495         2.8707

MULLIKEN ATOMIC CHARGES
-----------------------
   0 C :    0.137095
   1 O :   -0.151417
   2 C :   -0.058435
   3 C :    0.055737
   4 H :   -0.012119
   5 H :   -0.014400
   6 H :    0.011895
   7 H :    0.031644
Sum of atomic charges:   -0.0000000

LOEWDIN ATOMIC CHARGES
----------------------
   0 C :   -0.034325
   1 O :    0.034143
   2 C :   -0.044845
   3 C :   -0.018974
   4 H :   -0.007070
   5 H :    0.013978
   6 H :    0.024281
   7 H :    0.032812

  Mayer bond orders larger than 0.100000
B(  0-C ,  1-O ) :   2.2643 B(  0-C ,  2-C ) :   0.9695 B(  0-C ,  4-H ) :   0.8856
B(  2-C ,  3-C ) :   2.0455 B(  2-C ,  5-H ) :   0.9464 B(  3-C ,  6-H ) :   0.9382
B(  3-C ,  7-H ) :   0.9453

-----------------------------------------------------------------------------
         ABSORPTION SPECTRUM VIA TRANSITION ELECTRIC DIPOLE MOMENTS
-----------------------------------------------------------------------------
State   Energy    Wavelength  fosc         T2        TX        TY        TZ
        (cm-1)      (nm)                 (au**2)    (au)      (au)      (au)
-----------------------------------------------------------------------------
   1   33674.5    297.0   0.000652482   0.00638  -0.03296  -0.03598   0.06323

FINAL SINGLE POINT ENERGY      -191.633121546421

DIPOLE MOMENT
-------------
                                X             Y             Z
Electronic contribution:     -2.65499      -1.23811      -1.53084
Nuclear contribution   :      3.16017       1.87107       1.96731
                        -----------------------------------------
Total Dipole Moment    :      0.50518       0.63296       0.43647
                        -----------------------------------------
Magnitude (a.u.)       :      0.91997
Magnitude (Debye)      :      2.33838

Rotational constants in cm-1:     1.012470     0.166278     0.158059
Rotational constants in MHz : 30353.086216  4984.885601  4738.487862

                             ****ORCA TERMINATED NORMALLY****
TOTAL RUN TIME: 0 days 0 hours 3 minutes 24 seconds 266 msec
