                         Program Version 5.0.3 -  RELEASE  -
|  1> ! HF-3c
|  2> !TightSCF
|  3> %scf
|  4>  ConvForced true
|  5>  convergence tight
|  6>  MaxIter 500
|  7> end
|  8>
|  9> %tddft
| 10>  nroots 1
| 11> end
| 12>
| 13> # 	16703
| 14> * xyz 0 1
| 15> 		C   -1.199474  -0.322230  -0.019809
| 16> 		O   -1.254202  -1.516113  -0.054832
| 17> 		C   -0.001315   0.519116   0.009223
| 18> 		C    1.231089  -0.008306   0.070136
| 19> 		H   -2.151328   0.239392   0.106829
| 20> 		H   -0.120167   1.672408  -0.092268
| 21> 		H    1.208893  -1.165261  -0.053724
| 22> 		H    2.239190   0.607325   0.072487
| 23> *
| 24>
| 25>                          ****END OF INPUT****

CARTESIAN COORDINATES (ANGSTROEM)
---------------------------------
  C     -1.199474   -0.322230   -0.019809
  O     -1.254202   -1.516113   -0.054832
  C     -0.001315    0.519116    0.009223
  C      1.231089   -0.008306    0.070136
  H     -2.151328    0.239392    0.106829
  H     -0.120167    1.672408   -0.092268
  H      1.208893   -1.165261   -0.053724
  H      2.239190    0.607325    0.072487

 Total Charge           Charge          ....    0
 Multiplicity           Mult            ....    1
 Number of Electrons    NEL             ....   30
 Basis Dimension        Dim             ....   24

ORBITAL ENERGIES
----------------

  NO   OCC          E(Eh)            E(eV)
   0   2.0000     -20.363012      -554.1057
   1   2.0000     -11.296311      -307.3883
   2   2.0000     -11.185218      -304.3653
   3   2.0000     -11.176823      -304.1368
   4   2.0000      -1.409589       -38.3569
   5   2.0000      -1.066926       -29.0325
   6   2.0000      -0.878436       -23.9035
   7   2.0000      -0.724650       -19.7187
   8   2.0000      -0.691076       -18.8051
   9   2.0000      -0.603795       -16.4301
  10   2.0000      -0.583324       -15.8731
  11   2.0000      -0.546283       -14.8651
  12   2.0000      -0.502322       -13.6689
  13   2.0000      -0.408650       -11.1199
  14   2.0000      -0.386078       -10.5057
  15   0.0000       0.135810         3.6956
  16   0.0000       0.318219         8.6592
  17   0.0000       0.511288        13.9128
  18   0.0000       0.558334        15.1930
  19   0.0000       0.588702        16.0194

MULLIKEN ATOMIC CHARGES
-----------------------
   0 C :    0.166096
   1 O :   -0.363147
   2 C :   -0.185037
   3 C :   -0.198480
   4 H :    0.130472
   5 H :    0.139341
   6 H :    0.159170
   7 H :    0.151586
Sum of atomic charges:    0.0000000

LOEWDIN ATOMIC CHARGES
----------------------
   0 C :    0.146016
   1 O :   -0.264413
   2 C :   -0.151909
   3 C :   -0.109846
   4 H :    0.067473
   5 H :    0.094142
   6 H :    0.111182
   7 H :    0.107354

  Mayer bond orders larger than 0.100000
B(  0-C ,  1-O ) :   1.8998 B(  0-C ,  2-C ) :   1.0312 B(  0-C ,  4-H ) :   0.9231
B(  2-C ,  3-C ) :   1.9348 B(  2-C ,  5-H ) :   0.9566 B(  3-C ,  6-H ) :   0.9524
B(  3-C ,  7-H ) :   0.9597

-----------------------------------------------------------------------------
         ABSORPTION SPECTRUM VIA TRANSITION ELECTRIC DIPOLE MOMENTS
-----------------------------------------------------------------------------
State   Energy    Wavelength  fosc         T2        TX        TY        TZ
        (cm-1)      (nm)                 (au**2)    (au)      (au)      (au)
-----------------------------------------------------------------------------
   1   33582.7    297.8   0.000038144   0.00037   0.01144   0.00253  -0.01538

Dispersion correction           -0.025528128
FINAL SINGLE POINT ENERGY      -189.321723799471

DIPOLE MOMENT
-------------
                                X             Y             Z
Electronic contribution:     -1.86945      -1.69845      -0.03747
Nuclear contribution   :      2.32957       2.63384       0.03908
                        -----------------------------------------
Total Dipole Moment    :      0.46012       0.93540       0.00161
                        -----------------------------------------
Magnitude (a.u.)       :      1.04244
Magnitude (Debye)      :      2.64967

Rotational constants in cm-1:     0.785182     0.203696     0.161911
Rotational constants in MHz : 23539.162914  6106.659574  4853.967651

                             ****ORCA TERMINATED NORMALLY****
TOTAL RUN TIME: 0 days 0 hours 0 minutes 15 seconds 929 msec
