                         Program Version 5.0.3 -  RELEASE  -
|  1> ! B3LYP cc-pVDZ
|  2> !TightSCF
|  3> %scf
|  4>  ConvForced true
|  5>  convergence tight
|  6>  MaxIter 500
|  7> end
|  8>
|  9> %tddft
| 10>  nroots 1
| 11> end
| 12>
| 13> # 	30231
| 14> * xyz 0 1
| 15> 		C   -0.588293  -0.434677  -0.032627
| 16> 		O   -0.611715  -1.660932   0.028675
| 17> 		C    0.637752   0.400503   0.010302
| 18> 		C    1.880455  -0.076729  -0.006902
| 19> 		H   -1.419276   0.099395  -0.127747
| 20> 		H    0.555617   1.440102   0.150582
| 21> 		H    1.872117  -1.246373  -0.227412
| 22> 		H    2.685203   0.615142   0.116104
| 23> *
| 24>
| 25>                          ****END OF INPUT****

CARTESIAN COORDINATES (ANGSTROEM)
---------------------------------
  C     -0.588293   -0.434677   -0.032627
  O     -0.611715   -1.660932    0.028675
  C      0.637752    0.400503    0.010302
  C      1.880455   -0.076729   -0.006902
  H     -1.419276    0.099395   -0.127747
  H      0.555617    1.440102    0.150582
  H      1.872117   -1.246373   -0.227412
  H      2.685203    0.615142    0.116104

 Total Charge           Charge          ....    0
 Multiplicity           Mult            ....    1
 Number of Electrons    NEL             ....   30
 Basis Dimension        Dim             ....   76

ORBITAL ENERGIES
----------------

  NO   OCC          E(Eh)            E(eV)
   0   2.0000     -19.138842      -520.7944
   1   2.0000     -10.267104      -279.3821
   2   2.0000     -10.215125      -277.9677
   3   2.0000     -10.195154      -277.4242
   4   2.0000      -1.036492       -28.2044
   5   2.0000      -0.796976       -21.6868
   6   2.0000      -0.668199       -18.1826
   7   2.0000      -0.547460       -14.8971
   8   2.0000      -0.516962       -14.0673
   9   2.0000      -0.438143       -11.9225
  10   2.0000      -0.430879       -11.7248
  11   2.0000      -0.392235       -10.6733
  12   2.0000      -0.371791       -10.1170
  13   2.0000      -0.287477        -7.8227
  14   2.0000      -0.258358        -7.0303
  15   0.0000      -0.071117        -1.9352
  16   0.0000       0.058923         1.6034
  17   0.0000       0.071173         1.9367
  18   0.0000       0.087596         2.3836
  19   0.0000       0.128551         3.4981

MULLIKEN ATOMIC CHARGES
-----------------------
   0 C :    0.260271
   1 O :   -0.212581
   2 C :   -0.121625
   3 C :    0.062700
   4 H :   -0.044125
   5 H :   -0.030129
   6 H :    0.059432
   7 H :    0.026056
Sum of atomic charges:   -0.0000000

LOEWDIN ATOMIC CHARGES
----------------------
   0 C :   -0.003802
   1 O :   -0.015886
   2 C :   -0.080518
   3 C :    0.019363
   4 H :   -0.022509
   5 H :    0.017394
   6 H :    0.057453
   7 H :    0.028506

  Mayer bond orders larger than 0.100000
B(  0-C ,  1-O ) :   2.1665 B(  0-C ,  2-C ) :   1.0675 B(  0-C ,  4-H ) :   0.9348
B(  2-C ,  3-C ) :   1.9766 B(  2-C ,  5-H ) :   0.9451 B(  3-C ,  6-H ) :   0.9187
B(  3-C ,  7-H ) :   0.9325

-----------------------------------------------------------------------------
         ABSORPTION SPECTRUM VIA TRANSITION ELECTRIC DIPOLE MOMENTS
-----------------------------------------------------------------------------
State   Energy    Wavelength  fosc         T2        TX        TY        TZ
        (cm-1)      (nm)                 (au**2)    (au)      (au)      (au)
-----------------------------------------------------------------------------
   1   27776.7    360.0   0.000096616   0.00115   0.02523   0.00290   0.02237

FINAL SINGLE POINT ENERGY      -191.659374448379

DIPOLE MOMENT
-------------
                                X             Y             Z
Electronic contribution:     -1.96793      -1.66382       0.04956
Nuclear contribution   :      2.30603       2.64126      -0.08383
                        -----------------------------------------
Total Dipole Moment    :      0.33810       0.97744      -0.03427
                        -----------------------------------------
Magnitude (a.u.)       :      1.03483
Magnitude (Debye)      :      2.63033

Rotational constants in cm-1:     0.806253     0.200133     0.160740
Rotational constants in MHz : 24170.860996  5999.821989  4818.851843

                             ****ORCA TERMINATED NORMALLY****
TOTAL RUN TIME: 0 days 0 hours 3 minutes 23 seconds 621 msec
