                         Program Version 5.0.3 -  RELEASE  -
|  1> ! B3LYP cc-pVDZ
|  2> !TightSCF
|  3> %scf
|  4>  ConvForced true
|  5>  convergence tight
|  6>  MaxIter 500
|  7> end
|  8>
|  9> %tddft
| 10>  nroots 1
| 11> end
| 12>
| 13> # 	16240
| 14> * xyz 0 1
| 15> 		C   -1.249006  -0.323018  -0.080220
| 16> 		O   -1.182351  -1.529934   0.000611
| 17> 		C   -0.041360   0.477166   0.008953
| 18> 		C    1.258053  -0.051583  -0.079691
| 19> 		H   -2.165895   0.255273  -0.183636
| 20> 		H   -0.176279   1.462656   0.153057
| 21> 		H    1.547823  -1.049541   0.113343
| 22> 		H    2.047058   0.688962   0.012335
| 23> *
| 24>
| 25>                          ****END OF INPUT****

CARTESIAN COORDINATES (ANGSTROEM)
---------------------------------
  C     -1.249006   -0.323018   -0.080220
  O     -1.182351   -1.529934    0.000611
  C     -0.041360    0.477166    0.008953
  C      1.258053   -0.051583   -0.079691
  H     -2.165895    0.255273   -0.183636
  H     -0.176279    1.462656    0.153057
  H      1.547823   -1.049541    0.113343
  H      2.047058    0.688962    0.012335

 Total Charge           Charge          ....    0
 Multiplicity           Mult            ....    1
 Number of Electrons    NEL             ....   30
 Basis Dimension        Dim             ....   76

ORBITAL ENERGIES
----------------

  NO   OCC          E(Eh)            E(eV)
   0   2.0000     -19.133809      -520.6574
   1   2.0000     -10.268403      -279.4174
   2   2.0000     -10.217235      -278.0251
   3   2.0000     -10.200637      -277.5735
   4   2.0000      -1.043274       -28.3889
   5   2.0000      -0.785955       -21.3869
   6   2.0000      -0.668193       -18.1824
   7   2.0000      -0.553555       -15.0630
   8   2.0000      -0.508484       -13.8366
   9   2.0000      -0.448125       -12.1941
  10   2.0000      -0.419307       -11.4099
  11   2.0000      -0.398674       -10.8485
  12   2.0000      -0.389506       -10.5990
  13   2.0000      -0.275409        -7.4943
  14   2.0000      -0.253284        -6.8922
  15   0.0000      -0.080189        -2.1821
  16   0.0000       0.052136         1.4187
  17   0.0000       0.075862         2.0643
  18   0.0000       0.095581         2.6009
  19   0.0000       0.127447         3.4680

MULLIKEN ATOMIC CHARGES
-----------------------
   0 C :    0.193396
   1 O :   -0.194444
   2 C :   -0.064060
   3 C :    0.064082
   4 H :   -0.026448
   5 H :   -0.043044
   6 H :    0.037486
   7 H :    0.033032
Sum of atomic charges:   -0.0000000

LOEWDIN ATOMIC CHARGES
----------------------
   0 C :   -0.041213
   1 O :   -0.003189
   2 C :   -0.052416
   3 C :    0.044589
   4 H :   -0.006304
   5 H :    0.002892
   6 H :    0.024929
   7 H :    0.030713

  Mayer bond orders larger than 0.100000
B(  0-C ,  1-O ) :   2.1875 B(  0-C ,  2-C ) :   1.0949 B(  0-C ,  4-H ) :   0.9186
B(  1-O ,  3-C ) :   0.1070 B(  2-C ,  3-C ) :   1.9326 B(  2-C ,  5-H ) :   0.9453
B(  3-C ,  6-H ) :   0.9543 B(  3-C ,  7-H ) :   0.9478

-----------------------------------------------------------------------------
         ABSORPTION SPECTRUM VIA TRANSITION ELECTRIC DIPOLE MOMENTS
-----------------------------------------------------------------------------
State   Energy    Wavelength  fosc         T2        TX        TY        TZ
        (cm-1)      (nm)                 (au**2)    (au)      (au)      (au)
-----------------------------------------------------------------------------
   1   25572.3    391.0   0.000062604   0.00081   0.02153   0.01431   0.01173

FINAL SINGLE POINT ENERGY      -191.672217603134

DIPOLE MOMENT
-------------
                                X             Y             Z
Electronic contribution:     -2.01387      -1.81796      -0.17018
Nuclear contribution   :      2.37018       2.72096       0.20397
                        -----------------------------------------
Total Dipole Moment    :      0.35631       0.90300       0.03379
                        -----------------------------------------
Magnitude (a.u.)       :      0.97135
Magnitude (Debye)      :      2.46897

Rotational constants in cm-1:     0.740248     0.210612     0.164512
Rotational constants in MHz : 22192.066311  6313.996799  4931.939200

                             ****ORCA TERMINATED NORMALLY****
TOTAL RUN TIME: 0 days 0 hours 3 minutes 21 seconds 827 msec
