                         Program Version 5.0.3 -  RELEASE  -
|  1> ! HF-3c
|  2> !TightSCF
|  3> %scf
|  4>  ConvForced true
|  5>  convergence tight
|  6>  MaxIter 500
|  7> end
|  8>
|  9> %tddft
| 10>  nroots 1
| 11> end
| 12>
| 13> # 	25741
| 14> * xyz 0 1
| 15> 		C   -0.555509  -0.447389   0.003105
| 16> 		O   -0.572336  -1.617956   0.003714
| 17> 		C    0.648927   0.416205   0.002723
| 18> 		C    1.803219  -0.143937   0.002346
| 19> 		H   -1.479797   0.289485  -0.117816
| 20> 		H    0.350502   1.531103   0.059914
| 21> 		H    1.875631  -1.203613  -0.043153
| 22> 		H    2.689971   0.428673  -0.053183
| 23> *
| 24>
| 25>                          ****END OF INPUT****

CARTESIAN COORDINATES (ANGSTROEM)
---------------------------------
  C     -0.555509   -0.447389    0.003105
  O     -0.572336   -1.617956    0.003714
  C      0.648927    0.416205    0.002723
  C      1.803219   -0.143937    0.002346
  H     -1.479797    0.289485   -0.117816
  H      0.350502    1.531103    0.059914
  H      1.875631   -1.203613   -0.043153
  H      2.689971    0.428673   -0.053183

 Total Charge           Charge          ....    0
 Multiplicity           Mult            ....    1
 Number of Electrons    NEL             ....   30
 Basis Dimension        Dim             ....   24

ORBITAL ENERGIES
----------------

  NO   OCC          E(Eh)            E(eV)
   0   2.0000     -20.380667      -554.5861
   1   2.0000     -11.301354      -307.5255
   2   2.0000     -11.192329      -304.5588
   3   2.0000     -11.187115      -304.4169
   4   2.0000      -1.432590       -38.9827
   5   2.0000      -1.096290       -29.8316
   6   2.0000      -0.892534       -24.2871
   7   2.0000      -0.729565       -19.8525
   8   2.0000      -0.706404       -19.2222
   9   2.0000      -0.630054       -17.1446
  10   2.0000      -0.602866       -16.4048
  11   2.0000      -0.561889       -15.2898
  12   2.0000      -0.532109       -14.4794
  13   2.0000      -0.412656       -11.2289
  14   2.0000      -0.398957       -10.8562
  15   0.0000       0.145954         3.9716
  16   0.0000       0.327542         8.9129
  17   0.0000       0.508695        13.8423
  18   0.0000       0.602452        16.3936
  19   0.0000       0.630530        17.1576

MULLIKEN ATOMIC CHARGES
-----------------------
   0 C :    0.199503
   1 O :   -0.366538
   2 C :   -0.167544
   3 C :   -0.241851
   4 H :    0.121127
   5 H :    0.144166
   6 H :    0.163682
   7 H :    0.147455
Sum of atomic charges:    0.0000000

LOEWDIN ATOMIC CHARGES
----------------------
   0 C :    0.159528
   1 O :   -0.255883
   2 C :   -0.129941
   3 C :   -0.135800
   4 H :    0.064236
   5 H :    0.097048
   6 H :    0.106671
   7 H :    0.094141

  Mayer bond orders larger than 0.100000
B(  0-C ,  1-O ) :   1.9265 B(  0-C ,  2-C ) :   0.9993 B(  0-C ,  4-H ) :   0.9073
B(  2-C ,  3-C ) :   1.9662 B(  2-C ,  5-H ) :   0.9563 B(  3-C ,  6-H ) :   0.9535
B(  3-C ,  7-H ) :   0.9623

-----------------------------------------------------------------------------
         ABSORPTION SPECTRUM VIA TRANSITION ELECTRIC DIPOLE MOMENTS
-----------------------------------------------------------------------------
State   Energy    Wavelength  fosc         T2        TX        TY        TZ
        (cm-1)      (nm)                 (au**2)    (au)      (au)      (au)
-----------------------------------------------------------------------------
   1   35080.3    285.1   0.000047336   0.00044  -0.01857   0.00211  -0.00974

Dispersion correction           -0.026304937
FINAL SINGLE POINT ENERGY      -189.317647752221

DIPOLE MOMENT
-------------
                                X             Y             Z
Electronic contribution:     -1.82698      -1.80854       0.11609
Nuclear contribution   :      2.06712       2.76711      -0.14479
                        -----------------------------------------
Total Dipole Moment    :      0.24014       0.95856      -0.02870
                        -----------------------------------------
Magnitude (a.u.)       :      0.98860
Magnitude (Debye)      :      2.51283

Rotational constants in cm-1:     0.775896     0.218618     0.170639
Rotational constants in MHz : 23260.784281  6553.996779  5115.635325

                             ****ORCA TERMINATED NORMALLY****
TOTAL RUN TIME: 0 days 0 hours 0 minutes 16 seconds 37 msec
