                         Program Version 5.0.3 -  RELEASE  -
|  1> ! B3LYP cc-pVDZ
|  2> !TightSCF
|  3> %scf
|  4>  ConvForced true
|  5>  convergence tight
|  6>  MaxIter 500
|  7> end
|  8>
|  9> %tddft
| 10>  nroots 1
| 11> end
| 12>
| 13> # 	20195
| 14> * xyz 0 1
| 15> 		C   -0.565664  -0.446850   0.031412
| 16> 		O   -0.570806  -1.617791  -0.034334
| 17> 		C    0.635292   0.405141  -0.015931
| 18> 		C    1.818575  -0.122928   0.023503
| 19> 		H   -1.554184   0.173878   0.133883
| 20> 		H    0.484148   1.485410  -0.063083
| 21> 		H    1.712919  -1.214365   0.343917
| 22> 		H    2.866264   0.428414  -0.364140
| 23> *
| 24>
| 25>                          ****END OF INPUT****

CARTESIAN COORDINATES (ANGSTROEM)
---------------------------------
  C     -0.565664   -0.446850    0.031412
  O     -0.570806   -1.617791   -0.034334
  C      0.635292    0.405141   -0.015931
  C      1.818575   -0.122928    0.023503
  H     -1.554184    0.173878    0.133883
  H      0.484148    1.485410   -0.063083
  H      1.712919   -1.214365    0.343917
  H      2.866264    0.428414   -0.364140

 Total Charge           Charge          ....    0
 Multiplicity           Mult            ....    1
 Number of Electrons    NEL             ....   30
 Basis Dimension        Dim             ....   76

ORBITAL ENERGIES
----------------

  NO   OCC          E(Eh)            E(eV)
   0   2.0000     -19.143409      -520.9186
   1   2.0000     -10.277355      -279.6611
   2   2.0000     -10.221811      -278.1496
   3   2.0000     -10.195966      -277.4463
   4   2.0000      -1.072763       -29.1914
   5   2.0000      -0.803286       -21.8585
   6   2.0000      -0.644424       -17.5357
   7   2.0000      -0.526097       -14.3158
   8   2.0000      -0.507058       -13.7977
   9   2.0000      -0.450466       -12.2578
  10   2.0000      -0.425915       -11.5897
  11   2.0000      -0.411128       -11.1874
  12   2.0000      -0.371397       -10.1062
  13   2.0000      -0.289306        -7.8724
  14   2.0000      -0.258896        -7.0449
  15   0.0000      -0.064325        -1.7504
  16   0.0000       0.047999         1.3061
  17   0.0000       0.070254         1.9117
  18   0.0000       0.079649         2.1674
  19   0.0000       0.123670         3.3652

MULLIKEN ATOMIC CHARGES
-----------------------
   0 C :    0.157203
   1 O :   -0.154669
   2 C :   -0.084935
   3 C :    0.001329
   4 H :   -0.026575
   5 H :   -0.013559
   6 H :    0.050172
   7 H :    0.071033
Sum of atomic charges:    0.0000000

LOEWDIN ATOMIC CHARGES
----------------------
   0 C :   -0.062365
   1 O :    0.036924
   2 C :   -0.100127
   3 C :   -0.002000
   4 H :   -0.008004
   5 H :    0.026805
   6 H :    0.045265
   7 H :    0.063501

  Mayer bond orders larger than 0.100000
B(  0-C ,  1-O ) :   2.2281 B(  0-C ,  2-C ) :   1.0440 B(  0-C ,  4-H ) :   0.8999
B(  2-C ,  3-C ) :   1.9602 B(  2-C ,  5-H ) :   0.9473 B(  3-C ,  6-H ) :   0.9085
B(  3-C ,  7-H ) :   0.9353

-----------------------------------------------------------------------------
         ABSORPTION SPECTRUM VIA TRANSITION ELECTRIC DIPOLE MOMENTS
-----------------------------------------------------------------------------
State   Energy    Wavelength  fosc         T2        TX        TY        TZ
        (cm-1)      (nm)                 (au**2)    (au)      (au)      (au)
-----------------------------------------------------------------------------
   1   30043.9    332.8   0.000342298   0.00375  -0.02307   0.01039   0.05577

FINAL SINGLE POINT ENERGY      -191.643949656486

DIPOLE MOMENT
-------------
                                X             Y             Z
Electronic contribution:     -1.74808      -1.79582      -0.02940
Nuclear contribution   :      2.13571       2.60848       0.04896
                        -----------------------------------------
Total Dipole Moment    :      0.38762       0.81266       0.01957
                        -----------------------------------------
Magnitude (a.u.)       :      0.90058
Magnitude (Debye)      :      2.28910

Rotational constants in cm-1:     0.791657     0.213298     0.169087
Rotational constants in MHz : 23733.283061  6394.526927  5069.109191

                             ****ORCA TERMINATED NORMALLY****
TOTAL RUN TIME: 0 days 0 hours 3 minutes 22 seconds 79 msec
