                         Program Version 5.0.3 -  RELEASE  -
|  1> ! HF-3c
|  2> !TightSCF
|  3> %scf
|  4>  ConvForced true
|  5>  convergence tight
|  6>  MaxIter 500
|  7> end
|  8>
|  9> %tddft
| 10>  nroots 1
| 11> end
| 12>
| 13> # 	25899
| 14> * xyz 0 1
| 15> 		C   -0.567991  -0.430625  -0.029047
| 16> 		O   -0.598050  -1.627680   0.030863
| 17> 		C    0.641633   0.361565   0.012884
| 18> 		C    1.834049  -0.108732  -0.035925
| 19> 		H   -1.507603   0.303447  -0.235402
| 20> 		H    0.491318   1.401453   0.300641
| 21> 		H    2.032237  -1.107758  -0.033932
| 22> 		H    2.703841   0.635956   0.123571
| 23> *
| 24>
| 25>                          ****END OF INPUT****

CARTESIAN COORDINATES (ANGSTROEM)
---------------------------------
  C     -0.567991   -0.430625   -0.029047
  O     -0.598050   -1.627680    0.030863
  C      0.641633    0.361565    0.012884
  C      1.834049   -0.108732   -0.035925
  H     -1.507603    0.303447   -0.235402
  H      0.491318    1.401453    0.300641
  H      2.032237   -1.107758   -0.033932
  H      2.703841    0.635956    0.123571

 Total Charge           Charge          ....    0
 Multiplicity           Mult            ....    1
 Number of Electrons    NEL             ....   30
 Basis Dimension        Dim             ....   24

ORBITAL ENERGIES
----------------

  NO   OCC          E(Eh)            E(eV)
   0   2.0000     -20.370972      -554.3223
   1   2.0000     -11.297426      -307.4186
   2   2.0000     -11.194787      -304.6256
   3   2.0000     -11.188254      -304.4479
   4   2.0000      -1.410196       -38.3734
   5   2.0000      -1.099462       -29.9179
   6   2.0000      -0.896776       -24.4025
   7   2.0000      -0.739912       -20.1340
   8   2.0000      -0.700819       -19.0703
   9   2.0000      -0.626518       -17.0484
  10   2.0000      -0.593327       -16.1453
  11   2.0000      -0.551467       -15.0062
  12   2.0000      -0.525450       -14.2982
  13   2.0000      -0.408903       -11.1268
  14   2.0000      -0.404714       -11.0128
  15   0.0000       0.136894         3.7251
  16   0.0000       0.320376         8.7179
  17   0.0000       0.509042        13.8517
  18   0.0000       0.586492        15.9593
  19   0.0000       0.672126        18.2895

MULLIKEN ATOMIC CHARGES
-----------------------
   0 C :    0.185668
   1 O :   -0.356220
   2 C :   -0.186783
   3 C :   -0.221983
   4 H :    0.129636
   5 H :    0.141937
   6 H :    0.156173
   7 H :    0.151573
Sum of atomic charges:    0.0000000

LOEWDIN ATOMIC CHARGES
----------------------
   0 C :    0.154010
   1 O :   -0.256607
   2 C :   -0.142625
   3 C :   -0.121515
   4 H :    0.074706
   5 H :    0.090352
   6 H :    0.096324
   7 H :    0.105355

  Mayer bond orders larger than 0.100000
B(  0-C ,  1-O ) :   1.9155 B(  0-C ,  2-C ) :   1.0234 B(  0-C ,  4-H ) :   0.9082
B(  2-C ,  3-C ) :   1.9545 B(  2-C ,  5-H ) :   0.9555 B(  3-C ,  6-H ) :   0.9603
B(  3-C ,  7-H ) :   0.9583

-----------------------------------------------------------------------------
         ABSORPTION SPECTRUM VIA TRANSITION ELECTRIC DIPOLE MOMENTS
-----------------------------------------------------------------------------
State   Energy    Wavelength  fosc         T2        TX        TY        TZ
        (cm-1)      (nm)                 (au**2)    (au)      (au)      (au)
-----------------------------------------------------------------------------
   1   33086.6    302.2   0.000073679   0.00073  -0.02400   0.00110  -0.01248

Dispersion correction           -0.026045498
FINAL SINGLE POINT ENERGY      -189.319881220840

DIPOLE MOMENT
-------------
                                X             Y             Z
Electronic contribution:     -2.01035      -1.93998      -0.12057
Nuclear contribution   :      2.33222       2.94274       0.14413
                        -----------------------------------------
Total Dipole Moment    :      0.32187       1.00275       0.02356
                        -----------------------------------------
Magnitude (a.u.)       :      1.05341
Magnitude (Debye)      :      2.67755

Rotational constants in cm-1:     0.814111     0.209131     0.167069
Rotational constants in MHz : 24406.422429  6269.580898  5008.590255

                             ****ORCA TERMINATED NORMALLY****
TOTAL RUN TIME: 0 days 0 hours 0 minutes 14 seconds 629 msec
