                         Program Version 5.0.3 -  RELEASE  -
|  1> ! B3LYP cc-pVDZ
|  2> !TightSCF
|  3> %scf
|  4>  ConvForced true
|  5>  convergence tight
|  6>  MaxIter 500
|  7> end
|  8>
|  9> %tddft
| 10>  nroots 1
| 11> end
| 12>
| 13> # 	18832
| 14> * xyz 0 1
| 15> 		C   -1.194721  -0.287557  -0.039939
| 16> 		O   -1.954187  -0.706935  -0.906248
| 17> 		C    0.068772   0.472536  -0.335401
| 18> 		C    1.233469   0.072825   0.176965
| 19> 		H   -1.322527  -0.695474   1.121069
| 20> 		H   -0.138938   1.179585  -1.022435
| 21> 		H    1.219394  -0.697034   0.962231
| 22> 		H    2.167985   0.597132   0.064887
| 23> *
| 24>
| 25>                          ****END OF INPUT****

CARTESIAN COORDINATES (ANGSTROEM)
---------------------------------
  C     -1.194721   -0.287557   -0.039939
  O     -1.954187   -0.706935   -0.906248
  C      0.068772    0.472536   -0.335401
  C      1.233469    0.072825    0.176965
  H     -1.322527   -0.695474    1.121069
  H     -0.138938    1.179585   -1.022435
  H      1.219394   -0.697034    0.962231
  H      2.167985    0.597132    0.064887

 Total Charge           Charge          ....    0
 Multiplicity           Mult            ....    1
 Number of Electrons    NEL             ....   30
 Basis Dimension        Dim             ....   76

ORBITAL ENERGIES
----------------

  NO   OCC          E(Eh)            E(eV)
   0   2.0000     -19.148764      -521.0644
   1   2.0000     -10.290247      -280.0119
   2   2.0000     -10.215663      -277.9823
   3   2.0000     -10.207686      -277.7653
   4   2.0000      -1.044512       -28.4226
   5   2.0000      -0.803182       -21.8557
   6   2.0000      -0.648833       -17.6557
   7   2.0000      -0.564444       -15.3593
   8   2.0000      -0.482962       -13.1421
   9   2.0000      -0.465515       -12.6673
  10   2.0000      -0.433575       -11.7982
  11   2.0000      -0.395653       -10.7663
  12   2.0000      -0.383546       -10.4368
  13   2.0000      -0.293466        -7.9856
  14   2.0000      -0.256967        -6.9924
  15   0.0000      -0.062099        -1.6898
  16   0.0000       0.019115         0.5202
  17   0.0000       0.073451         1.9987
  18   0.0000       0.089110         2.4248
  19   0.0000       0.106029         2.8852

MULLIKEN ATOMIC CHARGES
-----------------------
   0 C :    0.109628
   1 O :   -0.188764
   2 C :    0.001438
   3 C :    0.049167
   4 H :   -0.007921
   5 H :   -0.028456
   6 H :    0.028033
   7 H :    0.036876
Sum of atomic charges:    0.0000000

LOEWDIN ATOMIC CHARGES
----------------------
   0 C :   -0.019568
   1 O :   -0.007847
   2 C :   -0.038911
   3 C :   -0.003857
   4 H :   -0.003307
   5 H :    0.009682
   6 H :    0.033126
   7 H :    0.030682

  Mayer bond orders larger than 0.100000
B(  0-C ,  1-O ) :   2.1737 B(  0-C ,  2-C ) :   1.0189 B(  0-C ,  4-H ) :   0.8859
B(  2-C ,  3-C ) :   1.9777 B(  2-C ,  5-H ) :   0.9548 B(  3-C ,  6-H ) :   0.9364
B(  3-C ,  7-H ) :   0.9485

-----------------------------------------------------------------------------
         ABSORPTION SPECTRUM VIA TRANSITION ELECTRIC DIPOLE MOMENTS
-----------------------------------------------------------------------------
State   Energy    Wavelength  fosc         T2        TX        TY        TZ
        (cm-1)      (nm)                 (au**2)    (au)      (au)      (au)
-----------------------------------------------------------------------------
   1   29706.9    336.6   0.000857822   0.00951  -0.05562   0.04082  -0.06889

FINAL SINGLE POINT ENERGY      -191.652789178578

DIPOLE MOMENT
-------------
                                X             Y             Z
Electronic contribution:     -2.84472      -0.45608      -1.58618
Nuclear contribution   :      3.66171       0.87594       2.10095
                        -----------------------------------------
Total Dipole Moment    :      0.81699       0.41986       0.51477
                        -----------------------------------------
Magnitude (a.u.)       :      1.05297
Magnitude (Debye)      :      2.67644

Rotational constants in cm-1:     1.238421     0.156260     0.148054
Rotational constants in MHz : 37126.931804  4684.552204  4438.542313

                             ****ORCA TERMINATED NORMALLY****
TOTAL RUN TIME: 0 days 0 hours 3 minutes 19 seconds 995 msec
