                         Program Version 5.0.3 -  RELEASE  -
|  1> ! B3LYP cc-pVDZ
|  2> !TightSCF
|  3> %scf
|  4>  ConvForced true
|  5>  convergence tight
|  6>  MaxIter 500
|  7> end
|  8>
|  9> %tddft
| 10>  nroots 1
| 11> end
| 12>
| 13> # 	15010
| 14> * xyz 0 1
| 15> 		C   -1.192734  -0.356676   0.040844
| 16> 		O   -1.678161  -1.196172   0.780115
| 17> 		C   -0.001533   0.509387   0.200891
| 18> 		C    1.200258   0.086702  -0.158936
| 19> 		H   -1.675096  -0.261400  -0.926887
| 20> 		H   -0.161323   1.465158   0.741992
| 21> 		H    1.395417  -0.795583  -0.565650
| 22> 		H    2.134996   0.586773  -0.008267
| 23> *
| 24>
| 25>                          ****END OF INPUT****

CARTESIAN COORDINATES (ANGSTROEM)
---------------------------------
  C     -1.192734   -0.356676    0.040844
  O     -1.678161   -1.196172    0.780115
  C     -0.001533    0.509387    0.200891
  C      1.200258    0.086702   -0.158936
  H     -1.675096   -0.261400   -0.926887
  H     -0.161323    1.465158    0.741992
  H      1.395417   -0.795583   -0.565650
  H      2.134996    0.586773   -0.008267

 Total Charge           Charge          ....    0
 Multiplicity           Mult            ....    1
 Number of Electrons    NEL             ....   30
 Basis Dimension        Dim             ....   76

ORBITAL ENERGIES
----------------

  NO   OCC          E(Eh)            E(eV)
   0   2.0000     -19.144820      -520.9570
   1   2.0000     -10.279209      -279.7115
   2   2.0000     -10.211855      -277.8787
   3   2.0000     -10.196211      -277.4530
   4   2.0000      -1.045395       -28.4466
   5   2.0000      -0.803656       -21.8686
   6   2.0000      -0.662910       -18.0387
   7   2.0000      -0.567960       -15.4550
   8   2.0000      -0.492049       -13.3893
   9   2.0000      -0.473100       -12.8737
  10   2.0000      -0.444363       -12.0917
  11   2.0000      -0.391127       -10.6431
  12   2.0000      -0.373118       -10.1531
  13   2.0000      -0.290801        -7.9131
  14   2.0000      -0.253828        -6.9070
  15   0.0000      -0.035958        -0.9785
  16   0.0000      -0.013573        -0.3693
  17   0.0000       0.083703         2.2777
  18   0.0000       0.099844         2.7169
  19   0.0000       0.111216         3.0263

MULLIKEN ATOMIC CHARGES
-----------------------
   0 C :    0.182323
   1 O :   -0.186566
   2 C :   -0.111262
   3 C :    0.099901
   4 H :   -0.013589
   5 H :    0.027875
   6 H :   -0.018640
   7 H :    0.019959
Sum of atomic charges:   -0.0000000

LOEWDIN ATOMIC CHARGES
----------------------
   0 C :   -0.012546
   1 O :    0.001225
   2 C :   -0.054809
   3 C :   -0.002879
   4 H :   -0.008566
   5 H :    0.045240
   6 H :    0.002082
   7 H :    0.030253

  Mayer bond orders larger than 0.100000
B(  0-C ,  1-O ) :   2.2366 B(  0-C ,  2-C ) :   0.9763 B(  0-C ,  4-H ) :   0.9213
B(  2-C ,  3-C ) :   2.0486 B(  2-C ,  5-H ) :   0.9326 B(  3-C ,  6-H ) :   0.9482
B(  3-C ,  7-H ) :   0.9540

-----------------------------------------------------------------------------
         ABSORPTION SPECTRUM VIA TRANSITION ELECTRIC DIPOLE MOMENTS
-----------------------------------------------------------------------------
State   Energy    Wavelength  fosc         T2        TX        TY        TZ
        (cm-1)      (nm)                 (au**2)    (au)      (au)      (au)
-----------------------------------------------------------------------------
   1   32233.8    310.2   0.000029392   0.00030  -0.01300  -0.00066   0.01144

FINAL SINGLE POINT ENERGY      -191.635584337674

DIPOLE MOMENT
-------------
                                X             Y             Z
Electronic contribution:     -2.66435      -1.29771       1.10134
Nuclear contribution   :      3.24911       1.94115      -1.55452
                        -----------------------------------------
Total Dipole Moment    :      0.58476       0.64345      -0.45318
                        -----------------------------------------
Magnitude (a.u.)       :      0.98048
Magnitude (Debye)      :      2.49217

Rotational constants in cm-1:     1.032964     0.164532     0.155060
Rotational constants in MHz : 30967.468011  4932.550628  4648.588165

                             ****ORCA TERMINATED NORMALLY****
TOTAL RUN TIME: 0 days 0 hours 3 minutes 23 seconds 217 msec
