                         Program Version 5.0.3 -  RELEASE  -
|  1> ! B3LYP cc-pVDZ
|  2> !TightSCF
|  3> %scf
|  4>  ConvForced true
|  5>  convergence tight
|  6>  MaxIter 500
|  7> end
|  8>
|  9> %tddft
| 10>  nroots 1
| 11> end
| 12>
| 13> # 	5554
| 14> * xyz 0 1
| 15> 		C   -1.200865  -0.369317   0.109587
| 16> 		O   -1.715954  -0.981724   0.925001
| 17> 		C    0.028971   0.447595   0.267935
| 18> 		C    1.253180   0.027698  -0.306724
| 19> 		H   -1.642240  -0.293538  -0.965052
| 20> 		H   -0.123580   1.327886   0.879296
| 21> 		H    1.284953  -0.777566  -0.725989
| 22> 		H    2.095994   0.638808  -0.153085
| 23> *
| 24>
| 25>                          ****END OF INPUT****

CARTESIAN COORDINATES (ANGSTROEM)
---------------------------------
  C     -1.200865   -0.369317    0.109587
  O     -1.715954   -0.981724    0.925001
  C      0.028971    0.447595    0.267935
  C      1.253180    0.027698   -0.306724
  H     -1.642240   -0.293538   -0.965052
  H     -0.123580    1.327886    0.879296
  H      1.284953   -0.777566   -0.725989
  H      2.095994    0.638808   -0.153085

 Total Charge           Charge          ....    0
 Multiplicity           Mult            ....    1
 Number of Electrons    NEL             ....   30
 Basis Dimension        Dim             ....   76

ORBITAL ENERGIES
----------------

  NO   OCC          E(Eh)            E(eV)
   0   2.0000     -19.146139      -520.9929
   1   2.0000     -10.277812      -279.6735
   2   2.0000     -10.211973      -277.8819
   3   2.0000     -10.196150      -277.4513
   4   2.0000      -1.092700       -29.7339
   5   2.0000      -0.788445       -21.4547
   6   2.0000      -0.661570       -18.0022
   7   2.0000      -0.561491       -15.2790
   8   2.0000      -0.497196       -13.5294
   9   2.0000      -0.467361       -12.7175
  10   2.0000      -0.451495       -12.2858
  11   2.0000      -0.420915       -11.4537
  12   2.0000      -0.394365       -10.7312
  13   2.0000      -0.274235        -7.4623
  14   2.0000      -0.253311        -6.8930
  15   0.0000      -0.041951        -1.1416
  16   0.0000       0.000787         0.0214
  17   0.0000       0.091090         2.4787
  18   0.0000       0.096245         2.6189
  19   0.0000       0.120776         3.2865

MULLIKEN ATOMIC CHARGES
-----------------------
   0 C :    0.143117
   1 O :   -0.118445
   2 C :   -0.138710
   3 C :    0.174424
   4 H :   -0.031322
   5 H :    0.019514
   6 H :   -0.071134
   7 H :    0.022554
Sum of atomic charges:    0.0000000

LOEWDIN ATOMIC CHARGES
----------------------
   0 C :   -0.080672
   1 O :    0.077498
   2 C :   -0.030490
   3 C :    0.029404
   4 H :   -0.016370
   5 H :    0.031742
   6 H :   -0.038715
   7 H :    0.027603

  Mayer bond orders larger than 0.100000
B(  0-C ,  1-O ) :   2.3006 B(  0-C ,  2-C ) :   0.9836 B(  0-C ,  4-H ) :   0.8908
B(  2-C ,  3-C ) :   2.0151 B(  2-C ,  5-H ) :   0.9435 B(  3-C ,  6-H ) :   0.9398
B(  3-C ,  7-H ) :   0.9584

-----------------------------------------------------------------------------
         ABSORPTION SPECTRUM VIA TRANSITION ELECTRIC DIPOLE MOMENTS
-----------------------------------------------------------------------------
State   Energy    Wavelength  fosc         T2        TX        TY        TZ
        (cm-1)      (nm)                 (au**2)    (au)      (au)      (au)
-----------------------------------------------------------------------------
   1   34205.6    292.3   0.000311815   0.00300  -0.01674  -0.00146   0.05214

FINAL SINGLE POINT ENERGY      -191.594459965155

DIPOLE MOMENT
-------------
                                X             Y             Z
Electronic contribution:     -2.62839      -1.26125       1.46546
Nuclear contribution   :      3.15976       1.73498      -1.87779
                        -----------------------------------------
Total Dipole Moment    :      0.53137       0.47373      -0.41233
                        -----------------------------------------
Magnitude (a.u.)       :      0.82267
Magnitude (Debye)      :      2.09107

Rotational constants in cm-1:     1.129012     0.159934     0.155235
Rotational constants in MHz : 33846.924367  4794.710010  4653.839209

                             ****ORCA TERMINATED NORMALLY****
TOTAL RUN TIME: 0 days 0 hours 3 minutes 19 seconds 523 msec
