                         Program Version 5.0.3 -  RELEASE  -
|  1> ! B3LYP cc-pVDZ
|  2> !TightSCF
|  3> %scf
|  4>  ConvForced true
|  5>  convergence tight
|  6>  MaxIter 500
|  7> end
|  8>
|  9> %tddft
| 10>  nroots 1
| 11> end
| 12>
| 13> # 	16739
| 14> * xyz 0 1
| 15> 		C   -1.255898  -0.386150  -0.014747
| 16> 		O   -2.214479  -0.334629  -0.673350
| 17> 		C    0.109928   0.408378  -0.365605
| 18> 		C    1.141814   0.148883   0.306591
| 19> 		H   -1.175265  -1.108539   0.807067
| 20> 		H    0.098272   1.060657  -1.259210
| 21> 		H    1.251352  -0.371068   1.072321
| 22> 		H    1.998558   0.595628   0.092719
| 23> *
| 24>
| 25>                          ****END OF INPUT****

CARTESIAN COORDINATES (ANGSTROEM)
---------------------------------
  C     -1.255898   -0.386150   -0.014747
  O     -2.214479   -0.334629   -0.673350
  C      0.109928    0.408378   -0.365605
  C      1.141814    0.148883    0.306591
  H     -1.175265   -1.108539    0.807067
  H      0.098272    1.060657   -1.259210
  H      1.251352   -0.371068    1.072321
  H      1.998558    0.595628    0.092719

 Total Charge           Charge          ....    0
 Multiplicity           Mult            ....    1
 Number of Electrons    NEL             ....   30
 Basis Dimension        Dim             ....   76

ORBITAL ENERGIES
----------------

  NO   OCC          E(Eh)            E(eV)
   0   2.0000     -19.143436      -520.9194
   1   2.0000     -10.277534      -279.6659
   2   2.0000     -10.199847      -277.5520
   3   2.0000     -10.173343      -276.8307
   4   2.0000      -1.075255       -29.2592
   5   2.0000      -0.809752       -22.0345
   6   2.0000      -0.637770       -17.3546
   7   2.0000      -0.581042       -15.8110
   8   2.0000      -0.491131       -13.3644
   9   2.0000      -0.479126       -13.0377
  10   2.0000      -0.435126       -11.8404
  11   2.0000      -0.410539       -11.1713
  12   2.0000      -0.390261       -10.6196
  13   2.0000      -0.302830        -8.2404
  14   2.0000      -0.250853        -6.8261
  15   0.0000      -0.040643        -1.1060
  16   0.0000       0.049818         1.3556
  17   0.0000       0.084837         2.3085
  18   0.0000       0.089136         2.4255
  19   0.0000       0.126346         3.4381

MULLIKEN ATOMIC CHARGES
-----------------------
   0 C :    0.170733
   1 O :   -0.146685
   2 C :   -0.166379
   3 C :    0.252679
   4 H :   -0.027486
   5 H :    0.001950
   6 H :   -0.064442
   7 H :   -0.020370
Sum of atomic charges:   -0.0000000

LOEWDIN ATOMIC CHARGES
----------------------
   0 C :   -0.040704
   1 O :    0.047141
   2 C :   -0.043343
   3 C :    0.012466
   4 H :   -0.012683
   5 H :    0.035100
   6 H :   -0.014858
   7 H :    0.016881

  Mayer bond orders larger than 0.100000
B(  0-C ,  1-O ) :   2.2464 B(  0-C ,  2-C ) :   0.9766 B(  0-C ,  4-H ) :   0.9100
B(  2-C ,  3-C ) :   2.0109 B(  2-C ,  5-H ) :   0.9432 B(  3-C ,  6-H ) :   0.9318
B(  3-C ,  7-H ) :   0.9179

-----------------------------------------------------------------------------
         ABSORPTION SPECTRUM VIA TRANSITION ELECTRIC DIPOLE MOMENTS
-----------------------------------------------------------------------------
State   Energy    Wavelength  fosc         T2        TX        TY        TZ
        (cm-1)      (nm)                 (au**2)    (au)      (au)      (au)
-----------------------------------------------------------------------------
   1   32769.2    305.2   0.000043051   0.00043  -0.00303   0.01606  -0.01286

FINAL SINGLE POINT ENERGY      -191.608039577952

DIPOLE MOMENT
-------------
                                X             Y             Z
Electronic contribution:     -3.36795      -0.33833      -0.97701
Nuclear contribution   :      4.24285       0.37050       1.39405
                        -----------------------------------------
Total Dipole Moment    :      0.87490       0.03217       0.41704
                        -----------------------------------------
Magnitude (a.u.)       :      0.96975
Magnitude (Debye)      :      2.46490

Rotational constants in cm-1:     1.549839     0.153960     0.140275
Rotational constants in MHz : 46463.009050  4615.598801  4205.324286

                             ****ORCA TERMINATED NORMALLY****
TOTAL RUN TIME: 0 days 0 hours 3 minutes 24 seconds 797 msec
