                         Program Version 5.0.3 -  RELEASE  -
|  1> ! B3LYP cc-pVDZ
|  2> !TightSCF
|  3> %scf
|  4>  ConvForced true
|  5>  convergence tight
|  6>  MaxIter 500
|  7> end
|  8>
|  9> %tddft
| 10>  nroots 1
| 11> end
| 12>
| 13> # 	16936
| 14> * xyz 0 1
| 15> 		C   -1.165221  -0.381713   0.064060
| 16> 		O   -1.846964  -0.819820   1.052980
| 17> 		C    0.046062   0.326440   0.243627
| 18> 		C    1.176390   0.104651  -0.245968
| 19> 		H   -1.554866  -0.639047  -1.111333
| 20> 		H   -0.047490   1.313584   0.770283
| 21> 		H    1.329607  -0.706610  -0.736584
| 22> 		H    2.046356   0.843845  -0.083617
| 23> *
| 24>
| 25>                          ****END OF INPUT****

CARTESIAN COORDINATES (ANGSTROEM)
---------------------------------
  C     -1.165221   -0.381713    0.064060
  O     -1.846964   -0.819820    1.052980
  C      0.046062    0.326440    0.243627
  C      1.176390    0.104651   -0.245968
  H     -1.554866   -0.639047   -1.111333
  H     -0.047490    1.313584    0.770283
  H      1.329607   -0.706610   -0.736584
  H      2.046356    0.843845   -0.083617

 Total Charge           Charge          ....    0
 Multiplicity           Mult            ....    1
 Number of Electrons    NEL             ....   30
 Basis Dimension        Dim             ....   76

ORBITAL ENERGIES
----------------

  NO   OCC          E(Eh)            E(eV)
   0   2.0000     -19.147548      -521.0313
   1   2.0000     -10.294773      -280.1350
   2   2.0000     -10.201751      -277.6037
   3   2.0000     -10.195215      -277.4259
   4   2.0000      -1.017863       -27.6975
   5   2.0000      -0.828327       -22.5399
   6   2.0000      -0.664460       -18.0809
   7   2.0000      -0.563200       -15.3255
   8   2.0000      -0.486445       -13.2368
   9   2.0000      -0.472136       -12.8475
  10   2.0000      -0.430142       -11.7048
  11   2.0000      -0.389991       -10.6122
  12   2.0000      -0.355358        -9.6698
  13   2.0000      -0.303427        -8.2567
  14   2.0000      -0.259084        -7.0500
  15   0.0000      -0.065604        -1.7852
  16   0.0000       0.012519         0.3407
  17   0.0000       0.068736         1.8704
  18   0.0000       0.077270         2.1026
  19   0.0000       0.114283         3.1098

MULLIKEN ATOMIC CHARGES
-----------------------
   0 C :    0.117136
   1 O :   -0.227325
   2 C :   -0.052430
   3 C :    0.131569
   4 H :    0.016057
   5 H :    0.025880
   6 H :   -0.048783
   7 H :    0.037895
Sum of atomic charges:   -0.0000000

LOEWDIN ATOMIC CHARGES
----------------------
   0 C :    0.003742
   1 O :   -0.049852
   2 C :   -0.072989
   3 C :    0.004012
   4 H :    0.014310
   5 H :    0.056810
   6 H :   -0.010019
   7 H :    0.053986

  Mayer bond orders larger than 0.100000
B(  0-C ,  1-O ) :   2.1211 B(  0-C ,  2-C ) :   1.0290 B(  0-C ,  4-H ) :   0.8984
B(  2-C ,  3-C ) :   2.0520 B(  2-C ,  5-H ) :   0.9174 B(  3-C ,  6-H ) :   0.9287
B(  3-C ,  7-H ) :   0.9222

-----------------------------------------------------------------------------
         ABSORPTION SPECTRUM VIA TRANSITION ELECTRIC DIPOLE MOMENTS
-----------------------------------------------------------------------------
State   Energy    Wavelength  fosc         T2        TX        TY        TZ
        (cm-1)      (nm)                 (au**2)    (au)      (au)      (au)
-----------------------------------------------------------------------------
   1   28135.0    355.4   0.000669659   0.00784   0.07127  -0.02161  -0.04785

FINAL SINGLE POINT ENERGY      -191.624964397061

DIPOLE MOMENT
-------------
                                X             Y             Z
Electronic contribution:     -2.67108      -1.06612       1.51202
Nuclear contribution   :      3.45604       1.53603      -2.17713
                        -----------------------------------------
Total Dipole Moment    :      0.78496       0.46991      -0.66511
                        -----------------------------------------
Magnitude (a.u.)       :      1.13108
Magnitude (Debye)      :      2.87499

Rotational constants in cm-1:     1.312030     0.158632     0.153248
Rotational constants in MHz : 39333.655743  4755.657902  4594.255332

                             ****ORCA TERMINATED NORMALLY****
TOTAL RUN TIME: 0 days 0 hours 3 minutes 22 seconds 851 msec
