                         Program Version 5.0.3 -  RELEASE  -
|  1> ! HF-3c
|  2> !TightSCF
|  3> %scf
|  4>  ConvForced true
|  5>  convergence tight
|  6>  MaxIter 500
|  7> end
|  8>
|  9> %tddft
| 10>  nroots 1
| 11> end
| 12>
| 13> # 	22879
| 14> * xyz 0 1
| 15> 		C   -0.531719  -0.469369   0.031143
| 16> 		O   -0.610356  -1.655223  -0.024724
| 17> 		C    0.598579   0.442177   0.007365
| 18> 		C    1.849458  -0.092040  -0.012216
| 19> 		H   -1.642605   0.023799   0.026940
| 20> 		H    0.699076   1.665390  -0.140633
| 21> 		H    1.847450  -1.185475   0.263761
| 22> 		H    2.953605   0.401503  -0.086274
| 23> *
| 24>
| 25>                          ****END OF INPUT****

CARTESIAN COORDINATES (ANGSTROEM)
---------------------------------
  C     -0.531719   -0.469369    0.031143
  O     -0.610356   -1.655223   -0.024724
  C      0.598579    0.442177    0.007365
  C      1.849458   -0.092040   -0.012216
  H     -1.642605    0.023799    0.026940
  H      0.699076    1.665390   -0.140633
  H      1.847450   -1.185475    0.263761
  H      2.953605    0.401503   -0.086274

 Total Charge           Charge          ....    0
 Multiplicity           Mult            ....    1
 Number of Electrons    NEL             ....   30
 Basis Dimension        Dim             ....   24

ORBITAL ENERGIES
----------------

  NO   OCC          E(Eh)            E(eV)
   0   2.0000     -20.357401      -553.9530
   1   2.0000     -11.296283      -307.3875
   2   2.0000     -11.183601      -304.3213
   3   2.0000     -11.179218      -304.2020
   4   2.0000      -1.409292       -38.3488
   5   2.0000      -1.065265       -28.9873
   6   2.0000      -0.861432       -23.4408
   7   2.0000      -0.711771       -19.3683
   8   2.0000      -0.686330       -18.6760
   9   2.0000      -0.599632       -16.3168
  10   2.0000      -0.570287       -15.5183
  11   2.0000      -0.545260       -14.8373
  12   2.0000      -0.486752       -13.2452
  13   2.0000      -0.391802       -10.6615
  14   2.0000      -0.381618       -10.3844
  15   0.0000       0.135130         3.6771
  16   0.0000       0.320901         8.7322
  17   0.0000       0.442340        12.0367
  18   0.0000       0.505032        13.7426
  19   0.0000       0.587697        15.9920

MULLIKEN ATOMIC CHARGES
-----------------------
   0 C :    0.177423
   1 O :   -0.369568
   2 C :   -0.190133
   3 C :   -0.188487
   4 H :    0.120711
   5 H :    0.156166
   6 H :    0.143906
   7 H :    0.149982
Sum of atomic charges:   -0.0000000

LOEWDIN ATOMIC CHARGES
----------------------
   0 C :    0.147832
   1 O :   -0.270904
   2 C :   -0.161828
   3 C :   -0.098061
   4 H :    0.065974
   5 H :    0.114995
   6 H :    0.094444
   7 H :    0.107547

  Mayer bond orders larger than 0.100000
B(  0-C ,  1-O ) :   1.8950 B(  0-C ,  2-C ) :   1.0426 B(  0-C ,  4-H ) :   0.9133
B(  2-C ,  3-C ) :   1.9181 B(  2-C ,  5-H ) :   0.9504 B(  3-C ,  6-H ) :   0.9594
B(  3-C ,  7-H ) :   0.9604

-----------------------------------------------------------------------------
         ABSORPTION SPECTRUM VIA TRANSITION ELECTRIC DIPOLE MOMENTS
-----------------------------------------------------------------------------
State   Energy    Wavelength  fosc         T2        TX        TY        TZ
        (cm-1)      (nm)                 (au**2)    (au)      (au)      (au)
-----------------------------------------------------------------------------
   1   33012.7    302.9   0.000057246   0.00057  -0.00513   0.00008   0.02334

Dispersion correction           -0.025146659
FINAL SINGLE POINT ENERGY      -189.283287913065

DIPOLE MOMENT
-------------
                                X             Y             Z
Electronic contribution:     -1.87617      -1.63220      -0.03092
Nuclear contribution   :      2.45819       2.63927       0.06052
                        -----------------------------------------
Total Dipole Moment    :      0.58202       1.00708       0.02960
                        -----------------------------------------
Magnitude (a.u.)       :      1.16354
Magnitude (Debye)      :      2.95749

Rotational constants in cm-1:     0.782693     0.200791     0.160168
Rotational constants in MHz : 23464.537867  6019.577707  4801.709962

                             ****ORCA TERMINATED NORMALLY****
TOTAL RUN TIME: 0 days 0 hours 0 minutes 11 seconds 462 msec
