                         Program Version 5.0.3 -  RELEASE  -
|  1> ! HF-3c
|  2> !TightSCF
|  3> %scf
|  4>  ConvForced true
|  5>  convergence tight
|  6>  MaxIter 500
|  7> end
|  8>
|  9> %tddft
| 10>  nroots 1
| 11> end
| 12>
| 13> # 	24299
| 14> * xyz 0 1
| 15> 		C   -0.600786  -0.422304   0.026051
| 16> 		O   -0.553280  -1.638680  -0.026247
| 17> 		C    0.627756   0.401141  -0.005409
| 18> 		C    1.831149  -0.122924   0.009994
| 19> 		H   -1.550837   0.252782   0.188719
| 20> 		H    0.392327   1.576809  -0.248390
| 21> 		H    1.837561  -1.118644   0.120096
| 22> 		H    2.884622   0.287933  -0.025911
| 23> *
| 24>
| 25>                          ****END OF INPUT****

CARTESIAN COORDINATES (ANGSTROEM)
---------------------------------
  C     -0.600786   -0.422304    0.026051
  O     -0.553280   -1.638680   -0.026247
  C      0.627756    0.401141   -0.005409
  C      1.831149   -0.122924    0.009994
  H     -1.550837    0.252782    0.188719
  H      0.392327    1.576809   -0.248390
  H      1.837561   -1.118644    0.120096
  H      2.884622    0.287933   -0.025911

 Total Charge           Charge          ....    0
 Multiplicity           Mult            ....    1
 Number of Electrons    NEL             ....   30
 Basis Dimension        Dim             ....   24

ORBITAL ENERGIES
----------------

  NO   OCC          E(Eh)            E(eV)
   0   2.0000     -20.365947      -554.1856
   1   2.0000     -11.294459      -307.3379
   2   2.0000     -11.186603      -304.4029
   3   2.0000     -11.185177      -304.3641
   4   2.0000      -1.397185       -38.0193
   5   2.0000      -1.077852       -29.3298
   6   2.0000      -0.890136       -24.2218
   7   2.0000      -0.734025       -19.9738
   8   2.0000      -0.684495       -18.6261
   9   2.0000      -0.617616       -16.8062
  10   2.0000      -0.592348       -16.1186
  11   2.0000      -0.538682       -14.6583
  12   2.0000      -0.503678       -13.7058
  13   2.0000      -0.409798       -11.1512
  14   2.0000      -0.395637       -10.7658
  15   0.0000       0.134142         3.6502
  16   0.0000       0.311556         8.4779
  17   0.0000       0.482675        13.1342
  18   0.0000       0.563173        15.3247
  19   0.0000       0.604150        16.4398

MULLIKEN ATOMIC CHARGES
-----------------------
   0 C :    0.172025
   1 O :   -0.353124
   2 C :   -0.155561
   3 C :   -0.243945
   4 H :    0.138217
   5 H :    0.135895
   6 H :    0.150773
   7 H :    0.155720
Sum of atomic charges:   -0.0000000

LOEWDIN ATOMIC CHARGES
----------------------
   0 C :    0.149262
   1 O :   -0.260256
   2 C :   -0.123873
   3 C :   -0.138739
   4 H :    0.080786
   5 H :    0.094715
   6 H :    0.091045
   7 H :    0.107060

  Mayer bond orders larger than 0.100000
B(  0-C ,  1-O ) :   1.9128 B(  0-C ,  2-C ) :   1.0195 B(  0-C ,  4-H ) :   0.9149
B(  2-C ,  3-C ) :   1.9570 B(  2-C ,  5-H ) :   0.9537 B(  3-C ,  6-H ) :   0.9582
B(  3-C ,  7-H ) :   0.9607

-----------------------------------------------------------------------------
         ABSORPTION SPECTRUM VIA TRANSITION ELECTRIC DIPOLE MOMENTS
-----------------------------------------------------------------------------
State   Energy    Wavelength  fosc         T2        TX        TY        TZ
        (cm-1)      (nm)                 (au**2)    (au)      (au)      (au)
-----------------------------------------------------------------------------
   1   32466.1    308.0   0.000132332   0.00134  -0.03589   0.00265   0.00685

Dispersion correction           -0.025728807
FINAL SINGLE POINT ENERGY      -189.315587151190

DIPOLE MOMENT
-------------
                                X             Y             Z
Electronic contribution:     -1.97846      -1.73181      -0.00871
Nuclear contribution   :      2.18887       2.72332       0.03315
                        -----------------------------------------
Total Dipole Moment    :      0.21041       0.99151       0.02444
                        -----------------------------------------
Magnitude (a.u.)       :      1.01389
Magnitude (Debye)      :      2.57710

Rotational constants in cm-1:     0.736876     0.213390     0.165908
Rotational constants in MHz : 22090.986826  6397.284249  4973.803745

                             ****ORCA TERMINATED NORMALLY****
TOTAL RUN TIME: 0 days 0 hours 0 minutes 12 seconds 335 msec
