                         Program Version 5.0.3 -  RELEASE  -
|  1> ! HF-3c
|  2> !TightSCF
|  3> %scf
|  4>  ConvForced true
|  5>  convergence tight
|  6>  MaxIter 500
|  7> end
|  8>
|  9> %tddft
| 10>  nroots 1
| 11> end
| 12>
| 13> # 	23200
| 14> * xyz 0 1
| 15> 		C   -0.614516  -0.363704   0.048319
| 16> 		O   -0.520700  -1.621944  -0.014959
| 17> 		C    0.621889   0.367776  -0.080360
| 18> 		C    1.807274  -0.177303   0.025610
| 19> 		H   -1.509828   0.185569   0.070072
| 20> 		H    0.564139   1.567270   0.159419
| 21> 		H    1.924524  -1.198964   0.004172
| 22> 		H    2.629455   0.542065   0.090474
| 23> *
| 24>
| 25>                          ****END OF INPUT****

CARTESIAN COORDINATES (ANGSTROEM)
---------------------------------
  C     -0.614516   -0.363704    0.048319
  O     -0.520700   -1.621944   -0.014959
  C      0.621889    0.367776   -0.080360
  C      1.807274   -0.177303    0.025610
  H     -1.509828    0.185569    0.070072
  H      0.564139    1.567270    0.159419
  H      1.924524   -1.198964    0.004172
  H      2.629455    0.542065    0.090474

 Total Charge           Charge          ....    0
 Multiplicity           Mult            ....    1
 Number of Electrons    NEL             ....   30
 Basis Dimension        Dim             ....   24

ORBITAL ENERGIES
----------------

  NO   OCC          E(Eh)            E(eV)
   0   2.0000     -20.351777      -553.8000
   1   2.0000     -11.287173      -307.1396
   2   2.0000     -11.188176      -304.4458
   3   2.0000     -11.184202      -304.3376
   4   2.0000      -1.369151       -37.2565
   5   2.0000      -1.083967       -29.4962
   6   2.0000      -0.908057       -24.7095
   7   2.0000      -0.746912       -20.3245
   8   2.0000      -0.701153       -19.0793
   9   2.0000      -0.607473       -16.5302
  10   2.0000      -0.587406       -15.9841
  11   2.0000      -0.530080       -14.4242
  12   2.0000      -0.508664       -13.8414
  13   2.0000      -0.421559       -11.4712
  14   2.0000      -0.387903       -10.5554
  15   0.0000       0.119625         3.2552
  16   0.0000       0.306371         8.3368
  17   0.0000       0.505774        13.7628
  18   0.0000       0.632879        17.2215
  19   0.0000       0.670696        18.2506

MULLIKEN ATOMIC CHARGES
-----------------------
   0 C :    0.130274
   1 O :   -0.335835
   2 C :   -0.153127
   3 C :   -0.234716
   4 H :    0.146757
   5 H :    0.135182
   6 H :    0.161227
   7 H :    0.150239
Sum of atomic charges:    0.0000000

LOEWDIN ATOMIC CHARGES
----------------------
   0 C :    0.133434
   1 O :   -0.258639
   2 C :   -0.120402
   3 C :   -0.129740
   4 H :    0.079554
   5 H :    0.094255
   6 H :    0.101317
   7 H :    0.100222

  Mayer bond orders larger than 0.100000
B(  0-C ,  1-O ) :   1.8861 B(  0-C ,  2-C ) :   1.0546 B(  0-C ,  4-H ) :   0.9357
B(  2-C ,  3-C ) :   1.9346 B(  2-C ,  5-H ) :   0.9530 B(  3-C ,  6-H ) :   0.9582
B(  3-C ,  7-H ) :   0.9622

-----------------------------------------------------------------------------
         ABSORPTION SPECTRUM VIA TRANSITION ELECTRIC DIPOLE MOMENTS
-----------------------------------------------------------------------------
State   Energy    Wavelength  fosc         T2        TX        TY        TZ
        (cm-1)      (nm)                 (au**2)    (au)      (au)      (au)
-----------------------------------------------------------------------------
   1   28636.3    349.2   0.000187555   0.00216   0.04540   0.00102   0.00969

Dispersion correction           -0.026283627
FINAL SINGLE POINT ENERGY      -189.329624165248

DIPOLE MOMENT
-------------
                                X             Y             Z
Electronic contribution:     -2.01637      -1.80873      -0.18797
Nuclear contribution   :      2.22825       2.81359       0.30319
                        -----------------------------------------
Total Dipole Moment    :      0.21187       1.00485       0.11522
                        -----------------------------------------
Magnitude (a.u.)       :      1.03339
Magnitude (Debye)      :      2.62667

Rotational constants in cm-1:     0.728111     0.224718     0.172266
Rotational constants in MHz : 21828.215564  6736.871655  5164.389983

                             ****ORCA TERMINATED NORMALLY****
TOTAL RUN TIME: 0 days 0 hours 0 minutes 10 seconds 665 msec
