                         Program Version 5.0.3 -  RELEASE  -
|  1> ! HF-3c
|  2> !TightSCF
|  3> %scf
|  4>  ConvForced true
|  5>  convergence tight
|  6>  MaxIter 500
|  7> end
|  8>
|  9> %tddft
| 10>  nroots 1
| 11> end
| 12>
| 13> # 	26699
| 14> * xyz 0 1
| 15> 		C   -0.555257  -0.414380  -0.061931
| 16> 		O   -0.591322  -1.624734   0.033691
| 17> 		C    0.642872   0.399088   0.072433
| 18> 		C    1.811845  -0.138727  -0.044305
| 19> 		H   -1.494557   0.099117  -0.149017
| 20> 		H    0.371525   1.484436   0.012383
| 21> 		H    2.186431  -1.157206  -0.082124
| 22> 		H    2.651888   0.486867   0.096733
| 23> *
| 24>
| 25>                          ****END OF INPUT****

CARTESIAN COORDINATES (ANGSTROEM)
---------------------------------
  C     -0.555257   -0.414380   -0.061931
  O     -0.591322   -1.624734    0.033691
  C      0.642872    0.399088    0.072433
  C      1.811845   -0.138727   -0.044305
  H     -1.494557    0.099117   -0.149017
  H      0.371525    1.484436    0.012383
  H      2.186431   -1.157206   -0.082124
  H      2.651888    0.486867    0.096733

 Total Charge           Charge          ....    0
 Multiplicity           Mult            ....    1
 Number of Electrons    NEL             ....   30
 Basis Dimension        Dim             ....   24

ORBITAL ENERGIES
----------------

  NO   OCC          E(Eh)            E(eV)
   0   2.0000     -20.358504      -553.9831
   1   2.0000     -11.287890      -307.1591
   2   2.0000     -11.198791      -304.7346
   3   2.0000     -11.197786      -304.7073
   4   2.0000      -1.395853       -37.9831
   5   2.0000      -1.096131       -29.8272
   6   2.0000      -0.906433       -24.6653
   7   2.0000      -0.758313       -20.6348
   8   2.0000      -0.702468       -19.1151
   9   2.0000      -0.636621       -17.3233
  10   2.0000      -0.589336       -16.0366
  11   2.0000      -0.542390       -14.7592
  12   2.0000      -0.526149       -14.3172
  13   2.0000      -0.412155       -11.2153
  14   2.0000      -0.404717       -11.0129
  15   0.0000       0.132789         3.6134
  16   0.0000       0.315417         8.5829
  17   0.0000       0.510981        13.9045
  18   0.0000       0.652250        17.7486
  19   0.0000       0.689193        18.7539

MULLIKEN ATOMIC CHARGES
-----------------------
   0 C :    0.156011
   1 O :   -0.349362
   2 C :   -0.175056
   3 C :   -0.223927
   4 H :    0.132520
   5 H :    0.152087
   6 H :    0.166168
   7 H :    0.141559
Sum of atomic charges:   -0.0000000

LOEWDIN ATOMIC CHARGES
----------------------
   0 C :    0.140035
   1 O :   -0.257009
   2 C :   -0.130116
   3 C :   -0.120369
   4 H :    0.067254
   5 H :    0.101259
   6 H :    0.110103
   7 H :    0.088843

  Mayer bond orders larger than 0.100000
B(  0-C ,  1-O ) :   1.9004 B(  0-C ,  2-C ) :   1.0301 B(  0-C ,  4-H ) :   0.9326
B(  2-C ,  3-C ) :   1.9516 B(  2-C ,  5-H ) :   0.9528 B(  3-C ,  6-H ) :   0.9576
B(  3-C ,  7-H ) :   0.9627

-----------------------------------------------------------------------------
         ABSORPTION SPECTRUM VIA TRANSITION ELECTRIC DIPOLE MOMENTS
-----------------------------------------------------------------------------
State   Energy    Wavelength  fosc         T2        TX        TY        TZ
        (cm-1)      (nm)                 (au**2)    (au)      (au)      (au)
-----------------------------------------------------------------------------
   1   31426.3    318.2   0.000152392   0.00160  -0.03927  -0.00492   0.00549

Dispersion correction           -0.025851213
FINAL SINGLE POINT ENERGY      -189.335545819045

DIPOLE MOMENT
-------------
                                X             Y             Z
Electronic contribution:     -1.96102      -1.70688       0.03700
Nuclear contribution   :      2.32781       2.64199      -0.11466
                        -----------------------------------------
Total Dipole Moment    :      0.36679       0.93510      -0.07766
                        -----------------------------------------
Magnitude (a.u.)       :      1.00746
Magnitude (Debye)      :      2.56077

Rotational constants in cm-1:     0.777370     0.213934     0.168400
Rotational constants in MHz : 23304.955856  6413.586662  5048.514727

                             ****ORCA TERMINATED NORMALLY****
TOTAL RUN TIME: 0 days 0 hours 0 minutes 10 seconds 608 msec
