                         Program Version 5.0.3 -  RELEASE  -
|  1> ! B3LYP cc-pVDZ
|  2> !TightSCF
|  3> %scf
|  4>  ConvForced true
|  5>  convergence tight
|  6>  MaxIter 500
|  7> end
|  8>
|  9> %tddft
| 10>  nroots 1
| 11> end
| 12>
| 13> # 	23370
| 14> * xyz 0 1
| 15> 		C   -0.556940  -0.440184  -0.073484
| 16> 		O   -0.604803  -1.661288   0.047591
| 17> 		C    0.586437   0.425431   0.076883
| 18> 		C    1.884589  -0.108679  -0.051821
| 19> 		H   -1.512882   0.119806  -0.293672
| 20> 		H    0.571479   1.591174   0.175779
| 21> 		H    1.927837  -1.242512  -0.118491
| 22> 		H    2.799265   0.610172   0.076774
| 23> *
| 24>
| 25>                          ****END OF INPUT****

CARTESIAN COORDINATES (ANGSTROEM)
---------------------------------
  C     -0.556940   -0.440184   -0.073484
  O     -0.604803   -1.661288    0.047591
  C      0.586437    0.425431    0.076883
  C      1.884589   -0.108679   -0.051821
  H     -1.512882    0.119806   -0.293672
  H      0.571479    1.591174    0.175779
  H      1.927837   -1.242512   -0.118491
  H      2.799265    0.610172    0.076774

 Total Charge           Charge          ....    0
 Multiplicity           Mult            ....    1
 Number of Electrons    NEL             ....   30
 Basis Dimension        Dim             ....   76

ORBITAL ENERGIES
----------------

  NO   OCC          E(Eh)            E(eV)
   0   2.0000     -19.138357      -520.7812
   1   2.0000     -10.276953      -279.6501
   2   2.0000     -10.236196      -278.5411
   3   2.0000     -10.219816      -278.0953
   4   2.0000      -1.036399       -28.2019
   5   2.0000      -0.786642       -21.4056
   6   2.0000      -0.655338       -17.8326
   7   2.0000      -0.530101       -14.4248
   8   2.0000      -0.503886       -13.7114
   9   2.0000      -0.439440       -11.9578
  10   2.0000      -0.415296       -11.3008
  11   2.0000      -0.391864       -10.6632
  12   2.0000      -0.377607       -10.2752
  13   2.0000      -0.281427        -7.6580
  14   2.0000      -0.256382        -6.9765
  15   0.0000      -0.080223        -2.1830
  16   0.0000       0.044049         1.1986
  17   0.0000       0.056276         1.5314
  18   0.0000       0.082700         2.2504
  19   0.0000       0.114003         3.1022

MULLIKEN ATOMIC CHARGES
-----------------------
   0 C :    0.199527
   1 O :   -0.209078
   2 C :   -0.129256
   3 C :    0.002322
   4 H :   -0.017404
   5 H :    0.026242
   6 H :    0.065119
   7 H :    0.062529
Sum of atomic charges:   -0.0000000

LOEWDIN ATOMIC CHARGES
----------------------
   0 C :   -0.041942
   1 O :   -0.023335
   2 C :   -0.092547
   3 C :    0.020463
   4 H :   -0.002749
   5 H :    0.047008
   6 H :    0.043795
   7 H :    0.049307

  Mayer bond orders larger than 0.100000
B(  0-C ,  1-O ) :   2.1505 B(  0-C ,  2-C ) :   1.0687 B(  0-C ,  4-H ) :   0.9178
B(  2-C ,  3-C ) :   1.9073 B(  2-C ,  5-H ) :   0.9412 B(  3-C ,  6-H ) :   0.9323
B(  3-C ,  7-H ) :   0.9412

-----------------------------------------------------------------------------
         ABSORPTION SPECTRUM VIA TRANSITION ELECTRIC DIPOLE MOMENTS
-----------------------------------------------------------------------------
State   Energy    Wavelength  fosc         T2        TX        TY        TZ
        (cm-1)      (nm)                 (au**2)    (au)      (au)      (au)
-----------------------------------------------------------------------------
   1   26252.8    380.9   0.000277747   0.00348   0.05180   0.00568  -0.02771

FINAL SINGLE POINT ENERGY      -191.672297310179

DIPOLE MOMENT
-------------
                                X             Y             Z
Electronic contribution:     -1.86854      -1.85664       0.09249
Nuclear contribution   :      2.39159       2.80005      -0.15031
                        -----------------------------------------
Total Dipole Moment    :      0.52305       0.94341      -0.05782
                        -----------------------------------------
Magnitude (a.u.)       :      1.08025
Magnitude (Debye)      :      2.74577

Rotational constants in cm-1:     0.743522     0.201297     0.159435
Rotational constants in MHz : 22290.216198  6034.723233  4779.752356

                             ****ORCA TERMINATED NORMALLY****
TOTAL RUN TIME: 0 days 0 hours 3 minutes 21 seconds 848 msec
