                         Program Version 5.0.3 -  RELEASE  -
|  1> ! HF-3c
|  2> !TightSCF
|  3> %scf
|  4>  ConvForced true
|  5>  convergence tight
|  6>  MaxIter 500
|  7> end
|  8>
|  9> %tddft
| 10>  nroots 1
| 11> end
| 12>
| 13> # 	16161
| 14> * xyz 0 1
| 15> 		C   -1.180077  -0.231416   0.056600
| 16> 		O   -1.217252  -1.454054  -0.109996
| 17> 		C   -0.061085   0.602771  -0.021708
| 18> 		C    1.200412   0.016046   0.093533
| 19> 		H   -2.145075   0.211118   0.143177
| 20> 		H   -0.100402   1.636071  -0.177283
| 21> 		H    1.210325  -1.198640   0.219029
| 22> 		H    2.298364   0.422063  -0.227858
| 23> *
| 24>
| 25>                          ****END OF INPUT****

CARTESIAN COORDINATES (ANGSTROEM)
---------------------------------
  C     -1.180077   -0.231416    0.056600
  O     -1.217252   -1.454054   -0.109996
  C     -0.061085    0.602771   -0.021708
  C      1.200412    0.016046    0.093533
  H     -2.145075    0.211118    0.143177
  H     -0.100402    1.636071   -0.177283
  H      1.210325   -1.198640    0.219029
  H      2.298364    0.422063   -0.227858

 Total Charge           Charge          ....    0
 Multiplicity           Mult            ....    1
 Number of Electrons    NEL             ....   30
 Basis Dimension        Dim             ....   24

ORBITAL ENERGIES
----------------

  NO   OCC          E(Eh)            E(eV)
   0   2.0000     -20.337668      -553.4161
   1   2.0000     -11.284415      -307.0645
   2   2.0000     -11.194059      -304.6058
   3   2.0000     -11.182047      -304.2790
   4   2.0000      -1.376028       -37.4436
   5   2.0000      -1.069048       -29.0903
   6   2.0000      -0.883106       -24.0305
   7   2.0000      -0.739188       -20.1143
   8   2.0000      -0.704965       -19.1831
   9   2.0000      -0.598121       -16.2757
  10   2.0000      -0.570503       -15.5242
  11   2.0000      -0.525147       -14.2900
  12   2.0000      -0.502842       -13.6830
  13   2.0000      -0.411776       -11.2050
  14   2.0000      -0.368351       -10.0233
  15   0.0000       0.115468         3.1420
  16   0.0000       0.305444         8.3116
  17   0.0000       0.497705        13.5433
  18   0.0000       0.531893        14.4735
  19   0.0000       0.659039        17.9334

MULLIKEN ATOMIC CHARGES
-----------------------
   0 C :    0.137803
   1 O :   -0.359207
   2 C :   -0.218535
   3 C :   -0.150025
   4 H :    0.136171
   5 H :    0.147200
   6 H :    0.154796
   7 H :    0.151796
Sum of atomic charges:   -0.0000000

LOEWDIN ATOMIC CHARGES
----------------------
   0 C :    0.134865
   1 O :   -0.277338
   2 C :   -0.174170
   3 C :   -0.064927
   4 H :    0.069946
   5 H :    0.092197
   6 H :    0.110449
   7 H :    0.108978

  Mayer bond orders larger than 0.100000
B(  0-C ,  1-O ) :   1.8565 B(  0-C ,  2-C ) :   1.0899 B(  0-C ,  4-H ) :   0.9341
B(  2-C ,  3-C ) :   1.8733 B(  2-C ,  5-H ) :   0.9592 B(  3-C ,  6-H ) :   0.9546
B(  3-C ,  7-H ) :   0.9602

-----------------------------------------------------------------------------
         ABSORPTION SPECTRUM VIA TRANSITION ELECTRIC DIPOLE MOMENTS
-----------------------------------------------------------------------------
State   Energy    Wavelength  fosc         T2        TX        TY        TZ
        (cm-1)      (nm)                 (au**2)    (au)      (au)      (au)
-----------------------------------------------------------------------------
   1   30453.7    328.4   0.000029531   0.00032   0.00086  -0.00263   0.01765

Dispersion correction           -0.025731679
FINAL SINGLE POINT ENERGY      -189.307216059784

DIPOLE MOMENT
-------------
                                X             Y             Z
Electronic contribution:     -1.77721      -1.32315       0.08823
Nuclear contribution   :      2.42314       2.16101      -0.02440
                        -----------------------------------------
Total Dipole Moment    :      0.64593       0.83786       0.06383
                        -----------------------------------------
Magnitude (a.u.)       :      1.05986
Magnitude (Debye)      :      2.69395

Rotational constants in cm-1:     0.724660     0.215113     0.167211
Rotational constants in MHz : 21724.750306  6448.935452  5012.846647

                             ****ORCA TERMINATED NORMALLY****
TOTAL RUN TIME: 0 days 0 hours 0 minutes 11 seconds 121 msec
