                         Program Version 5.0.3 -  RELEASE  -
|  1> ! HF-3c
|  2> !TightSCF
|  3> %scf
|  4>  ConvForced true
|  5>  convergence tight
|  6>  MaxIter 500
|  7> end
|  8>
|  9> %tddft
| 10>  nroots 1
| 11> end
| 12>
| 13> # 	15884
| 14> * xyz 0 1
| 15> 		C   -1.236969  -0.335114  -0.033161
| 16> 		O   -1.288042  -1.396344   0.407575
| 17> 		C   -0.010738   0.488080   0.111251
| 18> 		C    1.177333  -0.016449  -0.118612
| 19> 		H   -2.013994   0.230727  -0.593615
| 20> 		H   -0.103252   1.523349   0.549751
| 21> 		H    1.300004  -1.004566  -0.365948
| 22> 		H    2.139377   0.547748   0.029534
| 23> *
| 24>
| 25>                          ****END OF INPUT****

CARTESIAN COORDINATES (ANGSTROEM)
---------------------------------
  C     -1.236969   -0.335114   -0.033161
  O     -1.288042   -1.396344    0.407575
  C     -0.010738    0.488080    0.111251
  C      1.177333   -0.016449   -0.118612
  H     -2.013994    0.230727   -0.593615
  H     -0.103252    1.523349    0.549751
  H      1.300004   -1.004566   -0.365948
  H      2.139377    0.547748    0.029534

 Total Charge           Charge          ....    0
 Multiplicity           Mult            ....    1
 Number of Electrons    NEL             ....   30
 Basis Dimension        Dim             ....   24

ORBITAL ENERGIES
----------------

  NO   OCC          E(Eh)            E(eV)
   0   2.0000     -20.397891      -555.0548
   1   2.0000     -11.318788      -307.9999
   2   2.0000     -11.180666      -304.2414
   3   2.0000     -11.178392      -304.1795
   4   2.0000      -1.458276       -39.6817
   5   2.0000      -1.079617       -29.3779
   6   2.0000      -0.890253       -24.2250
   7   2.0000      -0.756127       -20.5753
   8   2.0000      -0.707929       -19.2637
   9   2.0000      -0.630818       -17.1654
  10   2.0000      -0.622415       -16.9368
  11   2.0000      -0.554756       -15.0957
  12   2.0000      -0.531952       -14.4752
  13   2.0000      -0.411547       -11.1988
  14   2.0000      -0.401301       -10.9199
  15   0.0000       0.169304         4.6070
  16   0.0000       0.277119         7.5408
  17   0.0000       0.557774        15.1778
  18   0.0000       0.616276        16.7697
  19   0.0000       0.661317        17.9954

MULLIKEN ATOMIC CHARGES
-----------------------
   0 C :    0.191412
   1 O :   -0.352647
   2 C :   -0.166845
   3 C :   -0.241994
   4 H :    0.138102
   5 H :    0.145463
   6 H :    0.142816
   7 H :    0.143694
Sum of atomic charges:    0.0000000

LOEWDIN ATOMIC CHARGES
----------------------
   0 C :    0.156688
   1 O :   -0.235413
   2 C :   -0.128859
   3 C :   -0.145864
   4 H :    0.072414
   5 H :    0.097393
   6 H :    0.087174
   7 H :    0.096467

  Mayer bond orders larger than 0.100000
B(  0-C ,  1-O ) :   1.9443 B(  0-C ,  2-C ) :   0.9869 B(  0-C ,  4-H ) :   0.9099
B(  2-C ,  3-C ) :   1.9856 B(  2-C ,  5-H ) :   0.9524 B(  3-C ,  6-H ) :   0.9646
B(  3-C ,  7-H ) :   0.9626

-----------------------------------------------------------------------------
         ABSORPTION SPECTRUM VIA TRANSITION ELECTRIC DIPOLE MOMENTS
-----------------------------------------------------------------------------
State   Energy    Wavelength  fosc         T2        TX        TY        TZ
        (cm-1)      (nm)                 (au**2)    (au)      (au)      (au)
-----------------------------------------------------------------------------
   1   37366.4    267.6   0.000074450   0.00066  -0.02082   0.00510   0.01402

Dispersion correction           -0.025844442
FINAL SINGLE POINT ENERGY      -189.306657033009

DIPOLE MOMENT
-------------
                                X             Y             Z
Electronic contribution:     -2.36177      -1.64860       0.42997
Nuclear contribution   :      2.57340       2.49960      -0.73047
                        -----------------------------------------
Total Dipole Moment    :      0.21163       0.85100      -0.30050
                        -----------------------------------------
Magnitude (a.u.)       :      0.92697
Magnitude (Debye)      :      2.35618

Rotational constants in cm-1:     0.823996     0.205327     0.171617
Rotational constants in MHz : 24702.786628  6155.556131  5144.946394

                             ****ORCA TERMINATED NORMALLY****
TOTAL RUN TIME: 0 days 0 hours 0 minutes 11 seconds 716 msec
