                         Program Version 5.0.3 -  RELEASE  -
|  1> ! B3LYP cc-pVDZ
|  2> !TightSCF
|  3> %scf
|  4>  ConvForced true
|  5>  convergence tight
|  6>  MaxIter 500
|  7> end
|  8>
|  9> %tddft
| 10>  nroots 1
| 11> end
| 12>
| 13> # 	30994
| 14> * xyz 0 1
| 15> 		C   -0.536289  -0.437184  -0.069467
| 16> 		O   -0.599063  -1.672686   0.031545
| 17> 		C    0.589512   0.430600   0.020760
| 18> 		C    1.849376  -0.105051  -0.017400
| 19> 		H   -1.438972   0.211266   0.053185
| 20> 		H    0.694007   1.726438   0.234477
| 21> 		H    1.935878  -1.237996   0.025800
| 22> 		H    2.668151   0.436139  -0.017706
| 23> *
| 24>
| 25>                          ****END OF INPUT****

CARTESIAN COORDINATES (ANGSTROEM)
---------------------------------
  C     -0.536289   -0.437184   -0.069467
  O     -0.599063   -1.672686    0.031545
  C      0.589512    0.430600    0.020760
  C      1.849376   -0.105051   -0.017400
  H     -1.438972    0.211266    0.053185
  H      0.694007    1.726438    0.234477
  H      1.935878   -1.237996    0.025800
  H      2.668151    0.436139   -0.017706

 Total Charge           Charge          ....    0
 Multiplicity           Mult            ....    1
 Number of Electrons    NEL             ....   30
 Basis Dimension        Dim             ....   76

ORBITAL ENERGIES
----------------

  NO   OCC          E(Eh)            E(eV)
   0   2.0000     -19.141889      -520.8773
   1   2.0000     -10.277340      -279.6606
   2   2.0000     -10.225134      -278.2400
   3   2.0000     -10.215736      -277.9843
   4   2.0000      -1.030807       -28.0497
   5   2.0000      -0.799289       -21.7498
   6   2.0000      -0.675001       -18.3677
   7   2.0000      -0.538146       -14.6437
   8   2.0000      -0.500410       -13.6168
   9   2.0000      -0.443712       -12.0740
  10   2.0000      -0.420819       -11.4511
  11   2.0000      -0.395171       -10.7532
  12   2.0000      -0.364275        -9.9124
  13   2.0000      -0.285380        -7.7656
  14   2.0000      -0.257171        -6.9980
  15   0.0000      -0.084421        -2.2972
  16   0.0000       0.025194         0.6856
  17   0.0000       0.059734         1.6254
  18   0.0000       0.091205         2.4818
  19   0.0000       0.114362         3.1119

MULLIKEN ATOMIC CHARGES
-----------------------
   0 C :    0.221835
   1 O :   -0.215201
   2 C :   -0.214689
   3 C :    0.131973
   4 H :   -0.016736
   5 H :    0.048412
   6 H :    0.055131
   7 H :   -0.010724
Sum of atomic charges:   -0.0000000

LOEWDIN ATOMIC CHARGES
----------------------
   0 C :   -0.037807
   1 O :   -0.029441
   2 C :   -0.098845
   3 C :    0.062252
   4 H :   -0.002652
   5 H :    0.066904
   6 H :    0.045720
   7 H :   -0.006131

  Mayer bond orders larger than 0.100000
B(  0-C ,  1-O ) :   2.1362 B(  0-C ,  2-C ) :   1.0745 B(  0-C ,  4-H ) :   0.9192
B(  1-O ,  3-C ) :   0.1105 B(  2-C ,  3-C ) :   1.9210 B(  2-C ,  5-H ) :   0.9305
B(  3-C ,  6-H ) :   0.9419 B(  3-C ,  7-H ) :   0.9420

-----------------------------------------------------------------------------
         ABSORPTION SPECTRUM VIA TRANSITION ELECTRIC DIPOLE MOMENTS
-----------------------------------------------------------------------------
State   Energy    Wavelength  fosc         T2        TX        TY        TZ
        (cm-1)      (nm)                 (au**2)    (au)      (au)      (au)
-----------------------------------------------------------------------------
   1   25329.9    394.8   0.000089997   0.00117   0.00573  -0.01298  -0.03112

FINAL SINGLE POINT ENERGY      -191.643507613818

DIPOLE MOMENT
-------------
                                X             Y             Z
Electronic contribution:     -1.84662      -1.91677      -0.26471
Nuclear contribution   :      2.45863       2.85241       0.27735
                        -----------------------------------------
Total Dipole Moment    :      0.61201       0.93564       0.01264
                        -----------------------------------------
Magnitude (a.u.)       :      1.11809
Magnitude (Debye)      :      2.84197

Rotational constants in cm-1:     0.744952     0.206531     0.162142
Rotational constants in MHz : 22333.086564  6191.633189  4860.897641

                             ****ORCA TERMINATED NORMALLY****
TOTAL RUN TIME: 0 days 0 hours 3 minutes 13 seconds 935 msec
