                         Program Version 5.0.3 -  RELEASE  -
|  1> ! B3LYP cc-pVDZ
|  2> !TightSCF
|  3> %scf
|  4>  ConvForced true
|  5>  convergence tight
|  6>  MaxIter 500
|  7> end
|  8>
|  9> %tddft
| 10>  nroots 1
| 11> end
| 12>
| 13> # 	24631
| 14> * xyz 0 1
| 15> 		C   -0.523199  -0.409020  -0.074447
| 16> 		O   -0.577949  -1.643082   0.031249
| 17> 		C    0.593845   0.461442   0.045824
| 18> 		C    1.839108  -0.171717  -0.011076
| 19> 		H   -1.438669   0.046698   0.090687
| 20> 		H    0.470260   1.507325  -0.009953
| 21> 		H    1.825042  -1.369604  -0.157029
| 22> 		H    2.551993   0.552132   0.057781
| 23> *
| 24>
| 25>                          ****END OF INPUT****

CARTESIAN COORDINATES (ANGSTROEM)
---------------------------------
  C     -0.523199   -0.409020   -0.074447
  O     -0.577949   -1.643082    0.031249
  C      0.593845    0.461442    0.045824
  C      1.839108   -0.171717   -0.011076
  H     -1.438669    0.046698    0.090687
  H      0.470260    1.507325   -0.009953
  H      1.825042   -1.369604   -0.157029
  H      2.551993    0.552132    0.057781

 Total Charge           Charge          ....    0
 Multiplicity           Mult            ....    1
 Number of Electrons    NEL             ....   30
 Basis Dimension        Dim             ....   76

ORBITAL ENERGIES
----------------

  NO   OCC          E(Eh)            E(eV)
   0   2.0000     -19.128582      -520.5152
   1   2.0000     -10.256656      -279.0978
   2   2.0000     -10.226896      -278.2880
   3   2.0000     -10.204366      -277.6749
   4   2.0000      -1.023996       -27.8643
   5   2.0000      -0.799409       -21.7530
   6   2.0000      -0.668271       -18.1846
   7   2.0000      -0.539866       -14.6905
   8   2.0000      -0.523843       -14.2545
   9   2.0000      -0.434651       -11.8275
  10   2.0000      -0.404893       -11.0177
  11   2.0000      -0.398833       -10.8528
  12   2.0000      -0.384625       -10.4662
  13   2.0000      -0.280464        -7.6318
  14   2.0000      -0.246729        -6.7138
  15   0.0000      -0.082284        -2.2391
  16   0.0000       0.052060         1.4166
  17   0.0000       0.071852         1.9552
  18   0.0000       0.078842         2.1454
  19   0.0000       0.128837         3.5058

MULLIKEN ATOMIC CHARGES
-----------------------
   0 C :    0.221142
   1 O :   -0.233369
   2 C :   -0.109267
   3 C :    0.077465
   4 H :   -0.042875
   5 H :   -0.011231
   6 H :    0.090480
   7 H :    0.007654
Sum of atomic charges:    0.0000000

LOEWDIN ATOMIC CHARGES
----------------------
   0 C :   -0.033692
   1 O :   -0.039667
   2 C :   -0.069605
   3 C :    0.052891
   4 H :   -0.014212
   5 H :    0.023527
   6 H :    0.071180
   7 H :    0.009578

  Mayer bond orders larger than 0.100000
B(  0-C ,  1-O ) :   2.1117 B(  0-C ,  2-C ) :   1.1275 B(  0-C ,  4-H ) :   0.9397
B(  1-O ,  3-C ) :   0.1135 B(  2-C ,  3-C ) :   1.8901 B(  2-C ,  5-H ) :   0.9521
B(  3-C ,  6-H ) :   0.9188 B(  3-C ,  7-H ) :   0.9391

-----------------------------------------------------------------------------
         ABSORPTION SPECTRUM VIA TRANSITION ELECTRIC DIPOLE MOMENTS
-----------------------------------------------------------------------------
State   Energy    Wavelength  fosc         T2        TX        TY        TZ
        (cm-1)      (nm)                 (au**2)    (au)      (au)      (au)
-----------------------------------------------------------------------------
   1   23604.3    423.7   0.000153989   0.00215  -0.00046  -0.00758   0.04572

FINAL SINGLE POINT ENERGY      -191.661062989998

DIPOLE MOMENT
-------------
                                X             Y             Z
Electronic contribution:     -1.53815      -1.48913      -0.05918
Nuclear contribution   :      2.03839       2.47964      -0.01721
                        -----------------------------------------
Total Dipole Moment    :      0.50024       0.99051      -0.07639
                        -----------------------------------------
Magnitude (a.u.)       :      1.11229
Magnitude (Debye)      :      2.82722

Rotational constants in cm-1:     0.730856     0.217970     0.168384
Rotational constants in MHz : 21910.526534  6534.562531  5048.020421

                             ****ORCA TERMINATED NORMALLY****
TOTAL RUN TIME: 0 days 0 hours 3 minutes 21 seconds 87 msec
