                         Program Version 5.0.3 -  RELEASE  -
|  1> ! B3LYP cc-pVDZ
|  2> !TightSCF
|  3> %scf
|  4>  ConvForced true
|  5>  convergence tight
|  6>  MaxIter 500
|  7> end
|  8>
|  9> %tddft
| 10>  nroots 1
| 11> end
| 12>
| 13> # 	14863
| 14> * xyz 0 1
| 15> 		C   -1.218587  -0.375767   0.059288
| 16> 		O   -1.310244  -1.419528  -0.411317
| 17> 		C    0.026801   0.519091  -0.061706
| 18> 		C    1.272349   0.057414   0.127634
| 19> 		H   -2.070097   0.116476   0.475815
| 20> 		H   -0.100684   1.566828  -0.632948
| 21> 		H    1.168018  -1.032974   0.377701
| 22> 		H    2.251094   0.514141   0.001279
| 23> *
| 24>
| 25>                          ****END OF INPUT****

CARTESIAN COORDINATES (ANGSTROEM)
---------------------------------
  C     -1.218587   -0.375767    0.059288
  O     -1.310244   -1.419528   -0.411317
  C      0.026801    0.519091   -0.061706
  C      1.272349    0.057414    0.127634
  H     -2.070097    0.116476    0.475815
  H     -0.100684    1.566828   -0.632948
  H      1.168018   -1.032974    0.377701
  H      2.251094    0.514141    0.001279

 Total Charge           Charge          ....    0
 Multiplicity           Mult            ....    1
 Number of Electrons    NEL             ....   30
 Basis Dimension        Dim             ....   76

ORBITAL ENERGIES
----------------

  NO   OCC          E(Eh)            E(eV)
   0   2.0000     -19.148025      -521.0443
   1   2.0000     -10.277194      -279.6567
   2   2.0000     -10.210150      -277.8323
   3   2.0000     -10.205944      -277.7179
   4   2.0000      -1.090899       -29.6849
   5   2.0000      -0.781892       -21.2764
   6   2.0000      -0.645265       -17.5586
   7   2.0000      -0.546450       -14.8697
   8   2.0000      -0.498243       -13.5579
   9   2.0000      -0.456577       -12.4241
  10   2.0000      -0.449680       -12.2364
  11   2.0000      -0.410958       -11.1827
  12   2.0000      -0.360546        -9.8110
  13   2.0000      -0.284972        -7.7545
  14   2.0000      -0.256345        -6.9755
  15   0.0000      -0.043146        -1.1741
  16   0.0000       0.017084         0.4649
  17   0.0000       0.077706         2.1145
  18   0.0000       0.094495         2.5713
  19   0.0000       0.109662         2.9841

MULLIKEN ATOMIC CHARGES
-----------------------
   0 C :    0.196190
   1 O :   -0.127325
   2 C :   -0.187373
   3 C :    0.049999
   4 H :   -0.029565
   5 H :    0.032861
   6 H :    0.030558
   7 H :    0.034655
Sum of atomic charges:   -0.0000000

LOEWDIN ATOMIC CHARGES
----------------------
   0 C :   -0.056308
   1 O :    0.072586
   2 C :   -0.087046
   3 C :   -0.021868
   4 H :   -0.016003
   5 H :    0.043682
   6 H :    0.036275
   7 H :    0.028682

  Mayer bond orders larger than 0.100000
B(  0-C ,  1-O ) :   2.2800 B(  0-C ,  2-C ) :   0.9658 B(  0-C ,  4-H ) :   0.9162
B(  2-C ,  3-C ) :   2.0014 B(  2-C ,  5-H ) :   0.9315 B(  3-C ,  6-H ) :   0.9307
B(  3-C ,  7-H ) :   0.9530

-----------------------------------------------------------------------------
         ABSORPTION SPECTRUM VIA TRANSITION ELECTRIC DIPOLE MOMENTS
-----------------------------------------------------------------------------
State   Energy    Wavelength  fosc         T2        TX        TY        TZ
        (cm-1)      (nm)                 (au**2)    (au)      (au)      (au)
-----------------------------------------------------------------------------
   1   33835.5    295.5   0.000168325   0.00164   0.03724  -0.00375   0.01540

FINAL SINGLE POINT ENERGY      -191.624087689971

DIPOLE MOMENT
-------------
                                X             Y             Z
Electronic contribution:     -2.15294      -1.69436      -0.33262
Nuclear contribution   :      2.41088       2.35676       0.52817
                        -----------------------------------------
Total Dipole Moment    :      0.25794       0.66240       0.19555
                        -----------------------------------------
Magnitude (a.u.)       :      0.73726
Magnitude (Debye)      :      1.87397

Rotational constants in cm-1:     0.843687     0.188636     0.160564
Rotational constants in MHz : 25293.110205  5655.169148  4813.599906

                             ****ORCA TERMINATED NORMALLY****
TOTAL RUN TIME: 0 days 0 hours 2 minutes 42 seconds 649 msec
