                         Program Version 5.0.3 -  RELEASE  -
|  1> ! HF-3c
|  2> !TightSCF
|  3> %scf
|  4>  ConvForced true
|  5>  convergence tight
|  6>  MaxIter 500
|  7> end
|  8>
|  9> %tddft
| 10>  nroots 1
| 11> end
| 12>
| 13> # 	4746
| 14> * xyz 0 1
| 15> 		C   -1.236215  -0.328465  -0.041225
| 16> 		O   -1.464381  -1.260054  -0.727018
| 17> 		C    0.035729   0.489405  -0.164827
| 18> 		C    1.227120   0.008824   0.197427
| 19> 		H   -1.937816  -0.077057   0.827528
| 20> 		H   -0.070821   1.559354  -0.678188
| 21> 		H    1.184460  -1.013368   0.558747
| 22> 		H    2.232876   0.566453   0.015268
| 23> *
| 24>
| 25>                          ****END OF INPUT****

CARTESIAN COORDINATES (ANGSTROEM)
---------------------------------
  C     -1.236215   -0.328465   -0.041225
  O     -1.464381   -1.260054   -0.727018
  C      0.035729    0.489405   -0.164827
  C      1.227120    0.008824    0.197427
  H     -1.937816   -0.077057    0.827528
  H     -0.070821    1.559354   -0.678188
  H      1.184460   -1.013368    0.558747
  H      2.232876    0.566453    0.015268

 Total Charge           Charge          ....    0
 Multiplicity           Mult            ....    1
 Number of Electrons    NEL             ....   30
 Basis Dimension        Dim             ....   24

ORBITAL ENERGIES
----------------

  NO   OCC          E(Eh)            E(eV)
   0   2.0000     -20.384707      -554.6961
   1   2.0000     -11.306199      -307.6573
   2   2.0000     -11.180538      -304.2379
   3   2.0000     -11.172464      -304.0182
   4   2.0000      -1.431288       -38.9473
   5   2.0000      -1.062166       -28.9030
   6   2.0000      -0.865093       -23.5404
   7   2.0000      -0.743070       -20.2200
   8   2.0000      -0.680328       -18.5127
   9   2.0000      -0.621954       -16.9242
  10   2.0000      -0.601152       -16.3582
  11   2.0000      -0.539937       -14.6924
  12   2.0000      -0.506194       -13.7742
  13   2.0000      -0.404692       -11.0122
  14   2.0000      -0.395266       -10.7557
  15   0.0000       0.189404         5.1540
  16   0.0000       0.233680         6.3588
  17   0.0000       0.521654        14.1949
  18   0.0000       0.552639        15.0381
  19   0.0000       0.609992        16.5987

MULLIKEN ATOMIC CHARGES
-----------------------
   0 C :    0.178835
   1 O :   -0.350399
   2 C :   -0.153544
   3 C :   -0.244605
   4 H :    0.136910
   5 H :    0.144813
   6 H :    0.139060
   7 H :    0.148929
Sum of atomic charges:   -0.0000000

LOEWDIN ATOMIC CHARGES
----------------------
   0 C :    0.149275
   1 O :   -0.242944
   2 C :   -0.119163
   3 C :   -0.158894
   4 H :    0.075514
   5 H :    0.101562
   6 H :    0.090070
   7 H :    0.104581

  Mayer bond orders larger than 0.100000
B(  0-C ,  1-O ) :   1.9518 B(  0-C ,  2-C ) :   0.9761 B(  0-C ,  4-H ) :   0.9115
B(  2-C ,  3-C ) :   2.0003 B(  2-C ,  5-H ) :   0.9470 B(  3-C ,  6-H ) :   0.9633
B(  3-C ,  7-H ) :   0.9594

-----------------------------------------------------------------------------
         ABSORPTION SPECTRUM VIA TRANSITION ELECTRIC DIPOLE MOMENTS
-----------------------------------------------------------------------------
State   Energy    Wavelength  fosc         T2        TX        TY        TZ
        (cm-1)      (nm)                 (au**2)    (au)      (au)      (au)
-----------------------------------------------------------------------------
   1   36250.4    275.9   0.000044017   0.00040   0.01787  -0.00840  -0.00312

Dispersion correction           -0.024874678
FINAL SINGLE POINT ENERGY      -189.306229744573

DIPOLE MOMENT
-------------
                                X             Y             Z
Electronic contribution:     -2.42268      -1.35052      -0.91818
Nuclear contribution   :      2.75743       2.10030       1.40749
                        -----------------------------------------
Total Dipole Moment    :      0.33476       0.74978       0.48930
                        -----------------------------------------
Magnitude (a.u.)       :      0.95585
Magnitude (Debye)      :      2.42957

Rotational constants in cm-1:     0.876907     0.177907     0.160901
Rotational constants in MHz : 26289.012116  5333.527620  4823.700154

                             ****ORCA TERMINATED NORMALLY****
TOTAL RUN TIME: 0 days 0 hours 0 minutes 11 seconds 781 msec
