                         Program Version 5.0.3 -  RELEASE  -
|  1> ! B3LYP cc-pVDZ
|  2> !TightSCF
|  3> %scf
|  4>  ConvForced true
|  5>  convergence tight
|  6>  MaxIter 500
|  7> end
|  8>
|  9> %tddft
| 10>  nroots 1
| 11> end
| 12>
| 13> # 	15075
| 14> * xyz 0 1
| 15> 		C   -1.168874  -0.345090   0.120388
| 16> 		O   -2.070054  -0.359605   0.829226
| 17> 		C    0.031494   0.498446   0.308850
| 18> 		C    1.162148   0.113154  -0.292615
| 19> 		H   -1.239859  -1.145566  -0.881601
| 20> 		H   -0.029223   1.374159   1.017755
| 21> 		H    1.252130  -0.760458  -0.976194
| 22> 		H    2.118773   0.658189  -0.182207
| 23> *
| 24>
| 25>                          ****END OF INPUT****

CARTESIAN COORDINATES (ANGSTROEM)
---------------------------------
  C     -1.168874   -0.345090    0.120388
  O     -2.070054   -0.359605    0.829226
  C      0.031494    0.498446    0.308850
  C      1.162148    0.113154   -0.292615
  H     -1.239859   -1.145566   -0.881601
  H     -0.029223    1.374159    1.017755
  H      1.252130   -0.760458   -0.976194
  H      2.118773    0.658189   -0.182207

 Total Charge           Charge          ....    0
 Multiplicity           Mult            ....    1
 Number of Electrons    NEL             ....   30
 Basis Dimension        Dim             ....   76

ORBITAL ENERGIES
----------------

  NO   OCC          E(Eh)            E(eV)
   0   2.0000     -19.140525      -520.8402
   1   2.0000     -10.281355      -279.7699
   2   2.0000     -10.220484      -278.1135
   3   2.0000     -10.214465      -277.9497
   4   2.0000      -1.086623       -29.5685
   5   2.0000      -0.800272       -21.7765
   6   2.0000      -0.635509       -17.2931
   7   2.0000      -0.550326       -14.9751
   8   2.0000      -0.478745       -13.0273
   9   2.0000      -0.473438       -12.8829
  10   2.0000      -0.429679       -11.6922
  11   2.0000      -0.411731       -11.2038
  12   2.0000      -0.389106       -10.5881
  13   2.0000      -0.296138        -8.0583
  14   2.0000      -0.251296        -6.8381
  15   0.0000      -0.053906        -1.4668
  16   0.0000       0.046482         1.2648
  17   0.0000       0.064508         1.7554
  18   0.0000       0.079149         2.1537
  19   0.0000       0.102352         2.7851

MULLIKEN ATOMIC CHARGES
-----------------------
   0 C :    0.111408
   1 O :   -0.126072
   2 C :   -0.074928
   3 C :    0.030667
   4 H :   -0.039575
   5 H :    0.023489
   6 H :    0.037693
   7 H :    0.037316
Sum of atomic charges:    0.0000000

LOEWDIN ATOMIC CHARGES
----------------------
   0 C :   -0.090341
   1 O :    0.061880
   2 C :   -0.067386
   3 C :    0.001269
   4 H :   -0.018258
   5 H :    0.044585
   6 H :    0.034627
   7 H :    0.033624

  Mayer bond orders larger than 0.100000
B(  0-C ,  1-O ) :   2.2483 B(  0-C ,  2-C ) :   1.0235 B(  0-C ,  4-H ) :   0.8750
B(  2-C ,  3-C ) :   1.9431 B(  2-C ,  5-H ) :   0.9417 B(  3-C ,  6-H ) :   0.9446
B(  3-C ,  7-H ) :   0.9441

-----------------------------------------------------------------------------
         ABSORPTION SPECTRUM VIA TRANSITION ELECTRIC DIPOLE MOMENTS
-----------------------------------------------------------------------------
State   Energy    Wavelength  fosc         T2        TX        TY        TZ
        (cm-1)      (nm)                 (au**2)    (au)      (au)      (au)
-----------------------------------------------------------------------------
   1   31315.9    319.3   0.000325199   0.00342  -0.05516   0.01860  -0.00553

FINAL SINGLE POINT ENERGY      -191.648532951950

DIPOLE MOMENT
-------------
                                X             Y             Z
Electronic contribution:     -3.07941      -0.06112       1.52847
Nuclear contribution   :      4.00448       0.27615      -1.87934
                        -----------------------------------------
Total Dipole Moment    :      0.92508       0.21503      -0.35087
                        -----------------------------------------
Magnitude (a.u.)       :      1.01248
Magnitude (Debye)      :      2.57351

Rotational constants in cm-1:     1.393718     0.161797     0.146805
Rotational constants in MHz : 41782.607658  4850.564401  4401.095034

                             ****ORCA TERMINATED NORMALLY****
TOTAL RUN TIME: 0 days 0 hours 3 minutes 27 seconds 858 msec
