                         Program Version 5.0.3 -  RELEASE  -
|  1> ! B3LYP cc-pVDZ
|  2> !TightSCF
|  3> %scf
|  4>  ConvForced true
|  5>  convergence tight
|  6>  MaxIter 500
|  7> end
|  8>
|  9> %tddft
| 10>  nroots 1
| 11> end
| 12>
| 13> # 	23052
| 14> * xyz 0 1
| 15> 		C   -0.580078  -0.429714  -0.052420
| 16> 		O   -0.592300  -1.670507   0.027082
| 17> 		C    0.588575   0.446409   0.035914
| 18> 		C    1.883321  -0.115737  -0.006527
| 19> 		H   -1.557829   0.083300  -0.057905
| 20> 		H    0.568393   1.537290   0.074635
| 21> 		H    1.989466  -1.182351  -0.140733
| 22> 		H    2.832665   0.499848  -0.026051
| 23> *
| 24>
| 25>                          ****END OF INPUT****

CARTESIAN COORDINATES (ANGSTROEM)
---------------------------------
  C     -0.580078   -0.429714   -0.052420
  O     -0.592300   -1.670507    0.027082
  C      0.588575    0.446409    0.035914
  C      1.883321   -0.115737   -0.006527
  H     -1.557829    0.083300   -0.057905
  H      0.568393    1.537290    0.074635
  H      1.989466   -1.182351   -0.140733
  H      2.832665    0.499848   -0.026051

 Total Charge           Charge          ....    0
 Multiplicity           Mult            ....    1
 Number of Electrons    NEL             ....   30
 Basis Dimension        Dim             ....   76

ORBITAL ENERGIES
----------------

  NO   OCC          E(Eh)            E(eV)
   0   2.0000     -19.135675      -520.7082
   1   2.0000     -10.275911      -279.6218
   2   2.0000     -10.228793      -278.3396
   3   2.0000     -10.216551      -278.0065
   4   2.0000      -1.025852       -27.9149
   5   2.0000      -0.785494       -21.3744
   6   2.0000      -0.658659       -17.9230
   7   2.0000      -0.548005       -14.9120
   8   2.0000      -0.505371       -13.7518
   9   2.0000      -0.438550       -11.9335
  10   2.0000      -0.414270       -11.2728
  11   2.0000      -0.388141       -10.5619
  12   2.0000      -0.386779       -10.5248
  13   2.0000      -0.279570        -7.6075
  14   2.0000      -0.254598        -6.9280
  15   0.0000      -0.082485        -2.2445
  16   0.0000       0.049089         1.3358
  17   0.0000       0.064824         1.7640
  18   0.0000       0.093199         2.5361
  19   0.0000       0.120073         3.2673

MULLIKEN ATOMIC CHARGES
-----------------------
   0 C :    0.206979
   1 O :   -0.221526
   2 C :   -0.107002
   3 C :    0.038213
   4 H :   -0.014412
   5 H :    0.001852
   6 H :    0.044928
   7 H :    0.050969
Sum of atomic charges:    0.0000000

LOEWDIN ATOMIC CHARGES
----------------------
   0 C :   -0.024050
   1 O :   -0.039149
   2 C :   -0.078300
   3 C :    0.046196
   4 H :   -0.002863
   5 H :    0.031243
   6 H :    0.027447
   7 H :    0.039477

  Mayer bond orders larger than 0.100000
B(  0-C ,  1-O ) :   2.1369 B(  0-C ,  2-C ) :   1.0669 B(  0-C ,  4-H ) :   0.9275
B(  1-O ,  3-C ) :   0.1055 B(  2-C ,  3-C ) :   1.9090 B(  2-C ,  5-H ) :   0.9497
B(  3-C ,  6-H ) :   0.9446 B(  3-C ,  7-H ) :   0.9508

-----------------------------------------------------------------------------
         ABSORPTION SPECTRUM VIA TRANSITION ELECTRIC DIPOLE MOMENTS
-----------------------------------------------------------------------------
State   Energy    Wavelength  fosc         T2        TX        TY        TZ
        (cm-1)      (nm)                 (au**2)    (au)      (au)      (au)
-----------------------------------------------------------------------------
   1   25276.6    395.6   0.000040606   0.00053   0.01097   0.00187  -0.02013

FINAL SINGLE POINT ENERGY      -191.685006657654

DIPOLE MOMENT
-------------
                                X             Y             Z
Electronic contribution:     -1.92747      -1.70085       0.06960
Nuclear contribution   :      2.43721       2.66780      -0.14074
                        -----------------------------------------
Total Dipole Moment    :      0.50974       0.96694      -0.07113
                        -----------------------------------------
Magnitude (a.u.)       :      1.09539
Magnitude (Debye)      :      2.78425

Rotational constants in cm-1:     0.728841     0.201668     0.158229
Rotational constants in MHz : 21850.089697  6045.852650  4743.576140

                             ****ORCA TERMINATED NORMALLY****
TOTAL RUN TIME: 0 days 0 hours 2 minutes 51 seconds 518 msec
