                         Program Version 5.0.3 -  RELEASE  -
|  1> ! B3LYP cc-pVDZ
|  2> !TightSCF
|  3> %scf
|  4>  ConvForced true
|  5>  convergence tight
|  6>  MaxIter 500
|  7> end
|  8>
|  9> %tddft
| 10>  nroots 1
| 11> end
| 12>
| 13> # 	3532
| 14> * xyz 0 1
| 15> 		C   -1.224353  -0.355403   0.012940
| 16> 		O   -1.660288  -1.036804  -0.855276
| 17> 		C    0.048019   0.535533  -0.185463
| 18> 		C    1.206725   0.087296   0.205837
| 19> 		H   -1.715152  -0.265565   0.957972
| 20> 		H   -0.275131   1.265560  -0.768710
| 21> 		H    1.337789  -0.899452   0.492806
| 22> 		H    2.289828   0.635169   0.075132
| 23> *
| 24>
| 25>                          ****END OF INPUT****

CARTESIAN COORDINATES (ANGSTROEM)
---------------------------------
  C     -1.224353   -0.355403    0.012940
  O     -1.660288   -1.036804   -0.855276
  C      0.048019    0.535533   -0.185463
  C      1.206725    0.087296    0.205837
  H     -1.715152   -0.265565    0.957972
  H     -0.275131    1.265560   -0.768710
  H      1.337789   -0.899452    0.492806
  H      2.289828    0.635169    0.075132

 Total Charge           Charge          ....    0
 Multiplicity           Mult            ....    1
 Number of Electrons    NEL             ....   30
 Basis Dimension        Dim             ....   76

ORBITAL ENERGIES
----------------

  NO   OCC          E(Eh)            E(eV)
   0   2.0000     -19.146886      -521.0133
   1   2.0000     -10.277232      -279.6577
   2   2.0000     -10.206857      -277.7427
   3   2.0000     -10.196239      -277.4538
   4   2.0000      -1.066184       -29.0123
   5   2.0000      -0.795245       -21.6397
   6   2.0000      -0.645257       -17.5583
   7   2.0000      -0.577687       -15.7197
   8   2.0000      -0.483564       -13.1584
   9   2.0000      -0.472400       -12.8546
  10   2.0000      -0.447794       -12.1851
  11   2.0000      -0.389657       -10.6031
  12   2.0000      -0.377640       -10.2761
  13   2.0000      -0.291522        -7.9327
  14   2.0000      -0.248902        -6.7730
  15   0.0000      -0.032414        -0.8820
  16   0.0000      -0.000916        -0.0249
  17   0.0000       0.075350         2.0504
  18   0.0000       0.106171         2.8891
  19   0.0000       0.108594         2.9550

MULLIKEN ATOMIC CHARGES
-----------------------
   0 C :    0.145611
   1 O :   -0.163959
   2 C :   -0.007805
   3 C :    0.014875
   4 H :   -0.014497
   5 H :   -0.031141
   6 H :    0.012244
   7 H :    0.044671
Sum of atomic charges:    0.0000000

LOEWDIN ATOMIC CHARGES
----------------------
   0 C :   -0.010684
   1 O :    0.031103
   2 C :   -0.036723
   3 C :   -0.034131
   4 H :   -0.014763
   5 H :    0.003770
   6 H :    0.015009
   7 H :    0.046419

  Mayer bond orders larger than 0.100000
B(  0-C ,  1-O ) :   2.2495 B(  0-C ,  2-C ) :   0.9529 B(  0-C ,  4-H ) :   0.9168
B(  2-C ,  3-C ) :   2.0332 B(  2-C ,  5-H ) :   0.9589 B(  3-C ,  6-H ) :   0.9366
B(  3-C ,  7-H ) :   0.9464

-----------------------------------------------------------------------------
         ABSORPTION SPECTRUM VIA TRANSITION ELECTRIC DIPOLE MOMENTS
-----------------------------------------------------------------------------
State   Energy    Wavelength  fosc         T2        TX        TY        TZ
        (cm-1)      (nm)                 (au**2)    (au)      (au)      (au)
-----------------------------------------------------------------------------
   1   33017.5    302.9   0.000334205   0.00333  -0.05161   0.00120  -0.02583

FINAL SINGLE POINT ENERGY      -191.612922437692

DIPOLE MOMENT
-------------
                                X             Y             Z
Electronic contribution:     -2.79327      -1.07156      -1.05303
Nuclear contribution   :      3.16114       1.52391       1.53909
                        -----------------------------------------
Total Dipole Moment    :      0.36787       0.45235       0.48606
                        -----------------------------------------
Magnitude (a.u.)       :      0.75908
Magnitude (Debye)      :      1.92943

Rotational constants in cm-1:     1.033598     0.163862     0.158053
Rotational constants in MHz : 30986.486782  4912.447086  4738.316526

                             ****ORCA TERMINATED NORMALLY****
TOTAL RUN TIME: 0 days 0 hours 3 minutes 21 seconds 901 msec
