                         Program Version 5.0.3 -  RELEASE  -
|  1> ! HF-3c
|  2> !TightSCF
|  3> %scf
|  4>  ConvForced true
|  5>  convergence tight
|  6>  MaxIter 500
|  7> end
|  8>
|  9> %tddft
| 10>  nroots 1
| 11> end
| 12>
| 13> # 	16734
| 14> * xyz 0 1
| 15> 		C   -1.212393  -0.304601  -0.014044
| 16> 		O   -1.920159  -0.848204  -0.891784
| 17> 		C    0.074669   0.466240  -0.300235
| 18> 		C    1.176799   0.064417   0.203956
| 19> 		H   -1.412466  -0.609361   1.061235
| 20> 		H   -0.022908   1.323150  -1.048330
| 21> 		H    1.241604  -0.668170   0.850448
| 22> 		H    2.031242   0.578972   0.059197
| 23> *
| 24>
| 25>                          ****END OF INPUT****

CARTESIAN COORDINATES (ANGSTROEM)
---------------------------------
  C     -1.212393   -0.304601   -0.014044
  O     -1.920159   -0.848204   -0.891784
  C      0.074669    0.466240   -0.300235
  C      1.176799    0.064417    0.203956
  H     -1.412466   -0.609361    1.061235
  H     -0.022908    1.323150   -1.048330
  H      1.241604   -0.668170    0.850448
  H      2.031242    0.578972    0.059197

 Total Charge           Charge          ....    0
 Multiplicity           Mult            ....    1
 Number of Electrons    NEL             ....   30
 Basis Dimension        Dim             ....   24

ORBITAL ENERGIES
----------------

  NO   OCC          E(Eh)            E(eV)
   0   2.0000     -20.365259      -554.1669
   1   2.0000     -11.289764      -307.2101
   2   2.0000     -11.211018      -305.0673
   3   2.0000     -11.195808      -304.6534
   4   2.0000      -1.376593       -37.4590
   5   2.0000      -1.109556       -30.1926
   6   2.0000      -0.887100       -24.1392
   7   2.0000      -0.779977       -21.2242
   8   2.0000      -0.681696       -18.5499
   9   2.0000      -0.662693       -18.0328
  10   2.0000      -0.592574       -16.1248
  11   2.0000      -0.555622       -15.1192
  12   2.0000      -0.504377       -13.7248
  13   2.0000      -0.423089       -11.5128
  14   2.0000      -0.413343       -11.2476
  15   0.0000       0.150298         4.0898
  16   0.0000       0.255689         6.9577
  17   0.0000       0.528305        14.3759
  18   0.0000       0.570929        15.5358
  19   0.0000       0.680442        18.5158

MULLIKEN ATOMIC CHARGES
-----------------------
   0 C :    0.161730
   1 O :   -0.337622
   2 C :   -0.136339
   3 C :   -0.290002
   4 H :    0.142137
   5 H :    0.163191
   6 H :    0.145314
   7 H :    0.151590
Sum of atomic charges:   -0.0000000

LOEWDIN ATOMIC CHARGES
----------------------
   0 C :    0.147575
   1 O :   -0.253458
   2 C :   -0.087339
   3 C :   -0.181028
   4 H :    0.081823
   5 H :    0.111227
   6 H :    0.086972
   7 H :    0.094229

  Mayer bond orders larger than 0.100000
B(  0-C ,  1-O ) :   1.9387 B(  0-C ,  2-C ) :   0.9872 B(  0-C ,  4-H ) :   0.9248
B(  2-C ,  3-C ) :   1.9951 B(  2-C ,  5-H ) :   0.9472 B(  3-C ,  6-H ) :   0.9635
B(  3-C ,  7-H ) :   0.9599

-----------------------------------------------------------------------------
         ABSORPTION SPECTRUM VIA TRANSITION ELECTRIC DIPOLE MOMENTS
-----------------------------------------------------------------------------
State   Energy    Wavelength  fosc         T2        TX        TY        TZ
        (cm-1)      (nm)                 (au**2)    (au)      (au)      (au)
-----------------------------------------------------------------------------
   1   31347.7    319.0   0.000110294   0.00116   0.01668   0.01587  -0.02507

Dispersion correction           -0.025338642
FINAL SINGLE POINT ENERGY      -189.323105138242

DIPOLE MOMENT
-------------
                                X             Y             Z
Electronic contribution:     -2.96985      -0.79300      -1.21286
Nuclear contribution   :      3.60389       1.26060       1.83767
                        -----------------------------------------
Total Dipole Moment    :      0.63404       0.46760       0.62481
                        -----------------------------------------
Magnitude (a.u.)       :      1.00550
Magnitude (Debye)      :      2.55579

Rotational constants in cm-1:     1.190392     0.157375     0.150946
Rotational constants in MHz : 35687.044093  4717.994833  4525.250688

                             ****ORCA TERMINATED NORMALLY****
TOTAL RUN TIME: 0 days 0 hours 0 minutes 10 seconds 957 msec
