                         Program Version 5.0.3 -  RELEASE  -
|  1> ! HF-3c
|  2> !TightSCF
|  3> %scf
|  4>  ConvForced true
|  5>  convergence tight
|  6>  MaxIter 500
|  7> end
|  8>
|  9> %tddft
| 10>  nroots 1
| 11> end
| 12>
| 13> # 	20041
| 14> * xyz 0 1
| 15> 		C   -0.612280  -0.442147  -0.034212
| 16> 		O   -0.557422  -1.579286   0.012045
| 17> 		C    0.644693   0.362319   0.040635
| 18> 		C    1.836267  -0.131194  -0.037053
| 19> 		H   -1.732053   0.125353  -0.023594
| 20> 		H    0.483141   1.450521   0.034787
| 21> 		H    2.066890  -1.110030   0.159883
| 22> 		H    2.687343   0.390795   0.002791
| 23> *
| 24>
| 25>                          ****END OF INPUT****

CARTESIAN COORDINATES (ANGSTROEM)
---------------------------------
  C     -0.612280   -0.442147   -0.034212
  O     -0.557422   -1.579286    0.012045
  C      0.644693    0.362319    0.040635
  C      1.836267   -0.131194   -0.037053
  H     -1.732053    0.125353   -0.023594
  H      0.483141    1.450521    0.034787
  H      2.066890   -1.110030    0.159883
  H      2.687343    0.390795    0.002791

 Total Charge           Charge          ....    0
 Multiplicity           Mult            ....    1
 Number of Electrons    NEL             ....   30
 Basis Dimension        Dim             ....   24

ORBITAL ENERGIES
----------------

  NO   OCC          E(Eh)            E(eV)
   0   2.0000     -20.388382      -554.7961
   1   2.0000     -11.313804      -307.8643
   2   2.0000     -11.195900      -304.6559
   3   2.0000     -11.192563      -304.5651
   4   2.0000      -1.461481       -39.7689
   5   2.0000      -1.092137       -29.7185
   6   2.0000      -0.890658       -24.2360
   7   2.0000      -0.748487       -20.3674
   8   2.0000      -0.714535       -19.4435
   9   2.0000      -0.639721       -17.4077
  10   2.0000      -0.614031       -16.7086
  11   2.0000      -0.576225       -15.6799
  12   2.0000      -0.534391       -14.5415
  13   2.0000      -0.413967       -11.2646
  14   2.0000      -0.399354       -10.8670
  15   0.0000       0.146035         3.9738
  16   0.0000       0.324312         8.8250
  17   0.0000       0.459416        12.5013
  18   0.0000       0.625079        17.0093
  19   0.0000       0.656468        17.8634

MULLIKEN ATOMIC CHARGES
-----------------------
   0 C :    0.202744
   1 O :   -0.364764
   2 C :   -0.158077
   3 C :   -0.258651
   4 H :    0.132833
   5 H :    0.141626
   6 H :    0.157426
   7 H :    0.146862
Sum of atomic charges:   -0.0000000

LOEWDIN ATOMIC CHARGES
----------------------
   0 C :    0.147273
   1 O :   -0.242603
   2 C :   -0.113729
   3 C :   -0.148528
   4 H :    0.079490
   5 H :    0.090301
   6 H :    0.098510
   7 H :    0.089287

  Mayer bond orders larger than 0.100000
B(  0-C ,  1-O ) :   1.9321 B(  0-C ,  2-C ) :   0.9916 B(  0-C ,  4-H ) :   0.8977
B(  2-C ,  3-C ) :   1.9737 B(  2-C ,  5-H ) :   0.9578 B(  3-C ,  6-H ) :   0.9589
B(  3-C ,  7-H ) :   0.9638

-----------------------------------------------------------------------------
         ABSORPTION SPECTRUM VIA TRANSITION ELECTRIC DIPOLE MOMENTS
-----------------------------------------------------------------------------
State   Energy    Wavelength  fosc         T2        TX        TY        TZ
        (cm-1)      (nm)                 (au**2)    (au)      (au)      (au)
-----------------------------------------------------------------------------
   1   35977.7    277.9   0.000311602   0.00285   0.05319  -0.00248  -0.00396

Dispersion correction           -0.025782026
FINAL SINGLE POINT ENERGY      -189.289093444446

DIPOLE MOMENT
-------------
                                X             Y             Z
Electronic contribution:     -2.02199      -1.70994      -0.14157
Nuclear contribution   :      2.13394       2.59056       0.16329
                        -----------------------------------------
Total Dipole Moment    :      0.11195       0.88061       0.02172
                        -----------------------------------------
Magnitude (a.u.)       :      0.88797
Magnitude (Debye)      :      2.25704

Rotational constants in cm-1:     0.809529     0.214527     0.169860
Rotational constants in MHz : 24269.077255  6431.350992  5092.280332

                             ****ORCA TERMINATED NORMALLY****
TOTAL RUN TIME: 0 days 0 hours 0 minutes 10 seconds 990 msec
