                         Program Version 5.0.3 -  RELEASE  -
|  1> ! B3LYP cc-pVDZ
|  2> !TightSCF
|  3> %scf
|  4>  ConvForced true
|  5>  convergence tight
|  6>  MaxIter 500
|  7> end
|  8>
|  9> %tddft
| 10>  nroots 1
| 11> end
| 12>
| 13> # 	17166
| 14> * xyz 0 1
| 15> 		C   -1.163036  -0.366462  -0.007200
| 16> 		O   -1.425567  -1.356737  -0.531216
| 17> 		C   -0.014261   0.532930  -0.121694
| 18> 		C    1.243886   0.022955   0.099449
| 19> 		H   -1.948673   0.047830   0.714952
| 20> 		H   -0.166918   1.584229  -0.437040
| 21> 		H    1.330505  -1.016617   0.322306
| 22> 		H    2.109060   0.570704  -0.070418
| 23> *
| 24>
| 25>                          ****END OF INPUT****

CARTESIAN COORDINATES (ANGSTROEM)
---------------------------------
  C     -1.163036   -0.366462   -0.007200
  O     -1.425567   -1.356737   -0.531216
  C     -0.014261    0.532930   -0.121694
  C      1.243886    0.022955    0.099449
  H     -1.948673    0.047830    0.714952
  H     -0.166918    1.584229   -0.437040
  H      1.330505   -1.016617    0.322306
  H      2.109060    0.570704   -0.070418

 Total Charge           Charge          ....    0
 Multiplicity           Mult            ....    1
 Number of Electrons    NEL             ....   30
 Basis Dimension        Dim             ....   76

ORBITAL ENERGIES
----------------

  NO   OCC          E(Eh)            E(eV)
   0   2.0000     -19.143462      -520.9201
   1   2.0000     -10.274658      -279.5877
   2   2.0000     -10.211379      -277.8658
   3   2.0000     -10.206695      -277.7383
   4   2.0000      -1.084988       -29.5240
   5   2.0000      -0.793953       -21.6046
   6   2.0000      -0.657216       -17.8838
   7   2.0000      -0.544960       -14.8291
   8   2.0000      -0.508948       -13.8492
   9   2.0000      -0.455264       -12.3884
  10   2.0000      -0.451123       -12.2757
  11   2.0000      -0.405922       -11.0457
  12   2.0000      -0.392483       -10.6800
  13   2.0000      -0.283672        -7.7191
  14   2.0000      -0.251005        -6.8302
  15   0.0000      -0.046321        -1.2605
  16   0.0000       0.015667         0.4263
  17   0.0000       0.082507         2.2451
  18   0.0000       0.097821         2.6618
  19   0.0000       0.111307         3.0288

MULLIKEN ATOMIC CHARGES
-----------------------
   0 C :    0.163968
   1 O :   -0.127082
   2 C :   -0.127277
   3 C :    0.077857
   4 H :   -0.046913
   5 H :    0.021863
   6 H :    0.021818
   7 H :    0.015766
Sum of atomic charges:    0.0000000

LOEWDIN ATOMIC CHARGES
----------------------
   0 C :   -0.076682
   1 O :    0.066005
   2 C :   -0.059145
   3 C :    0.009309
   4 H :   -0.020519
   5 H :    0.040303
   6 H :    0.025074
   7 H :    0.015655

  Mayer bond orders larger than 0.100000
B(  0-C ,  1-O ) :   2.2948 B(  0-C ,  2-C ) :   1.0020 B(  0-C ,  4-H ) :   0.8934
B(  2-C ,  3-C ) :   1.9983 B(  2-C ,  5-H ) :   0.9414 B(  3-C ,  6-H ) :   0.9480
B(  3-C ,  7-H ) :   0.9532

-----------------------------------------------------------------------------
         ABSORPTION SPECTRUM VIA TRANSITION ELECTRIC DIPOLE MOMENTS
-----------------------------------------------------------------------------
State   Energy    Wavelength  fosc         T2        TX        TY        TZ
        (cm-1)      (nm)                 (au**2)    (au)      (au)      (au)
-----------------------------------------------------------------------------
   1   32512.6    307.6   0.002915757   0.02952  -0.17177   0.00410   0.00184

FINAL SINGLE POINT ENERGY      -191.639508413747

DIPOLE MOMENT
-------------
                                X             Y             Z
Electronic contribution:     -2.10883      -1.61289      -0.81833
Nuclear contribution   :      2.61028       2.31818       1.04820
                        -----------------------------------------
Total Dipole Moment    :      0.50145       0.70529       0.22987
                        -----------------------------------------
Magnitude (a.u.)       :      0.89539
Magnitude (Debye)      :      2.27591

Rotational constants in cm-1:     0.873983     0.187435     0.161841
Rotational constants in MHz : 26201.357776  5619.149295  4851.867705

                             ****ORCA TERMINATED NORMALLY****
TOTAL RUN TIME: 0 days 0 hours 3 minutes 10 seconds 91 msec
