                         Program Version 5.0.3 -  RELEASE  -
|  1> ! B3LYP cc-pVDZ
|  2> !TightSCF
|  3> %scf
|  4>  ConvForced true
|  5>  convergence tight
|  6>  MaxIter 500
|  7> end
|  8>
|  9> %tddft
| 10>  nroots 1
| 11> end
| 12>
| 13> # 	16239
| 14> * xyz 0 1
| 15> 		C   -1.168304  -0.352148  -0.034835
| 16> 		O   -2.162780  -0.286037  -0.751994
| 17> 		C    0.101646   0.369050  -0.438827
| 18> 		C    1.161997   0.118700   0.314151
| 19> 		H   -1.027400  -1.096857   0.721792
| 20> 		H   -0.021986   1.204060  -1.058400
| 21> 		H    1.317206  -0.637288   1.087277
| 22> 		H    1.853678   0.689388   0.099614
| 23> *
| 24>
| 25>                          ****END OF INPUT****

CARTESIAN COORDINATES (ANGSTROEM)
---------------------------------
  C     -1.168304   -0.352148   -0.034835
  O     -2.162780   -0.286037   -0.751994
  C      0.101646    0.369050   -0.438827
  C      1.161997    0.118700    0.314151
  H     -1.027400   -1.096857    0.721792
  H     -0.021986    1.204060   -1.058400
  H      1.317206   -0.637288    1.087277
  H      1.853678    0.689388    0.099614

 Total Charge           Charge          ....    0
 Multiplicity           Mult            ....    1
 Number of Electrons    NEL             ....   30
 Basis Dimension        Dim             ....   76

ORBITAL ENERGIES
----------------

  NO   OCC          E(Eh)            E(eV)
   0   2.0000     -19.135376      -520.7000
   1   2.0000     -10.270314      -279.4694
   2   2.0000     -10.201651      -277.6010
   3   2.0000     -10.197820      -277.4968
   4   2.0000      -1.033376       -28.1196
   5   2.0000      -0.811090       -22.0709
   6   2.0000      -0.653945       -17.7947
   7   2.0000      -0.582124       -15.8404
   8   2.0000      -0.486048       -13.2260
   9   2.0000      -0.471413       -12.8278
  10   2.0000      -0.421577       -11.4717
  11   2.0000      -0.398242       -10.8367
  12   2.0000      -0.389850       -10.6084
  13   2.0000      -0.293333        -7.9820
  14   2.0000      -0.249734        -6.7956
  15   0.0000      -0.061837        -1.6827
  16   0.0000       0.035350         0.9619
  17   0.0000       0.077376         2.1055
  18   0.0000       0.092573         2.5190
  19   0.0000       0.122114         3.3229

MULLIKEN ATOMIC CHARGES
-----------------------
   0 C :    0.189096
   1 O :   -0.213443
   2 C :   -0.091701
   3 C :    0.168539
   4 H :   -0.024502
   5 H :   -0.009345
   6 H :    0.029320
   7 H :   -0.047963
Sum of atomic charges:    0.0000000

LOEWDIN ATOMIC CHARGES
----------------------
   0 C :   -0.017330
   1 O :   -0.018461
   2 C :   -0.028691
   3 C :    0.033598
   4 H :   -0.009411
   5 H :    0.024217
   6 H :    0.037046
   7 H :   -0.020967

  Mayer bond orders larger than 0.100000
B(  0-C ,  1-O ) :   2.1402 B(  0-C ,  2-C ) :   1.0789 B(  0-C ,  4-H ) :   0.9273
B(  2-C ,  3-C ) :   1.9336 B(  2-C ,  5-H ) :   0.9505 B(  3-C ,  6-H ) :   0.9537
B(  3-C ,  7-H ) :   0.9168

-----------------------------------------------------------------------------
         ABSORPTION SPECTRUM VIA TRANSITION ELECTRIC DIPOLE MOMENTS
-----------------------------------------------------------------------------
State   Energy    Wavelength  fosc         T2        TX        TY        TZ
        (cm-1)      (nm)                 (au**2)    (au)      (au)      (au)
-----------------------------------------------------------------------------
   1   27991.9    357.2   0.000222215   0.00261  -0.00798  -0.04233   0.02753

FINAL SINGLE POINT ENERGY      -191.640056798906

DIPOLE MOMENT
-------------
                                X             Y             Z
Electronic contribution:     -3.02970      -0.23983      -1.13370
Nuclear contribution   :      4.06297       0.33251       1.66624
                        -----------------------------------------
Total Dipole Moment    :      1.03327       0.09269       0.53254
                        -----------------------------------------
Magnitude (a.u.)       :      1.16612
Magnitude (Debye)      :      2.96403

Rotational constants in cm-1:     1.480993     0.159717     0.144632
Rotational constants in MHz : 44399.040690  4788.206408  4335.967794

                             ****ORCA TERMINATED NORMALLY****
TOTAL RUN TIME: 0 days 0 hours 3 minutes 18 seconds 540 msec
