                         Program Version 5.0.3 -  RELEASE  -
|  1> ! HF-3c
|  2> !TightSCF
|  3> %scf
|  4>  ConvForced true
|  5>  convergence tight
|  6>  MaxIter 500
|  7> end
|  8>
|  9> %tddft
| 10>  nroots 1
| 11> end
| 12>
| 13> # 	5355
| 14> * xyz 0 1
| 15> 		C   -1.200574  -0.351334  -0.033984
| 16> 		O   -1.877268  -0.969424  -0.948354
| 17> 		C    0.116882   0.319873  -0.330678
| 18> 		C    1.179543   0.197879   0.168626
| 19> 		H   -1.639390  -0.413152   1.253751
| 20> 		H    0.074825   0.918021  -1.068635
| 21> 		H    1.195623  -0.544192   0.964298
| 22> 		H    2.138932   0.791159   0.009924
| 23> *
| 24>
| 25>                          ****END OF INPUT****

CARTESIAN COORDINATES (ANGSTROEM)
---------------------------------
  C     -1.200574   -0.351334   -0.033984
  O     -1.877268   -0.969424   -0.948354
  C      0.116882    0.319873   -0.330678
  C      1.179543    0.197879    0.168626
  H     -1.639390   -0.413152    1.253751
  H      0.074825    0.918021   -1.068635
  H      1.195623   -0.544192    0.964298
  H      2.138932    0.791159    0.009924

 Total Charge           Charge          ....    0
 Multiplicity           Mult            ....    1
 Number of Electrons    NEL             ....   30
 Basis Dimension        Dim             ....   24

ORBITAL ENERGIES
----------------

  NO   OCC          E(Eh)            E(eV)
   0   2.0000     -20.348979      -553.7239
   1   2.0000     -11.280966      -306.9707
   2   2.0000     -11.213252      -305.1281
   3   2.0000     -11.203923      -304.8743
   4   2.0000      -1.342329       -36.5266
   5   2.0000      -1.143930       -31.1279
   6   2.0000      -0.872252       -23.7352
   7   2.0000      -0.777877       -21.1671
   8   2.0000      -0.670802       -18.2534
   9   2.0000      -0.642364       -17.4796
  10   2.0000      -0.574048       -15.6206
  11   2.0000      -0.526120       -14.3164
  12   2.0000      -0.493892       -13.4395
  13   2.0000      -0.436306       -11.8725
  14   2.0000      -0.399378       -10.8676
  15   0.0000       0.151371         4.1190
  16   0.0000       0.286673         7.8008
  17   0.0000       0.401569        10.9273
  18   0.0000       0.518767        14.1164
  19   0.0000       0.641946        17.4683

MULLIKEN ATOMIC CHARGES
-----------------------
   0 C :    0.185665
   1 O :   -0.340455
   2 C :   -0.223664
   3 C :   -0.233146
   4 H :    0.144442
   5 H :    0.161408
   6 H :    0.142113
   7 H :    0.163638
Sum of atomic charges:   -0.0000000

LOEWDIN ATOMIC CHARGES
----------------------
   0 C :    0.159133
   1 O :   -0.267501
   2 C :   -0.150425
   3 C :   -0.142485
   4 H :    0.102833
   5 H :    0.093911
   6 H :    0.091200
   7 H :    0.113335

  Mayer bond orders larger than 0.100000
B(  0-C ,  1-O ) :   1.9409 B(  0-C ,  2-C ) :   0.9840 B(  0-C ,  4-H ) :   0.8983
B(  2-C ,  3-C ) :   2.0102 B(  2-C ,  5-H ) :   0.9402 B(  3-C ,  6-H ) :   0.9528
B(  3-C ,  7-H ) :   0.9508

-----------------------------------------------------------------------------
         ABSORPTION SPECTRUM VIA TRANSITION ELECTRIC DIPOLE MOMENTS
-----------------------------------------------------------------------------
State   Energy    Wavelength  fosc         T2        TX        TY        TZ
        (cm-1)      (nm)                 (au**2)    (au)      (au)      (au)
-----------------------------------------------------------------------------
   1   30039.5    332.9   0.000172285   0.00189  -0.00006  -0.01625   0.04030

Dispersion correction           -0.025495531
FINAL SINGLE POINT ENERGY      -189.247465609346

DIPOLE MOMENT
-------------
                                X             Y             Z
Electronic contribution:     -2.74977      -1.05819      -1.34622
Nuclear contribution   :      3.45385       1.54803       2.17294
                        -----------------------------------------
Total Dipole Moment    :      0.70408       0.48983       0.82672
                        -----------------------------------------
Magnitude (a.u.)       :      1.19127
Magnitude (Debye)      :      3.02797

Rotational constants in cm-1:     1.313176     0.153902     0.147157
Rotational constants in MHz : 39368.036074  4613.853620  4411.644747

                             ****ORCA TERMINATED NORMALLY****
TOTAL RUN TIME: 0 days 0 hours 0 minutes 11 seconds 827 msec
