                         Program Version 5.0.3 -  RELEASE  -
|  1> ! HF-3c
|  2> !TightSCF
|  3> %scf
|  4>  ConvForced true
|  5>  convergence tight
|  6>  MaxIter 500
|  7> end
|  8>
|  9> %tddft
| 10>  nroots 1
| 11> end
| 12>
| 13> # 	15082
| 14> * xyz 0 1
| 15> 		C   -1.214824  -0.288857   0.011679
| 16> 		O   -1.235056  -1.523828  -0.198053
| 17> 		C   -0.013428   0.531499  -0.098865
| 18> 		C    1.212460  -0.011940   0.037127
| 19> 		H   -2.080401   0.217418   0.224150
| 20> 		H   -0.147137   1.581570  -0.103942
| 21> 		H    1.288475  -1.226696   0.281429
| 22> 		H    2.206320   0.697292  -0.115204
| 23> *
| 24>
| 25>                          ****END OF INPUT****

CARTESIAN COORDINATES (ANGSTROEM)
---------------------------------
  C     -1.214824   -0.288857    0.011679
  O     -1.235056   -1.523828   -0.198053
  C     -0.013428    0.531499   -0.098865
  C      1.212460   -0.011940    0.037127
  H     -2.080401    0.217418    0.224150
  H     -0.147137    1.581570   -0.103942
  H      1.288475   -1.226696    0.281429
  H      2.206320    0.697292   -0.115204

 Total Charge           Charge          ....    0
 Multiplicity           Mult            ....    1
 Number of Electrons    NEL             ....   30
 Basis Dimension        Dim             ....   24

ORBITAL ENERGIES
----------------

  NO   OCC          E(Eh)            E(eV)
   0   2.0000     -20.344982      -553.6151
   1   2.0000     -11.282908      -307.0235
   2   2.0000     -11.188861      -304.4644
   3   2.0000     -11.175416      -304.0985
   4   2.0000      -1.366286       -37.1785
   5   2.0000      -1.066974       -29.0338
   6   2.0000      -0.887852       -24.1597
   7   2.0000      -0.735410       -20.0115
   8   2.0000      -0.694041       -18.8858
   9   2.0000      -0.590555       -16.0698
  10   2.0000      -0.571426       -15.5493
  11   2.0000      -0.518862       -14.1190
  12   2.0000      -0.505163       -13.7462
  13   2.0000      -0.415247       -11.2995
  14   2.0000      -0.377824       -10.2811
  15   0.0000       0.129061         3.5119
  16   0.0000       0.301173         8.1953
  17   0.0000       0.476095        12.9552
  18   0.0000       0.517805        14.0902
  19   0.0000       0.655528        17.8378

MULLIKEN ATOMIC CHARGES
-----------------------
   0 C :    0.138079
   1 O :   -0.349862
   2 C :   -0.209010
   3 C :   -0.168707
   4 H :    0.137205
   5 H :    0.139585
   6 H :    0.164564
   7 H :    0.148146
Sum of atomic charges:    0.0000000

LOEWDIN ATOMIC CHARGES
----------------------
   0 C :    0.140223
   1 O :   -0.269953
   2 C :   -0.165883
   3 C :   -0.089692
   4 H :    0.068756
   5 H :    0.087189
   6 H :    0.121620
   7 H :    0.107739

  Mayer bond orders larger than 0.100000
B(  0-C ,  1-O ) :   1.8855 B(  0-C ,  2-C ) :   1.0508 B(  0-C ,  4-H ) :   0.9383
B(  2-C ,  3-C ) :   1.9185 B(  2-C ,  5-H ) :   0.9590 B(  3-C ,  6-H ) :   0.9495
B(  3-C ,  7-H ) :   0.9573

-----------------------------------------------------------------------------
         ABSORPTION SPECTRUM VIA TRANSITION ELECTRIC DIPOLE MOMENTS
-----------------------------------------------------------------------------
State   Energy    Wavelength  fosc         T2        TX        TY        TZ
        (cm-1)      (nm)                 (au**2)    (au)      (au)      (au)
-----------------------------------------------------------------------------
   1   30627.5    326.5   0.000018232   0.00020   0.00996   0.00014   0.00984

Dispersion correction           -0.025563276
FINAL SINGLE POINT ENERGY      -189.315202471695

DIPOLE MOMENT
-------------
                                X             Y             Z
Electronic contribution:     -1.90084      -1.64510      -0.27856
Nuclear contribution   :      2.42540       2.53467       0.49973
                        -----------------------------------------
Total Dipole Moment    :      0.52456       0.88957       0.22117
                        -----------------------------------------
Magnitude (a.u.)       :      1.05613
Magnitude (Debye)      :      2.68447

Rotational constants in cm-1:     0.743994     0.205936     0.162938
Rotational constants in MHz : 22304.380983  6173.791608  4884.744057

                             ****ORCA TERMINATED NORMALLY****
TOTAL RUN TIME: 0 days 0 hours 0 minutes 11 seconds 407 msec
