                         Program Version 5.0.3 -  RELEASE  -
|  1> ! HF-3c
|  2> !TightSCF
|  3> %scf
|  4>  ConvForced true
|  5>  convergence tight
|  6>  MaxIter 500
|  7> end
|  8>
|  9> %tddft
| 10>  nroots 1
| 11> end
| 12>
| 13> # 	764
| 14> * xyz 0 1
| 15> 		C   -1.215733  -0.315774  -0.050476
| 16> 		O   -1.394045  -1.406398   0.517786
| 17> 		C    0.024805   0.435740   0.203449
| 18> 		C    1.269332   0.067686  -0.119153
| 19> 		H   -1.971101   0.095294  -0.796390
| 20> 		H   -0.157076   1.387752   0.660096
| 21> 		H    1.366609  -0.979454  -0.449083
| 22> 		H    2.083556   0.691997   0.036765
| 23> *
| 24>
| 25>                          ****END OF INPUT****

CARTESIAN COORDINATES (ANGSTROEM)
---------------------------------
  C     -1.215733   -0.315774   -0.050476
  O     -1.394045   -1.406398    0.517786
  C      0.024805    0.435740    0.203449
  C      1.269332    0.067686   -0.119153
  H     -1.971101    0.095294   -0.796390
  H     -0.157076    1.387752    0.660096
  H      1.366609   -0.979454   -0.449083
  H      2.083556    0.691997    0.036765

 Total Charge           Charge          ....    0
 Multiplicity           Mult            ....    1
 Number of Electrons    NEL             ....   30
 Basis Dimension        Dim             ....   24

ORBITAL ENERGIES
----------------

  NO   OCC          E(Eh)            E(eV)
   0   2.0000     -20.363214      -554.1112
   1   2.0000     -11.292595      -307.2871
   2   2.0000     -11.191125      -304.5260
   3   2.0000     -11.184551      -304.3471
   4   2.0000      -1.383007       -37.6335
   5   2.0000      -1.077963       -29.3329
   6   2.0000      -0.894193       -24.3322
   7   2.0000      -0.753463       -20.5028
   8   2.0000      -0.694059       -18.8863
   9   2.0000      -0.630574       -17.1588
  10   2.0000      -0.598442       -16.2844
  11   2.0000      -0.549507       -14.9528
  12   2.0000      -0.489690       -13.3252
  13   2.0000      -0.419083       -11.4038
  14   2.0000      -0.396601       -10.7921
  15   0.0000       0.160705         4.3730
  16   0.0000       0.232317         6.3217
  17   0.0000       0.552118        15.0239
  18   0.0000       0.637100        17.3364
  19   0.0000       0.675716        18.3872

MULLIKEN ATOMIC CHARGES
-----------------------
   0 C :    0.154748
   1 O :   -0.337659
   2 C :   -0.162546
   3 C :   -0.243502
   4 H :    0.147805
   5 H :    0.143155
   6 H :    0.151350
   7 H :    0.146649
Sum of atomic charges:   -0.0000000

LOEWDIN ATOMIC CHARGES
----------------------
   0 C :    0.143219
   1 O :   -0.252647
   2 C :   -0.114511
   3 C :   -0.147745
   4 H :    0.087396
   5 H :    0.090705
   6 H :    0.101140
   7 H :    0.092443

  Mayer bond orders larger than 0.100000
B(  0-C ,  1-O ) :   1.9324 B(  0-C ,  2-C ) :   1.0110 B(  0-C ,  4-H ) :   0.9194
B(  2-C ,  3-C ) :   1.9813 B(  2-C ,  5-H ) :   0.9516 B(  3-C ,  6-H ) :   0.9621
B(  3-C ,  7-H ) :   0.9656

-----------------------------------------------------------------------------
         ABSORPTION SPECTRUM VIA TRANSITION ELECTRIC DIPOLE MOMENTS
-----------------------------------------------------------------------------
State   Energy    Wavelength  fosc         T2        TX        TY        TZ
        (cm-1)      (nm)                 (au**2)    (au)      (au)      (au)
-----------------------------------------------------------------------------
   1   32140.0    311.1   0.000055252   0.00057  -0.02259   0.00467   0.00581

Dispersion correction           -0.025281619
FINAL SINGLE POINT ENERGY      -189.333802436819

DIPOLE MOMENT
-------------
                                X             Y             Z
Electronic contribution:     -2.30114      -1.55236       0.60796
Nuclear contribution   :      2.56559       2.38049      -1.05386
                        -----------------------------------------
Total Dipole Moment    :      0.26445       0.82813      -0.44590
                        -----------------------------------------
Magnitude (a.u.)       :      0.97702
Magnitude (Debye)      :      2.48338

Rotational constants in cm-1:     0.862225     0.182364     0.160691
Rotational constants in MHz : 25848.862768  5467.140832  4817.408163

                             ****ORCA TERMINATED NORMALLY****
TOTAL RUN TIME: 0 days 0 hours 0 minutes 11 seconds 299 msec
