                         Program Version 5.0.3 -  RELEASE  -
|  1> ! HF-3c
|  2> !TightSCF
|  3> %scf
|  4>  ConvForced true
|  5>  convergence tight
|  6>  MaxIter 500
|  7> end
|  8>
|  9> %tddft
| 10>  nroots 1
| 11> end
| 12>
| 13> # 	17257
| 14> * xyz 0 1
| 15> 		C   -1.166793  -0.273834   0.058751
| 16> 		O   -2.089727  -0.458098   0.862020
| 17> 		C    0.128920   0.394132   0.361914
| 18> 		C    1.235927   0.120842  -0.311494
| 19> 		H   -1.424368  -0.957227  -1.129331
| 20> 		H    0.064424   1.119892   1.125589
| 21> 		H    1.286447  -0.471495  -1.050364
| 22> 		H    2.018481   0.463084   0.048808
| 23> *
| 24>
| 25>                          ****END OF INPUT****

CARTESIAN COORDINATES (ANGSTROEM)
---------------------------------
  C     -1.166793   -0.273834    0.058751
  O     -2.089727   -0.458098    0.862020
  C      0.128920    0.394132    0.361914
  C      1.235927    0.120842   -0.311494
  H     -1.424368   -0.957227   -1.129331
  H      0.064424    1.119892    1.125589
  H      1.286447   -0.471495   -1.050364
  H      2.018481    0.463084    0.048808

 Total Charge           Charge          ....    0
 Multiplicity           Mult            ....    1
 Number of Electrons    NEL             ....   30
 Basis Dimension        Dim             ....   24

ORBITAL ENERGIES
----------------

  NO   OCC          E(Eh)            E(eV)
   0   2.0000     -20.354597      -553.8767
   1   2.0000     -11.283512      -307.0400
   2   2.0000     -11.221332      -305.3480
   3   2.0000     -11.212280      -305.1016
   4   2.0000      -1.378413       -37.5085
   5   2.0000      -1.113880       -30.3102
   6   2.0000      -0.905350       -24.6358
   7   2.0000      -0.768469       -20.9111
   8   2.0000      -0.682258       -18.5652
   9   2.0000      -0.664116       -18.0715
  10   2.0000      -0.588780       -16.0215
  11   2.0000      -0.559398       -15.2220
  12   2.0000      -0.522574       -14.2200
  13   2.0000      -0.413983       -11.2650
  14   2.0000      -0.386269       -10.5109
  15   0.0000       0.123736         3.3670
  16   0.0000       0.281678         7.6649
  17   0.0000       0.381734        10.3875
  18   0.0000       0.607828        16.5398
  19   0.0000       0.686700        18.6861

MULLIKEN ATOMIC CHARGES
-----------------------
   0 C :    0.182217
   1 O :   -0.355943
   2 C :   -0.140574
   3 C :   -0.288400
   4 H :    0.130778
   5 H :    0.165305
   6 H :    0.152767
   7 H :    0.153850
Sum of atomic charges:    0.0000000

LOEWDIN ATOMIC CHARGES
----------------------
   0 C :    0.141110
   1 O :   -0.267235
   2 C :   -0.082611
   3 C :   -0.167048
   4 H :    0.090512
   5 H :    0.104782
   6 H :    0.090557
   7 H :    0.089933

  Mayer bond orders larger than 0.100000
B(  0-C ,  1-O ) :   1.9161 B(  0-C ,  2-C ) :   1.0184 B(  0-C ,  4-H ) :   0.8961
B(  2-C ,  3-C ) :   1.9556 B(  2-C ,  5-H ) :   0.9527 B(  3-C ,  6-H ) :   0.9658
B(  3-C ,  7-H ) :   0.9652

-----------------------------------------------------------------------------
         ABSORPTION SPECTRUM VIA TRANSITION ELECTRIC DIPOLE MOMENTS
-----------------------------------------------------------------------------
State   Energy    Wavelength  fosc         T2        TX        TY        TZ
        (cm-1)      (nm)                 (au**2)    (au)      (au)      (au)
-----------------------------------------------------------------------------
   1   30225.1    330.9   0.000288606   0.00314  -0.02867  -0.04501  -0.01721

Dispersion correction           -0.025673546
FINAL SINGLE POINT ENERGY      -189.261430083895

DIPOLE MOMENT
-------------
                                X             Y             Z
Electronic contribution:     -2.92464      -0.26933       1.28714
Nuclear contribution   :      3.74896       0.42538      -1.87720
                        -----------------------------------------
Total Dipole Moment    :      0.82432       0.15604      -0.59007
                        -----------------------------------------
Magnitude (a.u.)       :      1.02569
Magnitude (Debye)      :      2.60709

Rotational constants in cm-1:     1.442958     0.152817     0.140716
Rotational constants in MHz : 43258.783132  4581.325859  4218.554223

                             ****ORCA TERMINATED NORMALLY****
TOTAL RUN TIME: 0 days 0 hours 0 minutes 16 seconds 68 msec
