                         Program Version 5.0.3 -  RELEASE  -
|  1> ! B3LYP cc-pVDZ
|  2> !TightSCF
|  3> %scf
|  4>  ConvForced true
|  5>  convergence tight
|  6>  MaxIter 500
|  7> end
|  8>
|  9> %tddft
| 10>  nroots 1
| 11> end
| 12>
| 13> # 	28324
| 14> * xyz 0 1
| 15> 		C   -0.548499  -0.395195  -0.000858
| 16> 		O   -0.602439  -1.647758   0.010574
| 17> 		C    0.634712   0.401834   0.004529
| 18> 		C    1.815943  -0.139072   0.001746
| 19> 		H   -1.375020   0.064485  -0.146860
| 20> 		H    0.419063   1.460703   0.047737
| 21> 		H    2.139141  -1.089756  -0.163240
| 22> 		H    2.686657   0.570908   0.038767
| 23> *
| 24>
| 25>                          ****END OF INPUT****

CARTESIAN COORDINATES (ANGSTROEM)
---------------------------------
  C     -0.548499   -0.395195   -0.000858
  O     -0.602439   -1.647758    0.010574
  C      0.634712    0.401834    0.004529
  C      1.815943   -0.139072    0.001746
  H     -1.375020    0.064485   -0.146860
  H      0.419063    1.460703    0.047737
  H      2.139141   -1.089756   -0.163240
  H      2.686657    0.570908    0.038767

 Total Charge           Charge          ....    0
 Multiplicity           Mult            ....    1
 Number of Electrons    NEL             ....   30
 Basis Dimension        Dim             ....   76

ORBITAL ENERGIES
----------------

  NO   OCC          E(Eh)            E(eV)
   0   2.0000     -19.128041      -520.5005
   1   2.0000     -10.252436      -278.9830
   2   2.0000     -10.209487      -277.8143
   3   2.0000     -10.199789      -277.5504
   4   2.0000      -1.016191       -27.6519
   5   2.0000      -0.810849       -22.0643
   6   2.0000      -0.682310       -18.5666
   7   2.0000      -0.566359       -15.4114
   8   2.0000      -0.514044       -13.9879
   9   2.0000      -0.462614       -12.5884
  10   2.0000      -0.415494       -11.3062
  11   2.0000      -0.386267       -10.5109
  12   2.0000      -0.376232       -10.2378
  13   2.0000      -0.290903        -7.9159
  14   2.0000      -0.249091        -6.7781
  15   0.0000      -0.075620        -2.0577
  16   0.0000       0.063523         1.7286
  17   0.0000       0.066419         1.8073
  18   0.0000       0.098532         2.6812
  19   0.0000       0.134423         3.6578

MULLIKEN ATOMIC CHARGES
-----------------------
   0 C :    0.273888
   1 O :   -0.238405
   2 C :   -0.116747
   3 C :    0.128864
   4 H :   -0.072760
   5 H :   -0.011161
   6 H :    0.008845
   7 H :    0.027476
Sum of atomic charges:    0.0000000

LOEWDIN ATOMIC CHARGES
----------------------
   0 C :    0.002553
   1 O :   -0.044057
   2 C :   -0.074312
   3 C :    0.054741
   4 H :   -0.031572
   5 H :    0.034518
   6 H :    0.016242
   7 H :    0.041888

  Mayer bond orders larger than 0.100000
B(  0-C ,  1-O ) :   2.1523 B(  0-C ,  2-C ) :   1.1288 B(  0-C ,  4-H ) :   0.9376
B(  1-O ,  3-C ) :   0.1121 B(  2-C ,  3-C ) :   1.9515 B(  2-C ,  5-H ) :   0.9371
B(  3-C ,  6-H ) :   0.9475 B(  3-C ,  7-H ) :   0.9380

-----------------------------------------------------------------------------
         ABSORPTION SPECTRUM VIA TRANSITION ELECTRIC DIPOLE MOMENTS
-----------------------------------------------------------------------------
State   Energy    Wavelength  fosc         T2        TX        TY        TZ
        (cm-1)      (nm)                 (au**2)    (au)      (au)      (au)
-----------------------------------------------------------------------------
   1   24734.2    404.3   0.000028872   0.00038  -0.00281   0.00434  -0.01891

FINAL SINGLE POINT ENERGY      -191.660237923077

DIPOLE MOMENT
-------------
                                X             Y             Z
Electronic contribution:     -2.00928      -1.73174       0.16005
Nuclear contribution   :      2.47195       2.73004      -0.21021
                        -----------------------------------------
Total Dipole Moment    :      0.46267       0.99830      -0.05016
                        -----------------------------------------
Magnitude (a.u.)       :      1.10144
Magnitude (Debye)      :      2.79965

Rotational constants in cm-1:     0.790017     0.211752     0.167172
Rotational constants in MHz : 23684.112302  6348.151553  5011.696703

                             ****ORCA TERMINATED NORMALLY****
TOTAL RUN TIME: 0 days 0 hours 3 minutes 20 seconds 518 msec
