                         Program Version 5.0.3 -  RELEASE  -
|  1> ! B3LYP cc-pVDZ
|  2> !TightSCF
|  3> %scf
|  4>  ConvForced true
|  5>  convergence tight
|  6>  MaxIter 500
|  7> end
|  8>
|  9> %tddft
| 10>  nroots 1
| 11> end
| 12>
| 13> # 	9932
| 14> * xyz 0 1
| 15> 		C   -1.183370  -0.155553   0.016228
| 16> 		O   -1.700414  -0.860064   0.883669
| 17> 		C   -0.011794   0.559103   0.236593
| 18> 		C    1.136782  -0.023542  -0.150943
| 19> 		H   -1.499492  -0.247798  -1.045135
| 20> 		H   -0.094150   1.353824   0.847770
| 21> 		H    1.202660  -1.011467  -0.685502
| 22> 		H    2.168246   0.442262  -0.077950
| 23> *
| 24>
| 25>                          ****END OF INPUT****

CARTESIAN COORDINATES (ANGSTROEM)
---------------------------------
  C     -1.183370   -0.155553    0.016228
  O     -1.700414   -0.860064    0.883669
  C     -0.011794    0.559103    0.236593
  C      1.136782   -0.023542   -0.150943
  H     -1.499492   -0.247798   -1.045135
  H     -0.094150    1.353824    0.847770
  H      1.202660   -1.011467   -0.685502
  H      2.168246    0.442262   -0.077950

 Total Charge           Charge          ....    0
 Multiplicity           Mult            ....    1
 Number of Electrons    NEL             ....   30
 Basis Dimension        Dim             ....   76

ORBITAL ENERGIES
----------------

  NO   OCC          E(Eh)            E(eV)
   0   2.0000     -19.140204      -520.8314
   1   2.0000     -10.273313      -279.5511
   2   2.0000     -10.217491      -278.0321
   3   2.0000     -10.198483      -277.5148
   4   2.0000      -1.039073       -28.2746
   5   2.0000      -0.811759       -22.0891
   6   2.0000      -0.656096       -17.8533
   7   2.0000      -0.575529       -15.6609
   8   2.0000      -0.490042       -13.3347
   9   2.0000      -0.472633       -12.8610
  10   2.0000      -0.438296       -11.9266
  11   2.0000      -0.385589       -10.4924
  12   2.0000      -0.368440       -10.0258
  13   2.0000      -0.285276        -7.7627
  14   2.0000      -0.254219        -6.9176
  15   0.0000      -0.050449        -1.3728
  16   0.0000      -0.003401        -0.0926
  17   0.0000       0.081998         2.2313
  18   0.0000       0.092552         2.5185
  19   0.0000       0.107672         2.9299

MULLIKEN ATOMIC CHARGES
-----------------------
   0 C :    0.153600
   1 O :   -0.204551
   2 C :    0.028037
   3 C :   -0.027874
   4 H :   -0.011428
   5 H :   -0.017079
   6 H :    0.036520
   7 H :    0.042776
Sum of atomic charges:   -0.0000000

LOEWDIN ATOMIC CHARGES
----------------------
   0 C :   -0.019825
   1 O :   -0.010350
   2 C :   -0.045511
   3 C :   -0.015528
   4 H :   -0.001129
   5 H :    0.018825
   6 H :    0.035288
   7 H :    0.038230

  Mayer bond orders larger than 0.100000
B(  0-C ,  1-O ) :   2.1957 B(  0-C ,  2-C ) :   1.0359 B(  0-C ,  4-H ) :   0.9209
B(  2-C ,  3-C ) :   1.9925 B(  2-C ,  5-H ) :   0.9383 B(  3-C ,  6-H ) :   0.9500
B(  3-C ,  7-H ) :   0.9511

-----------------------------------------------------------------------------
         ABSORPTION SPECTRUM VIA TRANSITION ELECTRIC DIPOLE MOMENTS
-----------------------------------------------------------------------------
State   Energy    Wavelength  fosc         T2        TX        TY        TZ
        (cm-1)      (nm)                 (au**2)    (au)      (au)      (au)
-----------------------------------------------------------------------------
   1   30701.6    325.7   0.000855552   0.00917  -0.06692   0.00805   0.06805

FINAL SINGLE POINT ENERGY      -191.636421073117

DIPOLE MOMENT
-------------
                                X             Y             Z
Electronic contribution:     -2.77759      -0.52309       1.30926
Nuclear contribution   :      3.39714       1.07251      -1.85555
                        -----------------------------------------
Total Dipole Moment    :      0.61955       0.54942      -0.54629
                        -----------------------------------------
Magnitude (a.u.)       :      0.99204
Magnitude (Debye)      :      2.52156

Rotational constants in cm-1:     0.970874     0.179453     0.172016
Rotational constants in MHz : 29106.062422  5379.872349  5156.904408

                             ****ORCA TERMINATED NORMALLY****
TOTAL RUN TIME: 0 days 0 hours 3 minutes 20 seconds 572 msec
