                         Program Version 5.0.3 -  RELEASE  -
|  1> ! B3LYP cc-pVDZ
|  2> !TightSCF
|  3> %scf
|  4>  ConvForced true
|  5>  convergence tight
|  6>  MaxIter 500
|  7> end
|  8>
|  9> %tddft
| 10>  nroots 1
| 11> end
| 12>
| 13> # 	17243
| 14> * xyz 0 1
| 15> 		C   -1.184924  -0.340717   0.034647
| 16> 		O   -1.293403  -1.479697   0.353904
| 17> 		C    0.029094   0.532325   0.135265
| 18> 		C    1.316854   0.033162  -0.064409
| 19> 		H   -2.208968   0.167923  -0.513521
| 20> 		H   -0.283700   1.632931   0.274992
| 21> 		H    1.418066  -1.096364  -0.354235
| 22> 		H    2.224697   0.546582   0.171329
| 23> *
| 24>
| 25>                          ****END OF INPUT****

CARTESIAN COORDINATES (ANGSTROEM)
---------------------------------
  C     -1.184924   -0.340717    0.034647
  O     -1.293403   -1.479697    0.353904
  C      0.029094    0.532325    0.135265
  C      1.316854    0.033162   -0.064409
  H     -2.208968    0.167923   -0.513521
  H     -0.283700    1.632931    0.274992
  H      1.418066   -1.096364   -0.354235
  H      2.224697    0.546582    0.171329

 Total Charge           Charge          ....    0
 Multiplicity           Mult            ....    1
 Number of Electrons    NEL             ....   30
 Basis Dimension        Dim             ....   76

ORBITAL ENERGIES
----------------

  NO   OCC          E(Eh)            E(eV)
   0   2.0000     -19.145398      -520.9728
   1   2.0000     -10.287488      -279.9368
   2   2.0000     -10.231044      -278.4009
   3   2.0000     -10.226696      -278.2825
   4   2.0000      -1.063285       -28.9335
   5   2.0000      -0.782766       -21.3001
   6   2.0000      -0.650481       -17.7005
   7   2.0000      -0.526646       -14.3308
   8   2.0000      -0.492641       -13.4054
   9   2.0000      -0.449655       -12.2357
  10   2.0000      -0.438629       -11.9357
  11   2.0000      -0.396382       -10.7861
  12   2.0000      -0.382314       -10.4033
  13   2.0000      -0.284655        -7.7459
  14   2.0000      -0.253392        -6.8952
  15   0.0000      -0.069488        -1.8909
  16   0.0000       0.032663         0.8888
  17   0.0000       0.059870         1.6291
  18   0.0000       0.079072         2.1516
  19   0.0000       0.096982         2.6390

MULLIKEN ATOMIC CHARGES
-----------------------
   0 C :    0.119213
   1 O :   -0.154479
   2 C :   -0.103509
   3 C :    0.026578
   4 H :   -0.024423
   5 H :    0.029492
   6 H :    0.063852
   7 H :    0.043276
Sum of atomic charges:    0.0000000

LOEWDIN ATOMIC CHARGES
----------------------
   0 C :   -0.061946
   1 O :    0.023601
   2 C :   -0.077663
   3 C :    0.006510
   4 H :   -0.011322
   5 H :    0.043496
   6 H :    0.051938
   7 H :    0.025386

  Mayer bond orders larger than 0.100000
B(  0-C ,  1-O ) :   2.2289 B(  0-C ,  2-C ) :   1.0129 B(  0-C ,  4-H ) :   0.8766
B(  2-C ,  3-C ) :   1.9421 B(  2-C ,  5-H ) :   0.9383 B(  3-C ,  6-H ) :   0.9398
B(  3-C ,  7-H ) :   0.9522

-----------------------------------------------------------------------------
         ABSORPTION SPECTRUM VIA TRANSITION ELECTRIC DIPOLE MOMENTS
-----------------------------------------------------------------------------
State   Energy    Wavelength  fosc         T2        TX        TY        TZ
        (cm-1)      (nm)                 (au**2)    (au)      (au)      (au)
-----------------------------------------------------------------------------
   1   28307.9    353.3   0.000734480   0.00854  -0.08410  -0.00429   0.03809

FINAL SINGLE POINT ENERGY      -191.655237062244

DIPOLE MOMENT
-------------
                                X             Y             Z
Electronic contribution:     -1.69189      -1.71449       0.66000
Nuclear contribution   :      2.24257       2.47655      -0.82725
                        -----------------------------------------
Total Dipole Moment    :      0.55068       0.76206      -0.16725
                        -----------------------------------------
Magnitude (a.u.)       :      0.95496
Magnitude (Debye)      :      2.42731

Rotational constants in cm-1:     0.764293     0.188508     0.154981
Rotational constants in MHz : 22912.924558  5651.336080  4646.222227

                             ****ORCA TERMINATED NORMALLY****
TOTAL RUN TIME: 0 days 0 hours 3 minutes 27 seconds 949 msec
