                         Program Version 5.0.3 -  RELEASE  -
|  1> ! HF-3c
|  2> !TightSCF
|  3> %scf
|  4>  ConvForced true
|  5>  convergence tight
|  6>  MaxIter 500
|  7> end
|  8>
|  9> %tddft
| 10>  nroots 1
| 11> end
| 12>
| 13> # 	16250
| 14> * xyz 0 1
| 15> 		C   -1.202233  -0.343725  -0.049762
| 16> 		O   -1.600661  -1.122843   0.756760
| 17> 		C   -0.014431   0.503606   0.255553
| 18> 		C    1.193082   0.042376  -0.151384
| 19> 		H   -1.656518  -0.143767  -1.034446
| 20> 		H   -0.188315   1.399236   0.721589
| 21> 		H    1.442776  -1.022714  -0.586926
| 22> 		H    2.024176   0.711630   0.051227
| 23> *
| 24>
| 25>                          ****END OF INPUT****

CARTESIAN COORDINATES (ANGSTROEM)
---------------------------------
  C     -1.202233   -0.343725   -0.049762
  O     -1.600661   -1.122843    0.756760
  C     -0.014431    0.503606    0.255553
  C      1.193082    0.042376   -0.151384
  H     -1.656518   -0.143767   -1.034446
  H     -0.188315    1.399236    0.721589
  H      1.442776   -1.022714   -0.586926
  H      2.024176    0.711630    0.051227

 Total Charge           Charge          ....    0
 Multiplicity           Mult            ....    1
 Number of Electrons    NEL             ....   30
 Basis Dimension        Dim             ....   24

ORBITAL ENERGIES
----------------

  NO   OCC          E(Eh)            E(eV)
   0   2.0000     -20.380312      -554.5765
   1   2.0000     -11.302387      -307.5536
   2   2.0000     -11.182690      -304.2965
   3   2.0000     -11.176432      -304.1262
   4   2.0000      -1.422113       -38.6977
   5   2.0000      -1.070207       -29.1218
   6   2.0000      -0.876288       -23.8450
   7   2.0000      -0.768819       -20.9206
   8   2.0000      -0.689840       -18.7715
   9   2.0000      -0.631827       -17.1929
  10   2.0000      -0.604593       -16.4518
  11   2.0000      -0.546698       -14.8764
  12   2.0000      -0.512803       -13.9541
  13   2.0000      -0.408291       -11.1102
  14   2.0000      -0.392315       -10.6754
  15   0.0000       0.198533         5.4023
  16   0.0000       0.210759         5.7350
  17   0.0000       0.533700        14.5227
  18   0.0000       0.609279        16.5793
  19   0.0000       0.668699        18.1962

MULLIKEN ATOMIC CHARGES
-----------------------
   0 C :    0.176700
   1 O :   -0.345652
   2 C :   -0.178897
   3 C :   -0.226751
   4 H :    0.140707
   5 H :    0.150086
   6 H :    0.148701
   7 H :    0.135105
Sum of atomic charges:    0.0000000

LOEWDIN ATOMIC CHARGES
----------------------
   0 C :    0.154729
   1 O :   -0.243086
   2 C :   -0.130771
   3 C :   -0.140836
   4 H :    0.075772
   5 H :    0.093205
   6 H :    0.104818
   7 H :    0.086169

  Mayer bond orders larger than 0.100000
B(  0-C ,  1-O ) :   1.9535 B(  0-C ,  2-C ) :   0.9816 B(  0-C ,  4-H ) :   0.9159
B(  2-C ,  3-C ) :   1.9942 B(  2-C ,  5-H ) :   0.9553 B(  3-C ,  6-H ) :   0.9627
B(  3-C ,  7-H ) :   0.9655

-----------------------------------------------------------------------------
         ABSORPTION SPECTRUM VIA TRANSITION ELECTRIC DIPOLE MOMENTS
-----------------------------------------------------------------------------
State   Energy    Wavelength  fosc         T2        TX        TY        TZ
        (cm-1)      (nm)                 (au**2)    (au)      (au)      (au)
-----------------------------------------------------------------------------
   1   35646.2    280.5   0.000011737   0.00011  -0.00976   0.00093  -0.00351

Dispersion correction           -0.025267877
FINAL SINGLE POINT ENERGY      -189.308483350235

DIPOLE MOMENT
-------------
                                X             Y             Z
Electronic contribution:     -2.65604      -1.28513       0.93993
Nuclear contribution   :      3.12824       1.84938      -1.58495
                        -----------------------------------------
Total Dipole Moment    :      0.47220       0.56425      -0.64502
                        -----------------------------------------
Magnitude (a.u.)       :      0.97847
Magnitude (Debye)      :      2.48707

Rotational constants in cm-1:     0.925463     0.175311     0.165596
Rotational constants in MHz : 27744.688681  5255.704444  4964.450858

                             ****ORCA TERMINATED NORMALLY****
TOTAL RUN TIME: 0 days 0 hours 0 minutes 16 seconds 100 msec
