                         Program Version 5.0.3 -  RELEASE  -
|  1> ! B3LYP cc-pVDZ
|  2> !TightSCF
|  3> %scf
|  4>  ConvForced true
|  5>  convergence tight
|  6>  MaxIter 500
|  7> end
|  8>
|  9> %tddft
| 10>  nroots 1
| 11> end
| 12>
| 13> # 	23959
| 14> * xyz 0 1
| 15> 		C   -0.595165  -0.436174  -0.028235
| 16> 		O   -0.592605  -1.631892   0.024790
| 17> 		C    0.647351   0.384056   0.025307
| 18> 		C    1.852851  -0.108262  -0.010183
| 19> 		H   -1.659012   0.179350  -0.187082
| 20> 		H    0.432408   1.503978   0.106585
| 21> 		H    2.184374  -1.098864  -0.183274
| 22> 		H    2.702429   0.518892   0.039102
| 23> *
| 24>
| 25>                          ****END OF INPUT****

CARTESIAN COORDINATES (ANGSTROEM)
---------------------------------
  C     -0.595165   -0.436174   -0.028235
  O     -0.592605   -1.631892    0.024790
  C      0.647351    0.384056    0.025307
  C      1.852851   -0.108262   -0.010183
  H     -1.659012    0.179350   -0.187082
  H      0.432408    1.503978    0.106585
  H      2.184374   -1.098864   -0.183274
  H      2.702429    0.518892    0.039102

 Total Charge           Charge          ....    0
 Multiplicity           Mult            ....    1
 Number of Electrons    NEL             ....   30
 Basis Dimension        Dim             ....   76

ORBITAL ENERGIES
----------------

  NO   OCC          E(Eh)            E(eV)
   0   2.0000     -19.142614      -520.8970
   1   2.0000     -10.284029      -279.8426
   2   2.0000     -10.209806      -277.8229
   3   2.0000     -10.205260      -277.6992
   4   2.0000      -1.056709       -28.7545
   5   2.0000      -0.800181       -21.7740
   6   2.0000      -0.655917       -17.8484
   7   2.0000      -0.539444       -14.6790
   8   2.0000      -0.499512       -13.5924
   9   2.0000      -0.458697       -12.4818
  10   2.0000      -0.426056       -11.5936
  11   2.0000      -0.403196       -10.9715
  12   2.0000      -0.376883       -10.2555
  13   2.0000      -0.295515        -8.0414
  14   2.0000      -0.255502        -6.9526
  15   0.0000      -0.066149        -1.8000
  16   0.0000       0.055320         1.5053
  17   0.0000       0.065330         1.7777
  18   0.0000       0.091461         2.4888
  19   0.0000       0.107943         2.9373

MULLIKEN ATOMIC CHARGES
-----------------------
   0 C :    0.135853
   1 O :   -0.165146
   2 C :   -0.125590
   3 C :    0.123854
   4 H :   -0.017742
   5 H :    0.008119
   6 H :    0.022138
   7 H :    0.018513
Sum of atomic charges:   -0.0000000

LOEWDIN ATOMIC CHARGES
----------------------
   0 C :   -0.050041
   1 O :    0.012979
   2 C :   -0.084735
   3 C :    0.028837
   4 H :   -0.004741
   5 H :    0.039766
   6 H :    0.028850
   7 H :    0.029086

  Mayer bond orders larger than 0.100000
B(  0-C ,  1-O ) :   2.2270 B(  0-C ,  2-C ) :   1.0308 B(  0-C ,  4-H ) :   0.8839
B(  2-C ,  3-C ) :   1.9870 B(  2-C ,  5-H ) :   0.9331 B(  3-C ,  6-H ) :   0.9453
B(  3-C ,  7-H ) :   0.9360

-----------------------------------------------------------------------------
         ABSORPTION SPECTRUM VIA TRANSITION ELECTRIC DIPOLE MOMENTS
-----------------------------------------------------------------------------
State   Energy    Wavelength  fosc         T2        TX        TY        TZ
        (cm-1)      (nm)                 (au**2)    (au)      (au)      (au)
-----------------------------------------------------------------------------
   1   28719.7    348.2   0.000157744   0.00181  -0.00736   0.01014  -0.04064

FINAL SINGLE POINT ENERGY      -191.664598496450

DIPOLE MOMENT
-------------
                                X             Y             Z
Electronic contribution:     -1.78638      -2.01692       0.16125
Nuclear contribution   :      2.27672       2.82022      -0.21126
                        -----------------------------------------
Total Dipole Moment    :      0.49034       0.80330      -0.05001
                        -----------------------------------------
Magnitude (a.u.)       :      0.94245
Magnitude (Debye)      :      2.39552

Rotational constants in cm-1:     0.776060     0.204980     0.162496
Rotational constants in MHz : 23265.681148  6145.134533  4871.514762

                             ****ORCA TERMINATED NORMALLY****
TOTAL RUN TIME: 0 days 0 hours 3 minutes 22 seconds 676 msec
