                         Program Version 5.0.3 -  RELEASE  -
|  1> ! B3LYP cc-pVDZ
|  2> !TightSCF
|  3> %scf
|  4>  ConvForced true
|  5>  convergence tight
|  6>  MaxIter 500
|  7> end
|  8>
|  9> %tddft
| 10>  nroots 1
| 11> end
| 12>
| 13> # 	24682
| 14> * xyz 0 1
| 15> 		C   -0.577745  -0.433201   0.074931
| 16> 		O   -0.520749  -1.575859  -0.029657
| 17> 		C    0.578486   0.434473  -0.023887
| 18> 		C    1.782877  -0.212130  -0.013350
| 19> 		H   -1.449376   0.140295  -0.198584
| 20> 		H    0.432941   1.600490   0.012511
| 21> 		H    2.055646  -1.151671   0.249536
| 22> 		H    2.901531   0.230522  -0.045254
| 23> *
| 24>
| 25>                          ****END OF INPUT****

CARTESIAN COORDINATES (ANGSTROEM)
---------------------------------
  C     -0.577745   -0.433201    0.074931
  O     -0.520749   -1.575859   -0.029657
  C      0.578486    0.434473   -0.023887
  C      1.782877   -0.212130   -0.013350
  H     -1.449376    0.140295   -0.198584
  H      0.432941    1.600490    0.012511
  H      2.055646   -1.151671    0.249536
  H      2.901531    0.230522   -0.045254

 Total Charge           Charge          ....    0
 Multiplicity           Mult            ....    1
 Number of Electrons    NEL             ....   30
 Basis Dimension        Dim             ....   76

ORBITAL ENERGIES
----------------

  NO   OCC          E(Eh)            E(eV)
   0   2.0000     -19.134363      -520.6725
   1   2.0000     -10.261689      -279.2347
   2   2.0000     -10.218902      -278.0705
   3   2.0000     -10.212071      -277.8846
   4   2.0000      -1.081691       -29.4343
   5   2.0000      -0.787850       -21.4385
   6   2.0000      -0.661631       -18.0039
   7   2.0000      -0.553362       -15.0577
   8   2.0000      -0.498873       -13.5750
   9   2.0000      -0.459217       -12.4959
  10   2.0000      -0.428601       -11.6628
  11   2.0000      -0.410569       -11.1722
  12   2.0000      -0.361057        -9.8249
  13   2.0000      -0.282277        -7.6811
  14   2.0000      -0.251077        -6.8322
  15   0.0000      -0.071533        -1.9465
  16   0.0000       0.050724         1.3803
  17   0.0000       0.063205         1.7199
  18   0.0000       0.088387         2.4051
  19   0.0000       0.127117         3.4590

MULLIKEN ATOMIC CHARGES
-----------------------
   0 C :    0.205998
   1 O :   -0.138535
   2 C :   -0.154270
   3 C :    0.061225
   4 H :   -0.048159
   5 H :    0.032177
   6 H :    0.010661
   7 H :    0.030902
Sum of atomic charges:    0.0000000

LOEWDIN ATOMIC CHARGES
----------------------
   0 C :   -0.094594
   1 O :    0.063414
   2 C :   -0.087141
   3 C :    0.036118
   4 H :   -0.017982
   5 H :    0.048367
   6 H :    0.007967
   7 H :    0.043851

  Mayer bond orders larger than 0.100000
B(  0-C ,  1-O ) :   2.2586 B(  0-C ,  2-C ) :   1.0532 B(  0-C ,  4-H ) :   0.9164
B(  1-O ,  3-C ) :   0.1006 B(  2-C ,  3-C ) :   1.9027 B(  2-C ,  5-H ) :   0.9403
B(  3-C ,  6-H ) :   0.9608 B(  3-C ,  7-H ) :   0.9612

-----------------------------------------------------------------------------
         ABSORPTION SPECTRUM VIA TRANSITION ELECTRIC DIPOLE MOMENTS
-----------------------------------------------------------------------------
State   Energy    Wavelength  fosc         T2        TX        TY        TZ
        (cm-1)      (nm)                 (au**2)    (au)      (au)      (au)
-----------------------------------------------------------------------------
   1   27130.7    368.6   0.000082582   0.00100   0.00612  -0.01201  -0.02864

FINAL SINGLE POINT ENERGY      -191.633352339302

DIPOLE MOMENT
-------------
                                X             Y             Z
Electronic contribution:     -2.16950      -1.83285       0.09417
Nuclear contribution   :      2.54272       2.55458       0.01687
                        -----------------------------------------
Total Dipole Moment    :      0.37322       0.72173       0.11104
                        -----------------------------------------
Magnitude (a.u.)       :      0.82008
Magnitude (Debye)      :      2.08447

Rotational constants in cm-1:     0.717437     0.230427     0.175117
Rotational constants in MHz : 21508.207096  6908.036842  5249.884635

                             ****ORCA TERMINATED NORMALLY****
TOTAL RUN TIME: 0 days 0 hours 3 minutes 17 seconds 557 msec
