                         Program Version 5.0.3 -  RELEASE  -
|  1> ! HF-3c
|  2> !TightSCF
|  3> %scf
|  4>  ConvForced true
|  5>  convergence tight
|  6>  MaxIter 500
|  7> end
|  8>
|  9> %tddft
| 10>  nroots 1
| 11> end
| 12>
| 13> # 	6002
| 14> * xyz 0 1
| 15> 		C   -1.274921  -0.324491   0.032996
| 16> 		O   -1.213724  -1.487815  -0.152311
| 17> 		C   -0.046324   0.517011  -0.059500
| 18> 		C    1.180975  -0.082621   0.071188
| 19> 		H   -2.245648   0.097112   0.194682
| 20> 		H    0.033222   1.724318  -0.091827
| 21> 		H    1.443263  -0.940629   0.109383
| 22> 		H    2.115141   0.497543  -0.010706
| 23> *
| 24>
| 25>                          ****END OF INPUT****

CARTESIAN COORDINATES (ANGSTROEM)
---------------------------------
  C     -1.274921   -0.324491    0.032996
  O     -1.213724   -1.487815   -0.152311
  C     -0.046324    0.517011   -0.059500
  C      1.180975   -0.082621    0.071188
  H     -2.245648    0.097112    0.194682
  H      0.033222    1.724318   -0.091827
  H      1.443263   -0.940629    0.109383
  H      2.115141    0.497543   -0.010706

 Total Charge           Charge          ....    0
 Multiplicity           Mult            ....    1
 Number of Electrons    NEL             ....   30
 Basis Dimension        Dim             ....   24

ORBITAL ENERGIES
----------------

  NO   OCC          E(Eh)            E(eV)
   0   2.0000     -20.378068      -554.5154
   1   2.0000     -11.309816      -307.7558
   2   2.0000     -11.193224      -304.5831
   3   2.0000     -11.186639      -304.4039
   4   2.0000      -1.431851       -38.9627
   5   2.0000      -1.065331       -28.9891
   6   2.0000      -0.900487       -24.5035
   7   2.0000      -0.782077       -21.2814
   8   2.0000      -0.709138       -19.2966
   9   2.0000      -0.621689       -16.9170
  10   2.0000      -0.588152       -16.0044
  11   2.0000      -0.552057       -15.0222
  12   2.0000      -0.532473       -14.4893
  13   2.0000      -0.419106       -11.4044
  14   2.0000      -0.387338       -10.5400
  15   0.0000       0.130194         3.5427
  16   0.0000       0.296798         8.0763
  17   0.0000       0.500037        13.6067
  18   0.0000       0.554340        15.0843
  19   0.0000       0.722753        19.6671

MULLIKEN ATOMIC CHARGES
-----------------------
   0 C :    0.160306
   1 O :   -0.347788
   2 C :   -0.139274
   3 C :   -0.254232
   4 H :    0.142553
   5 H :    0.153570
   6 H :    0.142285
   7 H :    0.142580
Sum of atomic charges:   -0.0000000

LOEWDIN ATOMIC CHARGES
----------------------
   0 C :    0.139488
   1 O :   -0.243966
   2 C :   -0.105765
   3 C :   -0.144030
   4 H :    0.074108
   5 H :    0.109958
   6 H :    0.075904
   7 H :    0.094303

  Mayer bond orders larger than 0.100000
B(  0-C ,  1-O ) :   1.9123 B(  0-C ,  2-C ) :   1.0158 B(  0-C ,  4-H ) :   0.9265
B(  2-C ,  3-C ) :   1.9481 B(  2-C ,  5-H ) :   0.9536 B(  3-C ,  6-H ) :   0.9710
B(  3-C ,  7-H ) :   0.9666

-----------------------------------------------------------------------------
         ABSORPTION SPECTRUM VIA TRANSITION ELECTRIC DIPOLE MOMENTS
-----------------------------------------------------------------------------
State   Energy    Wavelength  fosc         T2        TX        TY        TZ
        (cm-1)      (nm)                 (au**2)    (au)      (au)      (au)
-----------------------------------------------------------------------------
   1   33730.3    296.5   0.000049402   0.00048  -0.01957  -0.00996  -0.00004

Dispersion correction           -0.025387958
FINAL SINGLE POINT ENERGY      -189.272660624217

DIPOLE MOMENT
-------------
                                X             Y             Z
Electronic contribution:     -2.35969      -1.68551      -0.17107
Nuclear contribution   :      2.57177       2.68865       0.30086
                        -----------------------------------------
Total Dipole Moment    :      0.21208       1.00314       0.12978
                        -----------------------------------------
Magnitude (a.u.)       :      1.03350
Magnitude (Debye)      :      2.62694

Rotational constants in cm-1:     0.751729     0.212850     0.166992
Rotational constants in MHz : 22536.274961  6381.084275  5006.306636

                             ****ORCA TERMINATED NORMALLY****
TOTAL RUN TIME: 0 days 0 hours 0 minutes 16 seconds 49 msec
