                         Program Version 5.0.3 -  RELEASE  -
|  1> ! HF-3c
|  2> !TightSCF
|  3> %scf
|  4>  ConvForced true
|  5>  convergence tight
|  6>  MaxIter 500
|  7> end
|  8>
|  9> %tddft
| 10>  nroots 1
| 11> end
| 12>
| 13> # 	10766
| 14> * xyz 0 1
| 15> 		C   -1.219673  -0.321138  -0.049877
| 16> 		O   -1.472011  -1.346743   0.573195
| 17> 		C   -0.023833   0.507594   0.165282
| 18> 		C    1.227437  -0.014349  -0.077839
| 19> 		H   -1.900118   0.061983  -0.833366
| 20> 		H   -0.242704   1.450344   0.646092
| 21> 		H    1.431324  -0.966240  -0.512609
| 22> 		H    2.183505   0.568108   0.102813
| 23> *
| 24>
| 25>                          ****END OF INPUT****

CARTESIAN COORDINATES (ANGSTROEM)
---------------------------------
  C     -1.219673   -0.321138   -0.049877
  O     -1.472011   -1.346743    0.573195
  C     -0.023833    0.507594    0.165282
  C      1.227437   -0.014349   -0.077839
  H     -1.900118    0.061983   -0.833366
  H     -0.242704    1.450344    0.646092
  H      1.431324   -0.966240   -0.512609
  H      2.183505    0.568108    0.102813

 Total Charge           Charge          ....    0
 Multiplicity           Mult            ....    1
 Number of Electrons    NEL             ....   30
 Basis Dimension        Dim             ....   24

ORBITAL ENERGIES
----------------

  NO   OCC          E(Eh)            E(eV)
   0   2.0000     -20.368766      -554.2623
   1   2.0000     -11.293600      -307.3145
   2   2.0000     -11.189382      -304.4786
   3   2.0000     -11.184477      -304.3451
   4   2.0000      -1.392436       -37.8901
   5   2.0000      -1.064864       -28.9764
   6   2.0000      -0.890028       -24.2189
   7   2.0000      -0.760624       -20.6976
   8   2.0000      -0.681665       -18.5491
   9   2.0000      -0.622510       -16.9394
  10   2.0000      -0.606173       -16.4948
  11   2.0000      -0.543218       -14.7817
  12   2.0000      -0.497713       -13.5435
  13   2.0000      -0.412143       -11.2150
  14   2.0000      -0.388262       -10.5651
  15   0.0000       0.162755         4.4288
  16   0.0000       0.225674         6.1409
  17   0.0000       0.554974        15.1016
  18   0.0000       0.620550        16.8860
  19   0.0000       0.658938        17.9306

MULLIKEN ATOMIC CHARGES
-----------------------
   0 C :    0.161588
   1 O :   -0.340241
   2 C :   -0.172920
   3 C :   -0.220044
   4 H :    0.136887
   5 H :    0.151304
   6 H :    0.142901
   7 H :    0.140526
Sum of atomic charges:    0.0000000

LOEWDIN ATOMIC CHARGES
----------------------
   0 C :    0.149133
   1 O :   -0.250334
   2 C :   -0.128050
   3 C :   -0.128257
   4 H :    0.073973
   5 H :    0.099031
   6 H :    0.090421
   7 H :    0.094083

  Mayer bond orders larger than 0.100000
B(  0-C ,  1-O ) :   1.9367 B(  0-C ,  2-C ) :   1.0064 B(  0-C ,  4-H ) :   0.9206
B(  2-C ,  3-C ) :   1.9758 B(  2-C ,  5-H ) :   0.9516 B(  3-C ,  6-H ) :   0.9673
B(  3-C ,  7-H ) :   0.9649

-----------------------------------------------------------------------------
         ABSORPTION SPECTRUM VIA TRANSITION ELECTRIC DIPOLE MOMENTS
-----------------------------------------------------------------------------
State   Energy    Wavelength  fosc         T2        TX        TY        TZ
        (cm-1)      (nm)                 (au**2)    (au)      (au)      (au)
-----------------------------------------------------------------------------
   1   33364.5    299.7   0.000004257   0.00004  -0.00326  -0.00037   0.00559

Dispersion correction           -0.024958890
FINAL SINGLE POINT ENERGY      -189.327692301705

DIPOLE MOMENT
-------------
                                X             Y             Z
Electronic contribution:     -2.42710      -1.45835       0.68880
Nuclear contribution   :      2.85510       2.25893      -1.15782
                        -----------------------------------------
Total Dipole Moment    :      0.42799       0.80058      -0.46902
                        -----------------------------------------
Magnitude (a.u.)       :      1.02180
Magnitude (Debye)      :      2.59722

Rotational constants in cm-1:     0.819573     0.183303     0.160648
Rotational constants in MHz : 24570.172948  5495.283736  4816.117749

                             ****ORCA TERMINATED NORMALLY****
TOTAL RUN TIME: 0 days 0 hours 0 minutes 11 seconds 769 msec
