                         Program Version 5.0.3 -  RELEASE  -
|  1> ! B3LYP cc-pVDZ
|  2> !TightSCF
|  3> %scf
|  4>  ConvForced true
|  5>  convergence tight
|  6>  MaxIter 500
|  7> end
|  8>
|  9> %tddft
| 10>  nroots 1
| 11> end
| 12>
| 13> # 	23721
| 14> * xyz 0 1
| 15> 		C   -0.567730  -0.458807   0.011205
| 16> 		O   -0.603690  -1.629312  -0.021800
| 17> 		C    0.624210   0.407904   0.007040
| 18> 		C    1.852619  -0.127356   0.005233
| 19> 		H   -1.405339   0.162985   0.221881
| 20> 		H    0.518354   1.585591  -0.273483
| 21> 		H    2.023709  -1.109768   0.117462
| 22> 		H    2.682856   0.607882  -0.017575
| 23> *
| 24>
| 25>                          ****END OF INPUT****

CARTESIAN COORDINATES (ANGSTROEM)
---------------------------------
  C     -0.567730   -0.458807    0.011205
  O     -0.603690   -1.629312   -0.021800
  C      0.624210    0.407904    0.007040
  C      1.852619   -0.127356    0.005233
  H     -1.405339    0.162985    0.221881
  H      0.518354    1.585591   -0.273483
  H      2.023709   -1.109768    0.117462
  H      2.682856    0.607882   -0.017575

 Total Charge           Charge          ....    0
 Multiplicity           Mult            ....    1
 Number of Electrons    NEL             ....   30
 Basis Dimension        Dim             ....   76

ORBITAL ENERGIES
----------------

  NO   OCC          E(Eh)            E(eV)
   0   2.0000     -19.140257      -520.8329
   1   2.0000     -10.267079      -279.3814
   2   2.0000     -10.208543      -277.7886
   3   2.0000     -10.206048      -277.7207
   4   2.0000      -1.069235       -29.0954
   5   2.0000      -0.794716       -21.6253
   6   2.0000      -0.663829       -18.0637
   7   2.0000      -0.543128       -14.7793
   8   2.0000      -0.508491       -13.8367
   9   2.0000      -0.455322       -12.3900
  10   2.0000      -0.421696       -11.4749
  11   2.0000      -0.406781       -11.0691
  12   2.0000      -0.383158       -10.4263
  13   2.0000      -0.289368        -7.8741
  14   2.0000      -0.254767        -6.9326
  15   0.0000      -0.066381        -1.8063
  16   0.0000       0.046799         1.2735
  17   0.0000       0.071602         1.9484
  18   0.0000       0.099987         2.7208
  19   0.0000       0.124978         3.4008

MULLIKEN ATOMIC CHARGES
-----------------------
   0 C :    0.225643
   1 O :   -0.159407
   2 C :   -0.217486
   3 C :    0.135399
   4 H :   -0.044139
   5 H :    0.028716
   6 H :   -0.001072
   7 H :    0.032346
Sum of atomic charges:    0.0000000

LOEWDIN ATOMIC CHARGES
----------------------
   0 C :   -0.065609
   1 O :    0.039382
   2 C :   -0.091188
   3 C :    0.041317
   4 H :   -0.018813
   5 H :    0.049857
   6 H :    0.005031
   7 H :    0.040023

  Mayer bond orders larger than 0.100000
B(  0-C ,  1-O ) :   2.2496 B(  0-C ,  2-C ) :   1.0441 B(  0-C ,  4-H ) :   0.9150
B(  2-C ,  3-C ) :   1.9694 B(  2-C ,  5-H ) :   0.9301 B(  3-C ,  6-H ) :   0.9432
B(  3-C ,  7-H ) :   0.9417

-----------------------------------------------------------------------------
         ABSORPTION SPECTRUM VIA TRANSITION ELECTRIC DIPOLE MOMENTS
-----------------------------------------------------------------------------
State   Energy    Wavelength  fosc         T2        TX        TY        TZ
        (cm-1)      (nm)                 (au**2)    (au)      (au)      (au)
-----------------------------------------------------------------------------
   1   28732.6    348.0   0.000234945   0.00269  -0.03957  -0.00572   0.03307

FINAL SINGLE POINT ENERGY      -191.653373963626

DIPOLE MOMENT
-------------
                                X             Y             Z
Electronic contribution:     -1.99634      -2.14334      -0.05152
Nuclear contribution   :      2.42392       2.95667       0.04619
                        -----------------------------------------
Total Dipole Moment    :      0.42758       0.81333      -0.00532
                        -----------------------------------------
Magnitude (a.u.)       :      0.91889
Magnitude (Debye)      :      2.33564

Rotational constants in cm-1:     0.794652     0.206795     0.164571
Rotational constants in MHz : 23823.080235  6199.560483  4933.703914

                             ****ORCA TERMINATED NORMALLY****
TOTAL RUN TIME: 0 days 0 hours 3 minutes 21 seconds 524 msec
