                         Program Version 5.0.3 -  RELEASE  -
|  1> ! B3LYP cc-pVDZ
|  2> !TightSCF
|  3> %scf
|  4>  ConvForced true
|  5>  convergence tight
|  6>  MaxIter 500
|  7> end
|  8>
|  9> %tddft
| 10>  nroots 1
| 11> end
| 12>
| 13> # 	8915
| 14> * xyz 0 1
| 15> 		C   -1.236072  -0.344994   0.067254
| 16> 		O   -2.159598  -0.351216   0.822714
| 17> 		C   -0.038450   0.478458   0.309924
| 18> 		C    1.180954   0.075772  -0.301811
| 19> 		H   -1.204496  -0.928148  -0.863083
| 20> 		H    0.060437   1.274747   1.150377
| 21> 		H    1.210723  -0.726198  -1.031090
| 22> 		H    2.143710   0.557395  -0.107281
| 23> *
| 24>
| 25>                          ****END OF INPUT****

CARTESIAN COORDINATES (ANGSTROEM)
---------------------------------
  C     -1.236072   -0.344994    0.067254
  O     -2.159598   -0.351216    0.822714
  C     -0.038450    0.478458    0.309924
  C      1.180954    0.075772   -0.301811
  H     -1.204496   -0.928148   -0.863083
  H      0.060437    1.274747    1.150377
  H      1.210723   -0.726198   -1.031090
  H      2.143710    0.557395   -0.107281

 Total Charge           Charge          ....    0
 Multiplicity           Mult            ....    1
 Number of Electrons    NEL             ....   30
 Basis Dimension        Dim             ....   76

ORBITAL ENERGIES
----------------

  NO   OCC          E(Eh)            E(eV)
   0   2.0000     -19.136079      -520.7192
   1   2.0000     -10.274466      -279.5824
   2   2.0000     -10.227062      -278.2925
   3   2.0000     -10.221651      -278.1453
   4   2.0000      -1.055242       -28.7146
   5   2.0000      -0.784889       -21.3579
   6   2.0000      -0.646142       -17.5824
   7   2.0000      -0.568363       -15.4659
   8   2.0000      -0.477065       -12.9816
   9   2.0000      -0.464457       -12.6385
  10   2.0000      -0.418898       -11.3988
  11   2.0000      -0.400554       -10.8996
  12   2.0000      -0.388360       -10.5678
  13   2.0000      -0.281575        -7.6620
  14   2.0000      -0.256065        -6.9679
  15   0.0000      -0.068904        -1.8750
  16   0.0000       0.038448         1.0462
  17   0.0000       0.071447         1.9442
  18   0.0000       0.074211         2.0194
  19   0.0000       0.124198         3.3796

MULLIKEN ATOMIC CHARGES
-----------------------
   0 C :    0.202033
   1 O :   -0.182719
   2 C :   -0.113063
   3 C :    0.007486
   4 H :   -0.024901
   5 H :    0.035399
   6 H :    0.032162
   7 H :    0.043603
Sum of atomic charges:   -0.0000000

LOEWDIN ATOMIC CHARGES
----------------------
   0 C :   -0.059472
   1 O :    0.015496
   2 C :   -0.058529
   3 C :    0.008101
   4 H :   -0.006078
   5 H :    0.047546
   6 H :    0.022680
   7 H :    0.030256

  Mayer bond orders larger than 0.100000
B(  0-C ,  1-O ) :   2.1785 B(  0-C ,  2-C ) :   1.0633 B(  0-C ,  4-H ) :   0.9170
B(  2-C ,  3-C ) :   1.8938 B(  2-C ,  5-H ) :   0.9444 B(  3-C ,  6-H ) :   0.9537
B(  3-C ,  7-H ) :   0.9541

-----------------------------------------------------------------------------
         ABSORPTION SPECTRUM VIA TRANSITION ELECTRIC DIPOLE MOMENTS
-----------------------------------------------------------------------------
State   Energy    Wavelength  fosc         T2        TX        TY        TZ
        (cm-1)      (nm)                 (au**2)    (au)      (au)      (au)
-----------------------------------------------------------------------------
   1   28984.8    345.0   0.000806144   0.00916   0.09166   0.02652  -0.00716

FINAL SINGLE POINT ENERGY      -191.667107775438

DIPOLE MOMENT
-------------
                                X             Y             Z
Electronic contribution:     -3.27705      -0.26889       1.17062
Nuclear contribution   :      4.28943       0.35829      -1.67400
                        -----------------------------------------
Total Dipole Moment    :      1.01238       0.08940      -0.50338
                        -----------------------------------------
Magnitude (a.u.)       :      1.13415
Magnitude (Debye)      :      2.88278

Rotational constants in cm-1:     1.397737     0.154948     0.141571
Rotational constants in MHz : 41903.086459  4645.237041  4244.196191

                             ****ORCA TERMINATED NORMALLY****
TOTAL RUN TIME: 0 days 0 hours 3 minutes 23 seconds 254 msec
