                         Program Version 5.0.3 -  RELEASE  -
|  1> ! B3LYP cc-pVDZ
|  2> !TightSCF
|  3> %scf
|  4>  ConvForced true
|  5>  convergence tight
|  6>  MaxIter 500
|  7> end
|  8>
|  9> %tddft
| 10>  nroots 1
| 11> end
| 12>
| 13> # 	9433
| 14> * xyz 0 1
| 15> 		C   -1.204967  -0.319682  -0.100140
| 16> 		O   -1.672881  -0.991219  -0.938574
| 17> 		C    0.034721   0.470134  -0.262234
| 18> 		C    1.195822   0.047428   0.233531
| 19> 		H   -1.625605  -0.320821   0.901666
| 20> 		H   -0.057640   1.439563  -0.698779
| 21> 		H    1.182106  -1.039941   0.682761
| 22> 		H    2.173692   0.728103   0.199137
| 23> *
| 24>
| 25>                          ****END OF INPUT****

CARTESIAN COORDINATES (ANGSTROEM)
---------------------------------
  C     -1.204967   -0.319682   -0.100140
  O     -1.672881   -0.991219   -0.938574
  C      0.034721    0.470134   -0.262234
  C      1.195822    0.047428    0.233531
  H     -1.625605   -0.320821    0.901666
  H     -0.057640    1.439563   -0.698779
  H      1.182106   -1.039941    0.682761
  H      2.173692    0.728103    0.199137

 Total Charge           Charge          ....    0
 Multiplicity           Mult            ....    1
 Number of Electrons    NEL             ....   30
 Basis Dimension        Dim             ....   76

ORBITAL ENERGIES
----------------

  NO   OCC          E(Eh)            E(eV)
   0   2.0000     -19.144163      -520.9392
   1   2.0000     -10.275355      -279.6066
   2   2.0000     -10.218864      -278.0694
   3   2.0000     -10.199503      -277.5426
   4   2.0000      -1.074476       -29.2380
   5   2.0000      -0.795141       -21.6369
   6   2.0000      -0.640186       -17.4203
   7   2.0000      -0.560103       -15.2412
   8   2.0000      -0.496186       -13.5019
   9   2.0000      -0.459559       -12.5052
  10   2.0000      -0.439302       -11.9540
  11   2.0000      -0.392564       -10.6822
  12   2.0000      -0.377650       -10.2764
  13   2.0000      -0.285825        -7.7777
  14   2.0000      -0.255534        -6.9534
  15   0.0000      -0.033687        -0.9167
  16   0.0000       0.000216         0.0059
  17   0.0000       0.070512         1.9187
  18   0.0000       0.087482         2.3805
  19   0.0000       0.108169         2.9434

MULLIKEN ATOMIC CHARGES
-----------------------
   0 C :    0.169665
   1 O :   -0.149391
   2 C :   -0.050291
   3 C :   -0.049743
   4 H :   -0.022259
   5 H :    0.005880
   6 H :    0.040003
   7 H :    0.056135
Sum of atomic charges:    0.0000000

LOEWDIN ATOMIC CHARGES
----------------------
   0 C :   -0.046128
   1 O :    0.049747
   2 C :   -0.062843
   3 C :   -0.051617
   4 H :   -0.010792
   5 H :    0.028437
   6 H :    0.042117
   7 H :    0.051080

  Mayer bond orders larger than 0.100000
B(  0-C ,  1-O ) :   2.2710 B(  0-C ,  2-C ) :   0.9774 B(  0-C ,  4-H ) :   0.9177
B(  2-C ,  3-C ) :   2.0318 B(  2-C ,  5-H ) :   0.9398 B(  3-C ,  6-H ) :   0.9342
B(  3-C ,  7-H ) :   0.9357

-----------------------------------------------------------------------------
         ABSORPTION SPECTRUM VIA TRANSITION ELECTRIC DIPOLE MOMENTS
-----------------------------------------------------------------------------
State   Energy    Wavelength  fosc         T2        TX        TY        TZ
        (cm-1)      (nm)                 (au**2)    (au)      (au)      (au)
-----------------------------------------------------------------------------
   1   34127.9    293.0   0.000266214   0.00257  -0.00324   0.02174  -0.04566

FINAL SINGLE POINT ENERGY      -191.627575515015

DIPOLE MOMENT
-------------
                                X             Y             Z
Electronic contribution:     -2.76411      -1.04547      -1.51297
Nuclear contribution   :      3.20904       1.59368       2.04344
                        -----------------------------------------
Total Dipole Moment    :      0.44493       0.54820       0.53047
                        -----------------------------------------
Magnitude (a.u.)       :      0.88311
Magnitude (Debye)      :      2.24469

Rotational constants in cm-1:     1.076013     0.166214     0.160294
Rotational constants in MHz : 32258.069861  4982.974600  4805.485929

                             ****ORCA TERMINATED NORMALLY****
TOTAL RUN TIME: 0 days 0 hours 3 minutes 23 seconds 95 msec
