                         Program Version 5.0.3 -  RELEASE  -
|  1> ! B3LYP cc-pVDZ
|  2> !TightSCF
|  3> %scf
|  4>  ConvForced true
|  5>  convergence tight
|  6>  MaxIter 500
|  7> end
|  8>
|  9> %tddft
| 10>  nroots 1
| 11> end
| 12>
| 13> # 	9117
| 14> * xyz 0 1
| 15> 		C   -1.232174  -0.453852   0.039717
| 16> 		O   -2.158459  -0.748458  -0.729674
| 17> 		C    0.042471   0.315689  -0.413365
| 18> 		C    1.127410   0.212818   0.207027
| 19> 		H   -1.082854  -0.676658   0.952534
| 20> 		H   -0.132645   1.297851  -1.076227
| 21> 		H    1.288538  -0.709088   0.816300
| 22> 		H    2.102576   0.719435   0.159009
| 23> *
| 24>
| 25>                          ****END OF INPUT****

CARTESIAN COORDINATES (ANGSTROEM)
---------------------------------
  C     -1.232174   -0.453852    0.039717
  O     -2.158459   -0.748458   -0.729674
  C      0.042471    0.315689   -0.413365
  C      1.127410    0.212818    0.207027
  H     -1.082854   -0.676658    0.952534
  H     -0.132645    1.297851   -1.076227
  H      1.288538   -0.709088    0.816300
  H      2.102576    0.719435    0.159009

 Total Charge           Charge          ....    0
 Multiplicity           Mult            ....    1
 Number of Electrons    NEL             ....   30
 Basis Dimension        Dim             ....   76

ORBITAL ENERGIES
----------------

  NO   OCC          E(Eh)            E(eV)
   0   2.0000     -19.150873      -521.1217
   1   2.0000     -10.279300      -279.7140
   2   2.0000     -10.206152      -277.7235
   3   2.0000     -10.203459      -277.6502
   4   2.0000      -1.036743       -28.2112
   5   2.0000      -0.812487       -22.1089
   6   2.0000      -0.664239       -18.0749
   7   2.0000      -0.572819       -15.5872
   8   2.0000      -0.480906       -13.0861
   9   2.0000      -0.470581       -12.8051
  10   2.0000      -0.436457       -11.8766
  11   2.0000      -0.387802       -10.5526
  12   2.0000      -0.355906        -9.6847
  13   2.0000      -0.303566        -8.2604
  14   2.0000      -0.260402        -7.0859
  15   0.0000      -0.062930        -1.7124
  16   0.0000       0.027027         0.7354
  17   0.0000       0.073956         2.0124
  18   0.0000       0.080144         2.1808
  19   0.0000       0.127452         3.4682

MULLIKEN ATOMIC CHARGES
-----------------------
   0 C :    0.285433
   1 O :   -0.208055
   2 C :   -0.151070
   3 C :    0.045360
   4 H :   -0.050773
   5 H :    0.031343
   6 H :    0.016251
   7 H :    0.031512
Sum of atomic charges:   -0.0000000

LOEWDIN ATOMIC CHARGES
----------------------
   0 C :    0.035259
   1 O :   -0.007686
   2 C :   -0.071298
   3 C :   -0.035662
   4 H :   -0.035439
   5 H :    0.049165
   6 H :    0.030720
   7 H :    0.034942

  Mayer bond orders larger than 0.100000
B(  0-C ,  1-O ) :   2.1789 B(  0-C ,  2-C ) :   1.0085 B(  0-C ,  4-H ) :   0.9400
B(  2-C ,  3-C ) :   1.9913 B(  2-C ,  5-H ) :   0.9345 B(  3-C ,  6-H ) :   0.9291
B(  3-C ,  7-H ) :   0.9439

-----------------------------------------------------------------------------
         ABSORPTION SPECTRUM VIA TRANSITION ELECTRIC DIPOLE MOMENTS
-----------------------------------------------------------------------------
State   Energy    Wavelength  fosc         T2        TX        TY        TZ
        (cm-1)      (nm)                 (au**2)    (au)      (au)      (au)
-----------------------------------------------------------------------------
   1   29091.4    343.7   0.000017384   0.00020  -0.00819   0.00790   0.00820

FINAL SINGLE POINT ENERGY      -191.621896148066

DIPOLE MOMENT
-------------
                                X             Y             Z
Electronic contribution:     -3.35946      -0.99617      -1.04650
Nuclear contribution   :      4.23272       1.28308       1.64947
                        -----------------------------------------
Total Dipole Moment    :      0.87326       0.28691       0.60297
                        -----------------------------------------
Magnitude (a.u.)       :      1.09931
Magnitude (Debye)      :      2.79422

Rotational constants in cm-1:     1.512730     0.151105     0.140751
Rotational constants in MHz : 45350.503144  4530.012042  4219.596053

                             ****ORCA TERMINATED NORMALLY****
TOTAL RUN TIME: 0 days 0 hours 3 minutes 21 seconds 488 msec
