                         Program Version 5.0.3 -  RELEASE  -
|  1> ! B3LYP cc-pVDZ
|  2> !TightSCF
|  3> %scf
|  4>  ConvForced true
|  5>  convergence tight
|  6>  MaxIter 500
|  7> end
|  8>
|  9> %tddft
| 10>  nroots 1
| 11> end
| 12>
| 13> # 	23126
| 14> * xyz 0 1
| 15> 		C   -0.587124  -0.434443   0.001826
| 16> 		O   -0.607972  -1.653355   0.000980
| 17> 		C    0.641357   0.433411  -0.013765
| 18> 		C    1.872184  -0.119319   0.035697
| 19> 		H   -1.607291  -0.015812   0.011311
| 20> 		H    0.439139   1.473332  -0.026812
| 21> 		H    2.128216  -1.103582  -0.214326
| 22> 		H    2.703205   0.574632  -0.070870
| 23> *
| 24>
| 25>                          ****END OF INPUT****

CARTESIAN COORDINATES (ANGSTROEM)
---------------------------------
  C     -0.587124   -0.434443    0.001826
  O     -0.607972   -1.653355    0.000980
  C      0.641357    0.433411   -0.013765
  C      1.872184   -0.119319    0.035697
  H     -1.607291   -0.015812    0.011311
  H      0.439139    1.473332   -0.026812
  H      2.128216   -1.103582   -0.214326
  H      2.703205    0.574632   -0.070870

 Total Charge           Charge          ....    0
 Multiplicity           Mult            ....    1
 Number of Electrons    NEL             ....   30
 Basis Dimension        Dim             ....   76

ORBITAL ENERGIES
----------------

  NO   OCC          E(Eh)            E(eV)
   0   2.0000     -19.132990      -520.6351
   1   2.0000     -10.271511      -279.5020
   2   2.0000     -10.212461      -277.8952
   3   2.0000     -10.211253      -277.8623
   4   2.0000      -1.037960       -28.2443
   5   2.0000      -0.793952       -21.6045
   6   2.0000      -0.656859       -17.8741
   7   2.0000      -0.550736       -14.9863
   8   2.0000      -0.506963       -13.7952
   9   2.0000      -0.453106       -12.3296
  10   2.0000      -0.419556       -11.4167
  11   2.0000      -0.392882       -10.6909
  12   2.0000      -0.386037       -10.5046
  13   2.0000      -0.288166        -7.8414
  14   2.0000      -0.249129        -6.7791
  15   0.0000      -0.073403        -1.9974
  16   0.0000       0.053026         1.4429
  17   0.0000       0.070128         1.9083
  18   0.0000       0.098003         2.6668
  19   0.0000       0.120728         3.2852

MULLIKEN ATOMIC CHARGES
-----------------------
   0 C :    0.174132
   1 O :   -0.199906
   2 C :   -0.095803
   3 C :    0.094791
   4 H :   -0.023816
   5 H :   -0.010748
   6 H :    0.030922
   7 H :    0.030427
Sum of atomic charges:   -0.0000000

LOEWDIN ATOMIC CHARGES
----------------------
   0 C :   -0.029090
   1 O :   -0.017380
   2 C :   -0.062801
   3 C :    0.034115
   4 H :   -0.005996
   5 H :    0.022450
   6 H :    0.024906
   7 H :    0.033796

  Mayer bond orders larger than 0.100000
B(  0-C ,  1-O ) :   2.1841 B(  0-C ,  2-C ) :   1.0385 B(  0-C ,  4-H ) :   0.9305
B(  2-C ,  3-C ) :   1.9554 B(  2-C ,  5-H ) :   0.9493 B(  3-C ,  6-H ) :   0.9474
B(  3-C ,  7-H ) :   0.9447

-----------------------------------------------------------------------------
         ABSORPTION SPECTRUM VIA TRANSITION ELECTRIC DIPOLE MOMENTS
-----------------------------------------------------------------------------
State   Energy    Wavelength  fosc         T2        TX        TY        TZ
        (cm-1)      (nm)                 (au**2)    (au)      (au)      (au)
-----------------------------------------------------------------------------
   1   25904.1    386.0   0.000091877   0.00117   0.02271  -0.00478   0.02509

FINAL SINGLE POINT ENERGY      -191.679116181191

DIPOLE MOMENT
-------------
                                X             Y             Z
Electronic contribution:     -1.86363      -1.74072       0.20403
Nuclear contribution   :      2.27843       2.65852      -0.28195
                        -----------------------------------------
Total Dipole Moment    :      0.41480       0.91781      -0.07793
                        -----------------------------------------
Magnitude (a.u.)       :      1.01020
Magnitude (Debye)      :      2.56772

Rotational constants in cm-1:     0.769926     0.200538     0.159309
Rotational constants in MHz : 23081.815183  6011.984270  4775.956584

                             ****ORCA TERMINATED NORMALLY****
TOTAL RUN TIME: 0 days 0 hours 3 minutes 21 seconds 518 msec
