                         Program Version 5.0.3 -  RELEASE  -
|  1> ! B3LYP cc-pVDZ
|  2> !TightSCF
|  3> %scf
|  4>  ConvForced true
|  5>  convergence tight
|  6>  MaxIter 500
|  7> end
|  8>
|  9> %tddft
| 10>  nroots 1
| 11> end
| 12>
| 13> # 	5144
| 14> * xyz 0 1
| 15> 		C   -1.148376  -0.325195  -0.022113
| 16> 		O   -1.335670  -1.412165  -0.472218
| 17> 		C    0.020408   0.566638  -0.105517
| 18> 		C    1.290381   0.073480   0.122753
| 19> 		H   -2.011555   0.033754   0.494664
| 20> 		H   -0.228100   1.532753  -0.362959
| 21> 		H    1.297836  -1.018179   0.274145
| 22> 		H    2.170744   0.630361   0.052955
| 23> *
| 24>
| 25>                          ****END OF INPUT****

CARTESIAN COORDINATES (ANGSTROEM)
---------------------------------
  C     -1.148376   -0.325195   -0.022113
  O     -1.335670   -1.412165   -0.472218
  C      0.020408    0.566638   -0.105517
  C      1.290381    0.073480    0.122753
  H     -2.011555    0.033754    0.494664
  H     -0.228100    1.532753   -0.362959
  H      1.297836   -1.018179    0.274145
  H      2.170744    0.630361    0.052955

 Total Charge           Charge          ....    0
 Multiplicity           Mult            ....    1
 Number of Electrons    NEL             ....   30
 Basis Dimension        Dim             ....   76

ORBITAL ENERGIES
----------------

  NO   OCC          E(Eh)            E(eV)
   0   2.0000     -19.135302      -520.6980
   1   2.0000     -10.267001      -279.3793
   2   2.0000     -10.215396      -277.9751
   3   2.0000     -10.207501      -277.7602
   4   2.0000      -1.055883       -28.7320
   5   2.0000      -0.793586       -21.5946
   6   2.0000      -0.661866       -18.0103
   7   2.0000      -0.553713       -15.0673
   8   2.0000      -0.514208       -13.9923
   9   2.0000      -0.449176       -12.2227
  10   2.0000      -0.440241       -11.9796
  11   2.0000      -0.399886       -10.8815
  12   2.0000      -0.384718       -10.4687
  13   2.0000      -0.284094        -7.7306
  14   2.0000      -0.248996        -6.7755
  15   0.0000      -0.057465        -1.5637
  16   0.0000       0.024859         0.6765
  17   0.0000       0.084198         2.2912
  18   0.0000       0.095226         2.5912
  19   0.0000       0.123888         3.3712

MULLIKEN ATOMIC CHARGES
-----------------------
   0 C :    0.174008
   1 O :   -0.177201
   2 C :   -0.079037
   3 C :    0.076503
   4 H :   -0.036625
   5 H :   -0.018399
   6 H :    0.037082
   7 H :    0.023669
Sum of atomic charges:    0.0000000

LOEWDIN ATOMIC CHARGES
----------------------
   0 C :   -0.044447
   1 O :    0.016230
   2 C :   -0.048949
   3 C :    0.020055
   4 H :   -0.013511
   5 H :    0.015302
   6 H :    0.037915
   7 H :    0.017405

  Mayer bond orders larger than 0.100000
B(  0-C ,  1-O ) :   2.2227 B(  0-C ,  2-C ) :   1.0300 B(  0-C ,  4-H ) :   0.9259
B(  2-C ,  3-C ) :   1.9721 B(  2-C ,  5-H ) :   0.9527 B(  3-C ,  6-H ) :   0.9369
B(  3-C ,  7-H ) :   0.9541

-----------------------------------------------------------------------------
         ABSORPTION SPECTRUM VIA TRANSITION ELECTRIC DIPOLE MOMENTS
-----------------------------------------------------------------------------
State   Energy    Wavelength  fosc         T2        TX        TY        TZ
        (cm-1)      (nm)                 (au**2)    (au)      (au)      (au)
-----------------------------------------------------------------------------
   1   29349.3    340.7   0.000617041   0.00692  -0.08239   0.00207  -0.01136

FINAL SINGLE POINT ENERGY      -191.655241518726

DIPOLE MOMENT
-------------
                                X             Y             Z
Electronic contribution:     -1.90456      -1.43879      -0.63645
Nuclear contribution   :      2.35488       2.26917       0.90401
                        -----------------------------------------
Total Dipole Moment    :      0.45032       0.83038       0.26756
                        -----------------------------------------
Magnitude (a.u.)       :      0.98179
Magnitude (Debye)      :      2.49551

Rotational constants in cm-1:     0.854256     0.187670     0.158745
Rotational constants in MHz : 25609.941101  5626.202300  4759.047293

                             ****ORCA TERMINATED NORMALLY****
TOTAL RUN TIME: 0 days 0 hours 3 minutes 4 seconds 781 msec
