                         Program Version 5.0.3 -  RELEASE  -
|  1> ! HF-3c
|  2> !TightSCF
|  3> %scf
|  4>  ConvForced true
|  5>  convergence tight
|  6>  MaxIter 500
|  7> end
|  8>
|  9> %tddft
| 10>  nroots 1
| 11> end
| 12>
| 13> # 	15079
| 14> * xyz 0 1
| 15> 		C   -1.174342  -0.348870   0.125107
| 16> 		O   -2.230598  -0.050459   0.577099
| 17> 		C    0.019701   0.471069   0.368425
| 18> 		C    1.137724   0.200434  -0.415431
| 19> 		H   -1.079776  -1.388426  -0.604428
| 20> 		H    0.013073   1.156309   1.199662
| 21> 		H    1.240345  -0.718251  -1.113187
| 22> 		H    2.077955   0.610534  -0.191427
| 23> *
| 24>
| 25>                          ****END OF INPUT****

CARTESIAN COORDINATES (ANGSTROEM)
---------------------------------
  C     -1.174342   -0.348870    0.125107
  O     -2.230598   -0.050459    0.577099
  C      0.019701    0.471069    0.368425
  C      1.137724    0.200434   -0.415431
  H     -1.079776   -1.388426   -0.604428
  H      0.013073    1.156309    1.199662
  H      1.240345   -0.718251   -1.113187
  H      2.077955    0.610534   -0.191427

 Total Charge           Charge          ....    0
 Multiplicity           Mult            ....    1
 Number of Electrons    NEL             ....   30
 Basis Dimension        Dim             ....   24

ORBITAL ENERGIES
----------------

  NO   OCC          E(Eh)            E(eV)
   0   2.0000     -20.359894      -554.0209
   1   2.0000     -11.293112      -307.3012
   2   2.0000     -11.190959      -304.5215
   3   2.0000     -11.189270      -304.4755
   4   2.0000      -1.412892       -38.4467
   5   2.0000      -1.066048       -29.0087
   6   2.0000      -0.866845       -23.5880
   7   2.0000      -0.754468       -20.5301
   8   2.0000      -0.653592       -17.7852
   9   2.0000      -0.643704       -17.5161
  10   2.0000      -0.569534       -15.4978
  11   2.0000      -0.544162       -14.8074
  12   2.0000      -0.537491       -14.6259
  13   2.0000      -0.395474       -10.7614
  14   2.0000      -0.381467       -10.3802
  15   0.0000       0.128998         3.5102
  16   0.0000       0.298762         8.1297
  17   0.0000       0.469471        12.7750
  18   0.0000       0.545215        14.8360
  19   0.0000       0.662835        18.0367

MULLIKEN ATOMIC CHARGES
-----------------------
   0 C :    0.185494
   1 O :   -0.367323
   2 C :   -0.171488
   3 C :   -0.214769
   4 H :    0.127550
   5 H :    0.159870
   6 H :    0.143320
   7 H :    0.137346
Sum of atomic charges:   -0.0000000

LOEWDIN ATOMIC CHARGES
----------------------
   0 C :    0.144663
   1 O :   -0.263994
   2 C :   -0.126221
   3 C :   -0.119649
   4 H :    0.078041
   5 H :    0.103922
   6 H :    0.098629
   7 H :    0.084607

  Mayer bond orders larger than 0.100000
B(  0-C ,  1-O ) :   1.9041 B(  0-C ,  2-C ) :   1.0322 B(  0-C ,  4-H ) :   0.9006
B(  2-C ,  3-C ) :   1.9330 B(  2-C ,  5-H ) :   0.9554 B(  3-C ,  6-H ) :   0.9641
B(  3-C ,  7-H ) :   0.9693

-----------------------------------------------------------------------------
         ABSORPTION SPECTRUM VIA TRANSITION ELECTRIC DIPOLE MOMENTS
-----------------------------------------------------------------------------
State   Energy    Wavelength  fosc         T2        TX        TY        TZ
        (cm-1)      (nm)                 (au**2)    (au)      (au)      (au)
-----------------------------------------------------------------------------
   1   33882.1    295.1   0.000035025   0.00034  -0.00201   0.00957   0.01564

Dispersion correction           -0.025119321
FINAL SINGLE POINT ENERGY      -189.306908639946

DIPOLE MOMENT
-------------
                                X             Y             Z
Electronic contribution:     -3.21165       0.22195       0.90511
Nuclear contribution   :      4.33873      -0.50271      -1.29243
                        -----------------------------------------
Total Dipole Moment    :      1.12708      -0.28076      -0.38732
                        -----------------------------------------
Magnitude (a.u.)       :      1.22440
Magnitude (Debye)      :      3.11217

Rotational constants in cm-1:     1.395023     0.158603     0.143141
Rotational constants in MHz : 41821.750164  4754.793960  4291.264764

                             ****ORCA TERMINATED NORMALLY****
TOTAL RUN TIME: 0 days 0 hours 0 minutes 16 seconds 89 msec
