                         Program Version 5.0.3 -  RELEASE  -
|  1> ! HF-3c
|  2> !TightSCF
|  3> %scf
|  4>  ConvForced true
|  5>  convergence tight
|  6>  MaxIter 500
|  7> end
|  8>
|  9> %tddft
| 10>  nroots 1
| 11> end
| 12>
| 13> # 	10723
| 14> * xyz 0 1
| 15> 		C   -1.227062  -0.313868  -0.020337
| 16> 		O   -1.241081  -1.468706  -0.328374
| 17> 		C    0.021702   0.492473  -0.119561
| 18> 		C    1.248429   0.013876   0.120058
| 19> 		H   -2.137758   0.281362   0.527581
| 20> 		H   -0.008171   1.536115  -0.315534
| 21> 		H    1.084835  -1.209598   0.195503
| 22> 		H    2.278112   0.673861   0.015606
| 23> *
| 24>
| 25>                          ****END OF INPUT****

CARTESIAN COORDINATES (ANGSTROEM)
---------------------------------
  C     -1.227062   -0.313868   -0.020337
  O     -1.241081   -1.468706   -0.328374
  C      0.021702    0.492473   -0.119561
  C      1.248429    0.013876    0.120058
  H     -2.137758    0.281362    0.527581
  H     -0.008171    1.536115   -0.315534
  H      1.084835   -1.209598    0.195503
  H      2.278112    0.673861    0.015606

 Total Charge           Charge          ....    0
 Multiplicity           Mult            ....    1
 Number of Electrons    NEL             ....   30
 Basis Dimension        Dim             ....   24

ORBITAL ENERGIES
----------------

  NO   OCC          E(Eh)            E(eV)
   0   2.0000     -20.369377      -554.2789
   1   2.0000     -11.299588      -307.4774
   2   2.0000     -11.171418      -303.9897
   3   2.0000     -11.164032      -303.7887
   4   2.0000      -1.413798       -38.4714
   5   2.0000      -1.060198       -28.8495
   6   2.0000      -0.857541       -23.3349
   7   2.0000      -0.713009       -19.4020
   8   2.0000      -0.691081       -18.8053
   9   2.0000      -0.601248       -16.3608
  10   2.0000      -0.583036       -15.8652
  11   2.0000      -0.529234       -14.4012
  12   2.0000      -0.485397       -13.2083
  13   2.0000      -0.404126       -10.9968
  14   2.0000      -0.384740       -10.4693
  15   0.0000       0.154567         4.2060
  16   0.0000       0.290527         7.9056
  17   0.0000       0.460912        12.5421
  18   0.0000       0.502842        13.6830
  19   0.0000       0.581943        15.8355

MULLIKEN ATOMIC CHARGES
-----------------------
   0 C :    0.185553
   1 O :   -0.364874
   2 C :   -0.203873
   3 C :   -0.199689
   4 H :    0.137610
   5 H :    0.130761
   6 H :    0.158420
   7 H :    0.156091
Sum of atomic charges:   -0.0000000

LOEWDIN ATOMIC CHARGES
----------------------
   0 C :    0.155570
   1 O :   -0.263558
   2 C :   -0.163581
   3 C :   -0.124292
   4 H :    0.082898
   5 H :    0.080034
   6 H :    0.117270
   7 H :    0.115659

  Mayer bond orders larger than 0.100000
B(  0-C ,  1-O ) :   1.9225 B(  0-C ,  2-C ) :   1.0087 B(  0-C ,  4-H ) :   0.9042
B(  2-C ,  3-C ) :   1.9544 B(  2-C ,  5-H ) :   0.9597 B(  3-C ,  6-H ) :   0.9470
B(  3-C ,  7-H ) :   0.9547

-----------------------------------------------------------------------------
         ABSORPTION SPECTRUM VIA TRANSITION ELECTRIC DIPOLE MOMENTS
-----------------------------------------------------------------------------
State   Energy    Wavelength  fosc         T2        TX        TY        TZ
        (cm-1)      (nm)                 (au**2)    (au)      (au)      (au)
-----------------------------------------------------------------------------
   1   35252.3    283.7   0.000117718   0.00110   0.02928   0.00279  -0.01531

Dispersion correction           -0.025582639
FINAL SINGLE POINT ENERGY      -189.281911120399

DIPOLE MOMENT
-------------
                                X             Y             Z
Electronic contribution:     -2.00137      -1.65161      -0.44702
Nuclear contribution   :      2.34055       2.51765       0.73253
                        -----------------------------------------
Total Dipole Moment    :      0.33918       0.86603       0.28551
                        -----------------------------------------
Magnitude (a.u.)       :      0.97292
Magnitude (Debye)      :      2.47296

Rotational constants in cm-1:     0.791991     0.199300     0.163127
Rotational constants in MHz : 23743.297167  5974.862470  4890.426780

                             ****ORCA TERMINATED NORMALLY****
TOTAL RUN TIME: 0 days 0 hours 0 minutes 11 seconds 804 msec
