                         Program Version 5.0.3 -  RELEASE  -
|  1> ! B3LYP cc-pVDZ
|  2> !TightSCF
|  3> %scf
|  4>  ConvForced true
|  5>  convergence tight
|  6>  MaxIter 500
|  7> end
|  8>
|  9> %tddft
| 10>  nroots 1
| 11> end
| 12>
| 13> # 	6485
| 14> * xyz 0 1
| 15> 		C   -1.149470  -0.238467  -0.005013
| 16> 		O   -1.377256  -1.394180   0.557388
| 17> 		C    0.012072   0.478915   0.168377
| 18> 		C    1.217249   0.085750  -0.129575
| 19> 		H   -1.987924   0.040276  -0.710453
| 20> 		H    0.005059   1.614798   0.458390
| 21> 		H    1.130195  -1.164625  -0.285835
| 22> 		H    2.178956   0.546017  -0.108137
| 23> *
| 24>
| 25>                          ****END OF INPUT****

CARTESIAN COORDINATES (ANGSTROEM)
---------------------------------
  C     -1.149470   -0.238467   -0.005013
  O     -1.377256   -1.394180    0.557388
  C      0.012072    0.478915    0.168377
  C      1.217249    0.085750   -0.129575
  H     -1.987924    0.040276   -0.710453
  H      0.005059    1.614798    0.458390
  H      1.130195   -1.164625   -0.285835
  H      2.178956    0.546017   -0.108137

 Total Charge           Charge          ....    0
 Multiplicity           Mult            ....    1
 Number of Electrons    NEL             ....   30
 Basis Dimension        Dim             ....   76

ORBITAL ENERGIES
----------------

  NO   OCC          E(Eh)            E(eV)
   0   2.0000     -19.138825      -520.7939
   1   2.0000     -10.282527      -279.8018
   2   2.0000     -10.223086      -278.1843
   3   2.0000     -10.214231      -277.9433
   4   2.0000      -1.001520       -27.2528
   5   2.0000      -0.817008       -22.2319
   6   2.0000      -0.670862       -18.2551
   7   2.0000      -0.542007       -14.7488
   8   2.0000      -0.507631       -13.8133
   9   2.0000      -0.470252       -12.7962
  10   2.0000      -0.423792       -11.5320
  11   2.0000      -0.365047        -9.9334
  12   2.0000      -0.340021        -9.2524
  13   2.0000      -0.294975        -8.0267
  14   2.0000      -0.254432        -6.9235
  15   0.0000      -0.067620        -1.8400
  16   0.0000       0.001312         0.0357
  17   0.0000       0.071252         1.9389
  18   0.0000       0.072754         1.9797
  19   0.0000       0.100596         2.7374

MULLIKEN ATOMIC CHARGES
-----------------------
   0 C :    0.159618
   1 O :   -0.259462
   2 C :   -0.035649
   3 C :    0.007475
   4 H :    0.021519
   5 H :    0.025072
   6 H :    0.049636
   7 H :    0.031790
Sum of atomic charges:   -0.0000000

LOEWDIN ATOMIC CHARGES
----------------------
   0 C :    0.013700
   1 O :   -0.081698
   2 C :   -0.087566
   3 C :   -0.000895
   4 H :    0.020691
   5 H :    0.053508
   6 H :    0.056051
   7 H :    0.026209

  Mayer bond orders larger than 0.100000
B(  0-C ,  1-O ) :   2.0858 B(  0-C ,  2-C ) :   1.0478 B(  0-C ,  4-H ) :   0.9407
B(  2-C ,  3-C ) :   1.9852 B(  2-C ,  5-H ) :   0.9167 B(  3-C ,  6-H ) :   0.9219
B(  3-C ,  7-H ) :   0.9451

-----------------------------------------------------------------------------
         ABSORPTION SPECTRUM VIA TRANSITION ELECTRIC DIPOLE MOMENTS
-----------------------------------------------------------------------------
State   Energy    Wavelength  fosc         T2        TX        TY        TZ
        (cm-1)      (nm)                 (au**2)    (au)      (au)      (au)
-----------------------------------------------------------------------------
   1   26463.7    377.9   0.000014560   0.00018  -0.00565   0.00040  -0.01221

FINAL SINGLE POINT ENERGY      -191.633962648499

DIPOLE MOMENT
-------------
                                X             Y             Z
Electronic contribution:     -2.03267      -1.14251       0.78365
Nuclear contribution   :      2.55036       2.11720      -1.18063
                        -----------------------------------------
Total Dipole Moment    :      0.51769       0.97469      -0.39698
                        -----------------------------------------
Magnitude (a.u.)       :      1.17286
Magnitude (Debye)      :      2.98118

Rotational constants in cm-1:     0.852203     0.190176     0.163811
Rotational constants in MHz : 25548.417805  5701.324355  4910.924221

                             ****ORCA TERMINATED NORMALLY****
TOTAL RUN TIME: 0 days 0 hours 3 minutes 22 seconds 224 msec
