                         Program Version 5.0.3 -  RELEASE  -
|  1> ! HF-3c
|  2> !TightSCF
|  3> %scf
|  4>  ConvForced true
|  5>  convergence tight
|  6>  MaxIter 500
|  7> end
|  8>
|  9> %tddft
| 10>  nroots 1
| 11> end
| 12>
| 13> # 	3946
| 14> * xyz 0 1
| 15> 		C   -1.227076  -0.324781  -0.046421
| 16> 		O   -1.494020  -1.228396   0.685598
| 17> 		C   -0.030310   0.555871   0.166758
| 18> 		C    1.224760   0.059091  -0.158381
| 19> 		H   -1.701581  -0.122313  -0.941970
| 20> 		H   -0.077087   1.344270   0.799084
| 21> 		H    1.176829  -1.022291  -0.619005
| 22> 		H    2.172977   0.731777   0.106792
| 23> *
| 24>
| 25>                          ****END OF INPUT****

CARTESIAN COORDINATES (ANGSTROEM)
---------------------------------
  C     -1.227076   -0.324781   -0.046421
  O     -1.494020   -1.228396    0.685598
  C     -0.030310    0.555871    0.166758
  C      1.224760    0.059091   -0.158381
  H     -1.701581   -0.122313   -0.941970
  H     -0.077087    1.344270    0.799084
  H      1.176829   -1.022291   -0.619005
  H      2.172977    0.731777    0.106792

 Total Charge           Charge          ....    0
 Multiplicity           Mult            ....    1
 Number of Electrons    NEL             ....   30
 Basis Dimension        Dim             ....   24

ORBITAL ENERGIES
----------------

  NO   OCC          E(Eh)            E(eV)
   0   2.0000     -20.387695      -554.7774
   1   2.0000     -11.307427      -307.6907
   2   2.0000     -11.172898      -304.0300
   3   2.0000     -11.167575      -303.8852
   4   2.0000      -1.424054       -38.7505
   5   2.0000      -1.057503       -28.7761
   6   2.0000      -0.876486       -23.8504
   7   2.0000      -0.770686       -20.9714
   8   2.0000      -0.690710       -18.7952
   9   2.0000      -0.626611       -17.0509
  10   2.0000      -0.586370       -15.9559
  11   2.0000      -0.540299       -14.7023
  12   2.0000      -0.509887       -13.8747
  13   2.0000      -0.416361       -11.3298
  14   2.0000      -0.378702       -10.3050
  15   0.0000       0.191213         5.2032
  16   0.0000       0.200584         5.4582
  17   0.0000       0.506880        13.7929
  18   0.0000       0.565047        15.3757
  19   0.0000       0.682100        18.5609

MULLIKEN ATOMIC CHARGES
-----------------------
   0 C :    0.165081
   1 O :   -0.338955
   2 C :   -0.194793
   3 C :   -0.207167
   4 H :    0.140287
   5 H :    0.143158
   6 H :    0.142970
   7 H :    0.149419
Sum of atomic charges:   -0.0000000

LOEWDIN ATOMIC CHARGES
----------------------
   0 C :    0.152810
   1 O :   -0.237065
   2 C :   -0.151436
   3 C :   -0.127927
   4 H :    0.069075
   5 H :    0.087291
   6 H :    0.100317
   7 H :    0.106934

  Mayer bond orders larger than 0.100000
B(  0-C ,  1-O ) :   1.9533 B(  0-C ,  2-C ) :   0.9795 B(  0-C ,  4-H ) :   0.9249
B(  2-C ,  3-C ) :   1.9845 B(  2-C ,  5-H ) :   0.9586 B(  3-C ,  6-H ) :   0.9623
B(  3-C ,  7-H ) :   0.9588

-----------------------------------------------------------------------------
         ABSORPTION SPECTRUM VIA TRANSITION ELECTRIC DIPOLE MOMENTS
-----------------------------------------------------------------------------
State   Energy    Wavelength  fosc         T2        TX        TY        TZ
        (cm-1)      (nm)                 (au**2)    (au)      (au)      (au)
-----------------------------------------------------------------------------
   1   35104.1    284.9   0.000048814   0.00046   0.01989   0.00789  -0.00022

Dispersion correction           -0.025412630
FINAL SINGLE POINT ENERGY      -189.287030162901

DIPOLE MOMENT
-------------
                                X             Y             Z
Electronic contribution:     -2.50006      -1.28384       0.75418
Nuclear contribution   :      2.97809       1.87907      -1.26649
                        -----------------------------------------
Total Dipole Moment    :      0.47803       0.59523      -0.51231
                        -----------------------------------------
Magnitude (a.u.)       :      0.91939
Magnitude (Debye)      :      2.33689

Rotational constants in cm-1:     0.871293     0.178130     0.163497
Rotational constants in MHz : 26120.718422  5340.198554  4901.509111

                             ****ORCA TERMINATED NORMALLY****
TOTAL RUN TIME: 0 days 0 hours 0 minutes 12 seconds 844 msec
