                         Program Version 5.0.3 -  RELEASE  -
|  1> ! B3LYP cc-pVDZ
|  2> !TightSCF
|  3> %scf
|  4>  ConvForced true
|  5>  convergence tight
|  6>  MaxIter 500
|  7> end
|  8>
|  9> %tddft
| 10>  nroots 1
| 11> end
| 12>
| 13> # 	23673
| 14> * xyz 0 1
| 15> 		C   -0.527828  -0.446593   0.031333
| 16> 		O   -0.528127  -1.572617  -0.023843
| 17> 		C    0.555612   0.468494  -0.067883
| 18> 		C    1.813520  -0.233748   0.008693
| 19> 		H   -1.471292   0.086584   0.327333
| 20> 		H    0.472768   1.564621   0.029679
| 21> 		H    1.666937  -1.275075   0.232227
| 22> 		H    2.717807   0.341786   0.120154
| 23> *
| 24>
| 25>                          ****END OF INPUT****

CARTESIAN COORDINATES (ANGSTROEM)
---------------------------------
  C     -0.527828   -0.446593    0.031333
  O     -0.528127   -1.572617   -0.023843
  C      0.555612    0.468494   -0.067883
  C      1.813520   -0.233748    0.008693
  H     -1.471292    0.086584    0.327333
  H      0.472768    1.564621    0.029679
  H      1.666937   -1.275075    0.232227
  H      2.717807    0.341786    0.120154

 Total Charge           Charge          ....    0
 Multiplicity           Mult            ....    1
 Number of Electrons    NEL             ....   30
 Basis Dimension        Dim             ....   76

ORBITAL ENERGIES
----------------

  NO   OCC          E(Eh)            E(eV)
   0   2.0000     -19.132142      -520.6121
   1   2.0000     -10.260385      -279.1993
   2   2.0000     -10.222436      -278.1666
   3   2.0000     -10.208544      -277.7886
   4   2.0000      -1.093880       -29.7660
   5   2.0000      -0.788386       -21.4531
   6   2.0000      -0.655948       -17.8493
   7   2.0000      -0.532049       -14.4778
   8   2.0000      -0.522555       -14.2195
   9   2.0000      -0.455098       -12.3839
  10   2.0000      -0.429014       -11.6741
  11   2.0000      -0.408417       -11.1136
  12   2.0000      -0.397486       -10.8161
  13   2.0000      -0.276800        -7.5321
  14   2.0000      -0.249057        -6.7772
  15   0.0000      -0.074930        -2.0390
  16   0.0000       0.068401         1.8613
  17   0.0000       0.074041         2.0147
  18   0.0000       0.095483         2.5982
  19   0.0000       0.131854         3.5879

MULLIKEN ATOMIC CHARGES
-----------------------
   0 C :    0.190333
   1 O :   -0.130265
   2 C :   -0.147781
   3 C :    0.066542
   4 H :   -0.067312
   5 H :    0.009627
   6 H :    0.045310
   7 H :    0.033544
Sum of atomic charges:   -0.0000000

LOEWDIN ATOMIC CHARGES
----------------------
   0 C :   -0.119557
   1 O :    0.074776
   2 C :   -0.068363
   3 C :    0.053931
   4 H :   -0.023990
   5 H :    0.032430
   6 H :    0.027072
   7 H :    0.023703

  Mayer bond orders larger than 0.100000
B(  0-C ,  1-O ) :   2.2580 B(  0-C ,  2-C ) :   1.0688 B(  0-C ,  4-H ) :   0.9064
B(  2-C ,  3-C ) :   1.8955 B(  2-C ,  5-H ) :   0.9550 B(  3-C ,  6-H ) :   0.9356
B(  3-C ,  7-H ) :   0.9540

-----------------------------------------------------------------------------
         ABSORPTION SPECTRUM VIA TRANSITION ELECTRIC DIPOLE MOMENTS
-----------------------------------------------------------------------------
State   Energy    Wavelength  fosc         T2        TX        TY        TZ
        (cm-1)      (nm)                 (au**2)    (au)      (au)      (au)
-----------------------------------------------------------------------------
   1   26744.7    373.9   0.000613824   0.00756   0.07870   0.03015   0.02128

FINAL SINGLE POINT ENERGY      -191.650163627730

DIPOLE MOMENT
-------------
                                X             Y             Z
Electronic contribution:     -1.54432      -1.68425      -0.53181
Nuclear contribution   :      2.02131       2.46340       0.66525
                        -----------------------------------------
Total Dipole Moment    :      0.47698       0.77916       0.13344
                        -----------------------------------------
Magnitude (a.u.)       :      0.92326
Magnitude (Debye)      :      2.34674

Rotational constants in cm-1:     0.722148     0.233688     0.177500
Rotational constants in MHz : 21649.443447  7005.799652  5321.306450

                             ****ORCA TERMINATED NORMALLY****
TOTAL RUN TIME: 0 days 0 hours 3 minutes 21 seconds 678 msec
