                         Program Version 5.0.3 -  RELEASE  -
|  1> ! HF-3c
|  2> !TightSCF
|  3> %scf
|  4>  ConvForced true
|  5>  convergence tight
|  6>  MaxIter 500
|  7> end
|  8>
|  9> %tddft
| 10>  nroots 1
| 11> end
| 12>
| 13> # 	624
| 14> * xyz 0 1
| 15> 		C   -1.235521  -0.299622   0.049977
| 16> 		O   -1.284913  -1.490721   0.429876
| 17> 		C    0.021781   0.501945   0.073081
| 18> 		C    1.220361  -0.015023  -0.084804
| 19> 		H   -2.090134   0.193900  -0.323686
| 20> 		H   -0.062165   1.687620   0.142758
| 21> 		H    1.295610  -1.111828  -0.126220
| 22> 		H    2.211257   0.620471  -0.112931
| 23> *
| 24>
| 25>                          ****END OF INPUT****

CARTESIAN COORDINATES (ANGSTROEM)
---------------------------------
  C     -1.235521   -0.299622    0.049977
  O     -1.284913   -1.490721    0.429876
  C      0.021781    0.501945    0.073081
  C      1.220361   -0.015023   -0.084804
  H     -2.090134    0.193900   -0.323686
  H     -0.062165    1.687620    0.142758
  H      1.295610   -1.111828   -0.126220
  H      2.211257    0.620471   -0.112931

 Total Charge           Charge          ....    0
 Multiplicity           Mult            ....    1
 Number of Electrons    NEL             ....   30
 Basis Dimension        Dim             ....   24

ORBITAL ENERGIES
----------------

  NO   OCC          E(Eh)            E(eV)
   0   2.0000     -20.359058      -553.9981
   1   2.0000     -11.290867      -307.2401
   2   2.0000     -11.183907      -304.3296
   3   2.0000     -11.182793      -304.2993
   4   2.0000      -1.374243       -37.3951
   5   2.0000      -1.070927       -29.1414
   6   2.0000      -0.889199       -24.1963
   7   2.0000      -0.738846       -20.1050
   8   2.0000      -0.686072       -18.6690
   9   2.0000      -0.601029       -16.3548
  10   2.0000      -0.588769       -16.0212
  11   2.0000      -0.521066       -14.1789
  12   2.0000      -0.501827       -13.6554
  13   2.0000      -0.418403       -11.3853
  14   2.0000      -0.392511       -10.6808
  15   0.0000       0.136689         3.7195
  16   0.0000       0.293249         7.9797
  17   0.0000       0.506336        13.7781
  18   0.0000       0.563738        15.3401
  19   0.0000       0.613161        16.6849

MULLIKEN ATOMIC CHARGES
-----------------------
   0 C :    0.144841
   1 O :   -0.340044
   2 C :   -0.168860
   3 C :   -0.218287
   4 H :    0.141903
   5 H :    0.140958
   6 H :    0.150947
   7 H :    0.148542
Sum of atomic charges:   -0.0000000

LOEWDIN ATOMIC CHARGES
----------------------
   0 C :    0.142993
   1 O :   -0.257850
   2 C :   -0.133091
   3 C :   -0.128355
   4 H :    0.075077
   5 H :    0.097557
   6 H :    0.099109
   7 H :    0.104561

  Mayer bond orders larger than 0.100000
B(  0-C ,  1-O ) :   1.9103 B(  0-C ,  2-C ) :   1.0233 B(  0-C ,  4-H ) :   0.9334
B(  2-C ,  3-C ) :   1.9597 B(  2-C ,  5-H ) :   0.9512 B(  3-C ,  6-H ) :   0.9578
B(  3-C ,  7-H ) :   0.9594

-----------------------------------------------------------------------------
         ABSORPTION SPECTRUM VIA TRANSITION ELECTRIC DIPOLE MOMENTS
-----------------------------------------------------------------------------
State   Energy    Wavelength  fosc         T2        TX        TY        TZ
        (cm-1)      (nm)                 (au**2)    (au)      (au)      (au)
-----------------------------------------------------------------------------
   1   31004.1    322.5   0.000009552   0.00010   0.00796  -0.00602   0.00135

Dispersion correction           -0.025243274
FINAL SINGLE POINT ENERGY      -189.336034077772

DIPOLE MOMENT
-------------
                                X             Y             Z
Electronic contribution:     -2.17659      -1.68915       0.53097
Nuclear contribution   :      2.53617       2.63955      -0.85234
                        -----------------------------------------
Total Dipole Moment    :      0.35958       0.95039      -0.32137
                        -----------------------------------------
Magnitude (a.u.)       :      1.06575
Magnitude (Debye)      :      2.70893

Rotational constants in cm-1:     0.777842     0.196749     0.159502
Rotational constants in MHz : 23319.119264  5898.383450  4781.736172

                             ****ORCA TERMINATED NORMALLY****
TOTAL RUN TIME: 0 days 0 hours 0 minutes 15 seconds 897 msec
