                         Program Version 5.0.3 -  RELEASE  -
|  1> ! HF-3c
|  2> !TightSCF
|  3> %scf
|  4>  ConvForced true
|  5>  convergence tight
|  6>  MaxIter 500
|  7> end
|  8>
|  9> %tddft
| 10>  nroots 1
| 11> end
| 12>
| 13> # 	8770
| 14> * xyz 0 1
| 15> 		C   -1.159426  -0.358905  -0.082544
| 16> 		O   -1.559980  -1.162379  -0.821586
| 17> 		C    0.012087   0.538745  -0.223519
| 18> 		C    1.206227  -0.017895   0.108061
| 19> 		H   -1.804966  -0.090964   0.946459
| 20> 		H   -0.033452   1.642742  -0.599425
| 21> 		H    1.274214  -1.065088   0.626331
| 22> 		H    2.087277   0.561558   0.072925
| 23> *
| 24>
| 25>                          ****END OF INPUT****

CARTESIAN COORDINATES (ANGSTROEM)
---------------------------------
  C     -1.159426   -0.358905   -0.082544
  O     -1.559980   -1.162379   -0.821586
  C      0.012087    0.538745   -0.223519
  C      1.206227   -0.017895    0.108061
  H     -1.804966   -0.090964    0.946459
  H     -0.033452    1.642742   -0.599425
  H      1.274214   -1.065088    0.626331
  H      2.087277    0.561558    0.072925

 Total Charge           Charge          ....    0
 Multiplicity           Mult            ....    1
 Number of Electrons    NEL             ....   30
 Basis Dimension        Dim             ....   24

ORBITAL ENERGIES
----------------

  NO   OCC          E(Eh)            E(eV)
   0   2.0000     -20.390256      -554.8471
   1   2.0000     -11.309976      -307.7601
   2   2.0000     -11.185019      -304.3598
   3   2.0000     -11.172741      -304.0257
   4   2.0000      -1.441287       -39.2194
   5   2.0000      -1.068025       -29.0624
   6   2.0000      -0.865116       -23.5410
   7   2.0000      -0.732120       -19.9220
   8   2.0000      -0.679996       -18.5036
   9   2.0000      -0.631209       -17.1761
  10   2.0000      -0.607402       -16.5283
  11   2.0000      -0.538936       -14.6652
  12   2.0000      -0.518442       -14.1075
  13   2.0000      -0.406797       -11.0695
  14   2.0000      -0.377926       -10.2839
  15   0.0000       0.195337         5.3154
  16   0.0000       0.220003         5.9866
  17   0.0000       0.510393        13.8885
  18   0.0000       0.543724        14.7955
  19   0.0000       0.602819        16.4035

MULLIKEN ATOMIC CHARGES
-----------------------
   0 C :    0.205578
   1 O :   -0.357323
   2 C :   -0.165774
   3 C :   -0.236778
   4 H :    0.119111
   5 H :    0.160088
   6 H :    0.141024
   7 H :    0.134072
Sum of atomic charges:   -0.0000000

LOEWDIN ATOMIC CHARGES
----------------------
   0 C :    0.161458
   1 O :   -0.243383
   2 C :   -0.128516
   3 C :   -0.149967
   4 H :    0.066062
   5 H :    0.113492
   6 H :    0.097850
   7 H :    0.083005

  Mayer bond orders larger than 0.100000
B(  0-C ,  1-O ) :   1.9574 B(  0-C ,  2-C ) :   0.9858 B(  0-C ,  4-H ) :   0.8905
B(  2-C ,  3-C ) :   1.9852 B(  2-C ,  5-H ) :   0.9456 B(  3-C ,  6-H ) :   0.9637
B(  3-C ,  7-H ) :   0.9672

-----------------------------------------------------------------------------
         ABSORPTION SPECTRUM VIA TRANSITION ELECTRIC DIPOLE MOMENTS
-----------------------------------------------------------------------------
State   Energy    Wavelength  fosc         T2        TX        TY        TZ
        (cm-1)      (nm)                 (au**2)    (au)      (au)      (au)
-----------------------------------------------------------------------------
   1   37497.2    266.7   0.000535844   0.00470   0.06518   0.00261  -0.02120

Dispersion correction           -0.024935019
FINAL SINGLE POINT ENERGY      -189.283995529968

DIPOLE MOMENT
-------------
                                X             Y             Z
Electronic contribution:     -2.48155      -1.31560      -1.31527
Nuclear contribution   :      2.93232       2.01424       1.94171
                        -----------------------------------------
Total Dipole Moment    :      0.45077       0.69864       0.62644
                        -----------------------------------------
Magnitude (a.u.)       :      1.04102
Magnitude (Debye)      :      2.64606

Rotational constants in cm-1:     0.888204     0.177551     0.162830
Rotational constants in MHz : 26627.681298  5322.859943  4881.529636

                             ****ORCA TERMINATED NORMALLY****
TOTAL RUN TIME: 0 days 0 hours 0 minutes 16 seconds 18 msec
