                         Program Version 5.0.3 -  RELEASE  -
|  1> ! B3LYP cc-pVDZ
|  2> !TightSCF
|  3> %scf
|  4>  ConvForced true
|  5>  convergence tight
|  6>  MaxIter 500
|  7> end
|  8>
|  9> %tddft
| 10>  nroots 1
| 11> end
| 12>
| 13> # 	653
| 14> * xyz 0 1
| 15> 		C   -1.202376  -0.396583   0.099294
| 16> 		O   -1.969672  -0.621665   0.935669
| 17> 		C    0.021073   0.459600   0.185710
| 18> 		C    1.223082   0.055822  -0.245475
| 19> 		H   -1.396895  -0.818345  -0.912788
| 20> 		H   -0.041521   1.379237   0.796827
| 21> 		H    1.251301  -0.791057  -0.751093
| 22> 		H    2.137862   0.736475  -0.087892
| 23> *
| 24>
| 25>                          ****END OF INPUT****

CARTESIAN COORDINATES (ANGSTROEM)
---------------------------------
  C     -1.202376   -0.396583    0.099294
  O     -1.969672   -0.621665    0.935669
  C      0.021073    0.459600    0.185710
  C      1.223082    0.055822   -0.245475
  H     -1.396895   -0.818345   -0.912788
  H     -0.041521    1.379237    0.796827
  H      1.251301   -0.791057   -0.751093
  H      2.137862    0.736475   -0.087892

 Total Charge           Charge          ....    0
 Multiplicity           Mult            ....    1
 Number of Electrons    NEL             ....   30
 Basis Dimension        Dim             ....   76

ORBITAL ENERGIES
----------------

  NO   OCC          E(Eh)            E(eV)
   0   2.0000     -19.141859      -520.8765
   1   2.0000     -10.274861      -279.5932
   2   2.0000     -10.207835      -277.7693
   3   2.0000     -10.205538      -277.7068
   4   2.0000      -1.080451       -29.4006
   5   2.0000      -0.799833       -21.7646
   6   2.0000      -0.644425       -17.5357
   7   2.0000      -0.568367       -15.4661
   8   2.0000      -0.492691       -13.4068
   9   2.0000      -0.466178       -12.6853
  10   2.0000      -0.438330       -11.9276
  11   2.0000      -0.407524       -11.0893
  12   2.0000      -0.387933       -10.5562
  13   2.0000      -0.291441        -7.9305
  14   2.0000      -0.253730        -6.9043
  15   0.0000      -0.050037        -1.3616
  16   0.0000       0.027561         0.7500
  17   0.0000       0.077201         2.1007
  18   0.0000       0.091090         2.4787
  19   0.0000       0.128074         3.4851

MULLIKEN ATOMIC CHARGES
-----------------------
   0 C :    0.168763
   1 O :   -0.138622
   2 C :   -0.121253
   3 C :    0.089713
   4 H :   -0.036078
   5 H :    0.012099
   6 H :   -0.024030
   7 H :    0.049409
Sum of atomic charges:   -0.0000000

LOEWDIN ATOMIC CHARGES
----------------------
   0 C :   -0.067542
   1 O :    0.058046
   2 C :   -0.058129
   3 C :    0.002991
   4 H :   -0.015674
   5 H :    0.034657
   6 H :   -0.005063
   7 H :    0.050714

  Mayer bond orders larger than 0.100000
B(  0-C ,  1-O ) :   2.2648 B(  0-C ,  2-C ) :   1.0024 B(  0-C ,  4-H ) :   0.9074
B(  2-C ,  3-C ) :   2.0015 B(  2-C ,  5-H ) :   0.9388 B(  3-C ,  6-H ) :   0.9373
B(  3-C ,  7-H ) :   0.9416

-----------------------------------------------------------------------------
         ABSORPTION SPECTRUM VIA TRANSITION ELECTRIC DIPOLE MOMENTS
-----------------------------------------------------------------------------
State   Energy    Wavelength  fosc         T2        TX        TY        TZ
        (cm-1)      (nm)                 (au**2)    (au)      (au)      (au)
-----------------------------------------------------------------------------
   1   32043.6    312.1   0.000327120   0.00336   0.05769   0.00404  -0.00397

FINAL SINGLE POINT ENERGY      -191.640475050442

DIPOLE MOMENT
-------------
                                X             Y             Z
Electronic contribution:     -2.99101      -0.74175       1.35390
Nuclear contribution   :      3.75281       1.00397      -1.85526
                        -----------------------------------------
Total Dipole Moment    :      0.76180       0.26222      -0.50136
                        -----------------------------------------
Magnitude (a.u.)       :      0.94893
Magnitude (Debye)      :      2.41199

Rotational constants in cm-1:     1.391169     0.155571     0.147545
Rotational constants in MHz : 41706.210262  4663.904122  4423.296455

                             ****ORCA TERMINATED NORMALLY****
TOTAL RUN TIME: 0 days 0 hours 3 minutes 23 seconds 652 msec
