                         Program Version 5.0.3 -  RELEASE  -
|  1> ! B3LYP cc-pVDZ
|  2> !TightSCF
|  3> %scf
|  4>  ConvForced true
|  5>  convergence tight
|  6>  MaxIter 500
|  7> end
|  8>
|  9> %tddft
| 10>  nroots 1
| 11> end
| 12>
| 13> # 	8224
| 14> * xyz 0 1
| 15> 		C   -1.210093  -0.356406  -0.042930
| 16> 		O   -1.383672  -1.481497   0.429451
| 17> 		C   -0.007510   0.480989   0.147939
| 18> 		C    1.176896   0.006446  -0.133427
| 19> 		H   -1.961642   0.280355  -0.597643
| 20> 		H   -0.066066   1.578245   0.502473
| 21> 		H    1.375825  -0.986971  -0.330629
| 22> 		H    2.121611   0.495148   0.019111
| 23> *
| 24>
| 25>                          ****END OF INPUT****

CARTESIAN COORDINATES (ANGSTROEM)
---------------------------------
  C     -1.210093   -0.356406   -0.042930
  O     -1.383672   -1.481497    0.429451
  C     -0.007510    0.480989    0.147939
  C      1.176896    0.006446   -0.133427
  H     -1.961642    0.280355   -0.597643
  H     -0.066066    1.578245    0.502473
  H      1.375825   -0.986971   -0.330629
  H      2.121611    0.495148    0.019111

 Total Charge           Charge          ....    0
 Multiplicity           Mult            ....    1
 Number of Electrons    NEL             ....   30
 Basis Dimension        Dim             ....   76

ORBITAL ENERGIES
----------------

  NO   OCC          E(Eh)            E(eV)
   0   2.0000     -19.149288      -521.0786
   1   2.0000     -10.285957      -279.8951
   2   2.0000     -10.208488      -277.7871
   3   2.0000     -10.196547      -277.4621
   4   2.0000      -1.040263       -28.3070
   5   2.0000      -0.802951       -21.8494
   6   2.0000      -0.663354       -18.0508
   7   2.0000      -0.552663       -15.0387
   8   2.0000      -0.499286       -13.5863
   9   2.0000      -0.450904       -12.2697
  10   2.0000      -0.442431       -12.0392
  11   2.0000      -0.382399       -10.4056
  12   2.0000      -0.375023       -10.2049
  13   2.0000      -0.292086        -7.9481
  14   2.0000      -0.259980        -7.0744
  15   0.0000      -0.056824        -1.5463
  16   0.0000       0.017709         0.4819
  17   0.0000       0.069975         1.9041
  18   0.0000       0.096717         2.6318
  19   0.0000       0.108817         2.9611

MULLIKEN ATOMIC CHARGES
-----------------------
   0 C :    0.192829
   1 O :   -0.196780
   2 C :   -0.124050
   3 C :    0.084089
   4 H :   -0.004779
   5 H :    0.026185
   6 H :    0.005659
   7 H :    0.016847
Sum of atomic charges:   -0.0000000

LOEWDIN ATOMIC CHARGES
----------------------
   0 C :   -0.011461
   1 O :   -0.010386
   2 C :   -0.073949
   3 C :    0.001860
   4 H :   -0.000869
   5 H :    0.050370
   6 H :    0.016325
   7 H :    0.028110

  Mayer bond orders larger than 0.100000
B(  0-C ,  1-O ) :   2.1956 B(  0-C ,  2-C ) :   1.0128 B(  0-C ,  4-H ) :   0.9036
B(  2-C ,  3-C ) :   2.0170 B(  2-C ,  5-H ) :   0.9265 B(  3-C ,  6-H ) :   0.9482
B(  3-C ,  7-H ) :   0.9501

-----------------------------------------------------------------------------
         ABSORPTION SPECTRUM VIA TRANSITION ELECTRIC DIPOLE MOMENTS
-----------------------------------------------------------------------------
State   Energy    Wavelength  fosc         T2        TX        TY        TZ
        (cm-1)      (nm)                 (au**2)    (au)      (au)      (au)
-----------------------------------------------------------------------------
   1   30542.1    327.4   0.000184146   0.00198  -0.04412  -0.00544   0.00302

FINAL SINGLE POINT ENERGY      -191.650011876543

DIPOLE MOMENT
-------------
                                X             Y             Z
Electronic contribution:     -2.33002      -1.81124       0.52156
Nuclear contribution   :      2.77933       2.65483      -0.78642
                        -----------------------------------------
Total Dipole Moment    :      0.44931       0.84359      -0.26486
                        -----------------------------------------
Magnitude (a.u.)       :      0.99180
Magnitude (Debye)      :      2.52097

Rotational constants in cm-1:     0.821802     0.191454     0.162115
Rotational constants in MHz : 24636.993965  5739.635693  4860.098119

                             ****ORCA TERMINATED NORMALLY****
TOTAL RUN TIME: 0 days 0 hours 3 minutes 21 seconds 201 msec
