                         Program Version 5.0.3 -  RELEASE  -
|  1> ! B3LYP cc-pVDZ
|  2> !TightSCF
|  3> %scf
|  4>  ConvForced true
|  5>  convergence tight
|  6>  MaxIter 500
|  7> end
|  8>
|  9> %tddft
| 10>  nroots 1
| 11> end
| 12>
| 13> # 	28488
| 14> * xyz 0 1
| 15> 		C   -0.566454  -0.426140   0.013519
| 16> 		O   -0.598864  -1.609380  -0.004780
| 17> 		C    0.637221   0.320702  -0.011781
| 18> 		C    1.855350  -0.091143   0.008330
| 19> 		H   -1.629114   0.251896   0.021010
| 20> 		H    0.416253   1.447715  -0.053645
| 21> 		H    2.005945  -1.113845  -0.066598
| 22> 		H    2.699659   0.578112   0.056376
| 23> *
| 24>
| 25>                          ****END OF INPUT****

CARTESIAN COORDINATES (ANGSTROEM)
---------------------------------
  C     -0.566454   -0.426140    0.013519
  O     -0.598864   -1.609380   -0.004780
  C      0.637221    0.320702   -0.011781
  C      1.855350   -0.091143    0.008330
  H     -1.629114    0.251896    0.021010
  H      0.416253    1.447715   -0.053645
  H      2.005945   -1.113845   -0.066598
  H      2.699659    0.578112    0.056376

 Total Charge           Charge          ....    0
 Multiplicity           Mult            ....    1
 Number of Electrons    NEL             ....   30
 Basis Dimension        Dim             ....   76

ORBITAL ENERGIES
----------------

  NO   OCC          E(Eh)            E(eV)
   0   2.0000     -19.142410      -520.8915
   1   2.0000     -10.279960      -279.7319
   2   2.0000     -10.205211      -277.6979
   3   2.0000     -10.200449      -277.5683
   4   2.0000      -1.066266       -29.0146
   5   2.0000      -0.812471       -22.1085
   6   2.0000      -0.667761       -18.1707
   7   2.0000      -0.528497       -14.3811
   8   2.0000      -0.512294       -13.9402
   9   2.0000      -0.458475       -12.4757
  10   2.0000      -0.433185       -11.7876
  11   2.0000      -0.414906       -11.2902
  12   2.0000      -0.370802       -10.0900
  13   2.0000      -0.298707        -8.1282
  14   2.0000      -0.257591        -7.0094
  15   0.0000      -0.069821        -1.8999
  16   0.0000       0.050628         1.3777
  17   0.0000       0.082451         2.2436
  18   0.0000       0.090714         2.4685
  19   0.0000       0.118433         3.2227

MULLIKEN ATOMIC CHARGES
-----------------------
   0 C :    0.123813
   1 O :   -0.155809
   2 C :   -0.126243
   3 C :    0.157643
   4 H :   -0.027922
   5 H :   -0.008407
   6 H :    0.005867
   7 H :    0.031058
Sum of atomic charges:   -0.0000000

LOEWDIN ATOMIC CHARGES
----------------------
   0 C :   -0.071581
   1 O :    0.029128
   2 C :   -0.089753
   3 C :    0.040480
   4 H :   -0.006078
   5 H :    0.037419
   6 H :    0.022168
   7 H :    0.038218

  Mayer bond orders larger than 0.100000
B(  0-C ,  1-O ) :   2.2272 B(  0-C ,  2-C ) :   1.0739 B(  0-C ,  4-H ) :   0.8784
B(  2-C ,  3-C ) :   1.9989 B(  2-C ,  5-H ) :   0.9302 B(  3-C ,  6-H ) :   0.9174
B(  3-C ,  7-H ) :   0.9288

-----------------------------------------------------------------------------
         ABSORPTION SPECTRUM VIA TRANSITION ELECTRIC DIPOLE MOMENTS
-----------------------------------------------------------------------------
State   Energy    Wavelength  fosc         T2        TX        TY        TZ
        (cm-1)      (nm)                 (au**2)    (au)      (au)      (au)
-----------------------------------------------------------------------------
   1   28464.2    351.3   0.000285866   0.00331  -0.01096   0.01204  -0.05515

FINAL SINGLE POINT ENERGY      -191.657925028123

DIPOLE MOMENT
-------------
                                X             Y             Z
Electronic contribution:     -1.58182      -2.10572       0.03502
Nuclear contribution   :      2.12058       2.87825      -0.04036
                        -----------------------------------------
Total Dipole Moment    :      0.53876       0.77252      -0.00534
                        -----------------------------------------
Magnitude (a.u.)       :      0.94185
Magnitude (Debye)      :      2.39400

Rotational constants in cm-1:     0.836870     0.209325     0.167496
Rotational constants in MHz : 25088.738923  6275.418559  5021.417542

                             ****ORCA TERMINATED NORMALLY****
TOTAL RUN TIME: 0 days 0 hours 3 minutes 29 seconds 31 msec
