                         Program Version 5.0.3 -  RELEASE  -
|  1> ! B3LYP cc-pVDZ
|  2> !TightSCF
|  3> %scf
|  4>  ConvForced true
|  5>  convergence tight
|  6>  MaxIter 500
|  7> end
|  8>
|  9> %tddft
| 10>  nroots 1
| 11> end
| 12>
| 13> # 	16199
| 14> * xyz 0 1
| 15> 		C   -1.206047  -0.405458  -0.067755
| 16> 		O   -2.275822  -0.223732  -0.600718
| 17> 		C    0.012543   0.405290  -0.380653
| 18> 		C    1.138541   0.229521   0.304186
| 19> 		H   -1.159699  -1.177345   0.755440
| 20> 		H    0.093209   0.954080  -1.327440
| 21> 		H    1.189839  -0.429557   1.151063
| 22> 		H    2.191592   0.698385   0.144047
| 23> *
| 24>
| 25>                          ****END OF INPUT****

CARTESIAN COORDINATES (ANGSTROEM)
---------------------------------
  C     -1.206047   -0.405458   -0.067755
  O     -2.275822   -0.223732   -0.600718
  C      0.012543    0.405290   -0.380653
  C      1.138541    0.229521    0.304186
  H     -1.159699   -1.177345    0.755440
  H      0.093209    0.954080   -1.327440
  H      1.189839   -0.429557    1.151063
  H      2.191592    0.698385    0.144047

 Total Charge           Charge          ....    0
 Multiplicity           Mult            ....    1
 Number of Electrons    NEL             ....   30
 Basis Dimension        Dim             ....   76

ORBITAL ENERGIES
----------------

  NO   OCC          E(Eh)            E(eV)
   0   2.0000     -19.137741      -520.7644
   1   2.0000     -10.279472      -279.7187
   2   2.0000     -10.221655      -278.1454
   3   2.0000     -10.211185      -277.8605
   4   2.0000      -1.047333       -28.4994
   5   2.0000      -0.801394       -21.8070
   6   2.0000      -0.638019       -17.3614
   7   2.0000      -0.571393       -15.5484
   8   2.0000      -0.482447       -13.1280
   9   2.0000      -0.467677       -12.7261
  10   2.0000      -0.418743       -11.3946
  11   2.0000      -0.398901       -10.8547
  12   2.0000      -0.378551       -10.3009
  13   2.0000      -0.295193        -8.0326
  14   2.0000      -0.255366        -6.9489
  15   0.0000      -0.062984        -1.7139
  16   0.0000       0.042853         1.1661
  17   0.0000       0.067257         1.8302
  18   0.0000       0.079405         2.1607
  19   0.0000       0.119176         3.2430

MULLIKEN ATOMIC CHARGES
-----------------------
   0 C :    0.172392
   1 O :   -0.192872
   2 C :   -0.060228
   3 C :    0.011633
   4 H :   -0.016335
   5 H :    0.013906
   6 H :    0.019744
   7 H :    0.051759
Sum of atomic charges:   -0.0000000

LOEWDIN ATOMIC CHARGES
----------------------
   0 C :   -0.036314
   1 O :   -0.000447
   2 C :   -0.065014
   3 C :   -0.001699
   4 H :   -0.001591
   5 H :    0.038604
   6 H :    0.020262
   7 H :    0.046200

  Mayer bond orders larger than 0.100000
B(  0-C ,  1-O ) :   2.1645 B(  0-C ,  2-C ) :   1.0421 B(  0-C ,  4-H ) :   0.9229
B(  2-C ,  3-C ) :   1.9280 B(  2-C ,  5-H ) :   0.9490 B(  3-C ,  6-H ) :   0.9461
B(  3-C ,  7-H ) :   0.9474

-----------------------------------------------------------------------------
         ABSORPTION SPECTRUM VIA TRANSITION ELECTRIC DIPOLE MOMENTS
-----------------------------------------------------------------------------
State   Energy    Wavelength  fosc         T2        TX        TY        TZ
        (cm-1)      (nm)                 (au**2)    (au)      (au)      (au)
-----------------------------------------------------------------------------
   1   29266.2    341.7   0.000178310   0.00201  -0.03463  -0.00880   0.02700

FINAL SINGLE POINT ENERGY      -191.669445212930

DIPOLE MOMENT
-------------
                                X             Y             Z
Electronic contribution:     -3.37071      -0.12960      -1.03491
Nuclear contribution   :      4.47253       0.09177       1.38280
                        -----------------------------------------
Total Dipole Moment    :      1.10182      -0.03783       0.34789
                        -----------------------------------------
Magnitude (a.u.)       :      1.15605
Magnitude (Debye)      :      2.93845

Rotational constants in cm-1:     1.568738     0.153082     0.139727
Rotational constants in MHz : 47029.575696  4589.281082  4188.904825

                             ****ORCA TERMINATED NORMALLY****
TOTAL RUN TIME: 0 days 0 hours 3 minutes 23 seconds 589 msec
