                         Program Version 5.0.3 -  RELEASE  -
|  1> ! B3LYP cc-pVDZ
|  2> !TightSCF
|  3> %scf
|  4>  ConvForced true
|  5>  convergence tight
|  6>  MaxIter 500
|  7> end
|  8>
|  9> %tddft
| 10>  nroots 1
| 11> end
| 12>
| 13> # 	817
| 14> * xyz 0 1
| 15> 		C   -1.210708  -0.357535   0.056576
| 16> 		O   -2.161447  -0.411523   0.840010
| 17> 		C   -0.006268   0.437846   0.314433
| 18> 		C    1.174511   0.159749  -0.323537
| 19> 		H   -1.111136  -1.026678  -0.788013
| 20> 		H    0.052569   1.133052   1.016645
| 21> 		H    1.196995  -0.600565  -1.073267
| 22> 		H    2.067549   0.685196  -0.096461
| 23> *
| 24>
| 25>                          ****END OF INPUT****

CARTESIAN COORDINATES (ANGSTROEM)
---------------------------------
  C     -1.210708   -0.357535    0.056576
  O     -2.161447   -0.411523    0.840010
  C     -0.006268    0.437846    0.314433
  C      1.174511    0.159749   -0.323537
  H     -1.111136   -1.026678   -0.788013
  H      0.052569    1.133052    1.016645
  H      1.196995   -0.600565   -1.073267
  H      2.067549    0.685196   -0.096461

 Total Charge           Charge          ....    0
 Multiplicity           Mult            ....    1
 Number of Electrons    NEL             ....   30
 Basis Dimension        Dim             ....   76

ORBITAL ENERGIES
----------------

  NO   OCC          E(Eh)            E(eV)
   0   2.0000     -19.137459      -520.7567
   1   2.0000     -10.274742      -279.5899
   2   2.0000     -10.217828      -278.0412
   3   2.0000     -10.202096      -277.6131
   4   2.0000      -1.032792       -28.1037
   5   2.0000      -0.804055       -21.8795
   6   2.0000      -0.653994       -17.7961
   7   2.0000      -0.588702       -16.0194
   8   2.0000      -0.483374       -13.1533
   9   2.0000      -0.470617       -12.8061
  10   2.0000      -0.415761       -11.3134
  11   2.0000      -0.403795       -10.9878
  12   2.0000      -0.390825       -10.6349
  13   2.0000      -0.288565        -7.8523
  14   2.0000      -0.256020        -6.9667
  15   0.0000      -0.071206        -1.9376
  16   0.0000       0.040774         1.1095
  17   0.0000       0.075601         2.0572
  18   0.0000       0.090120         2.4523
  19   0.0000       0.131816         3.5869

MULLIKEN ATOMIC CHARGES
-----------------------
   0 C :    0.205213
   1 O :   -0.214528
   2 C :   -0.019797
   3 C :    0.056134
   4 H :   -0.026637
   5 H :   -0.048161
   6 H :    0.017886
   7 H :    0.029891
Sum of atomic charges:   -0.0000000

LOEWDIN ATOMIC CHARGES
----------------------
   0 C :   -0.021820
   1 O :   -0.020810
   2 C :   -0.029966
   3 C :    0.027913
   4 H :   -0.006103
   5 H :    0.003290
   6 H :    0.021101
   7 H :    0.026395

  Mayer bond orders larger than 0.100000
B(  0-C ,  1-O ) :   2.1312 B(  0-C ,  2-C ) :   1.0889 B(  0-C ,  4-H ) :   0.9239
B(  1-O ,  3-C ) :   0.1026 B(  2-C ,  3-C ) :   1.9313 B(  2-C ,  5-H ) :   0.9586
B(  3-C ,  6-H ) :   0.9456 B(  3-C ,  7-H ) :   0.9448

-----------------------------------------------------------------------------
         ABSORPTION SPECTRUM VIA TRANSITION ELECTRIC DIPOLE MOMENTS
-----------------------------------------------------------------------------
State   Energy    Wavelength  fosc         T2        TX        TY        TZ
        (cm-1)      (nm)                 (au**2)    (au)      (au)      (au)
-----------------------------------------------------------------------------
   1   27689.7    361.1   0.000283847   0.00337   0.05550  -0.00681  -0.01576

FINAL SINGLE POINT ENERGY      -191.671517457755

DIPOLE MOMENT
-------------
                                X             Y             Z
Electronic contribution:     -3.17635      -0.25146       1.20679
Nuclear contribution   :      4.24632       0.40885      -1.74818
                        -----------------------------------------
Total Dipole Moment    :      1.06997       0.15739      -0.54139
                        -----------------------------------------
Magnitude (a.u.)       :      1.20943
Magnitude (Debye)      :      3.07411

Rotational constants in cm-1:     1.567644     0.153380     0.141145
Rotational constants in MHz : 46996.791445  4598.218428  4231.420553

                             ****ORCA TERMINATED NORMALLY****
TOTAL RUN TIME: 0 days 0 hours 3 minutes 22 seconds 964 msec
