                         Program Version 5.0.3 -  RELEASE  -
|  1> ! HF-3c
|  2> !TightSCF
|  3> %scf
|  4>  ConvForced true
|  5>  convergence tight
|  6>  MaxIter 500
|  7> end
|  8>
|  9> %tddft
| 10>  nroots 1
| 11> end
| 12>
| 13> # 	10414
| 14> * xyz 0 1
| 15> 		C   -1.250565  -0.453611   0.017643
| 16> 		O   -2.160377  -0.544078   0.785075
| 17> 		C    0.022636   0.352773   0.329897
| 18> 		C    1.134443   0.239264  -0.305381
| 19> 		H   -1.270220  -0.934083  -1.058881
| 20> 		H    0.079983   1.126882   1.181054
| 21> 		H    1.301120  -0.561920  -0.958158
| 22> 		H    2.176086   0.775230   0.041560
| 23> *
| 24>
| 25>                          ****END OF INPUT****

CARTESIAN COORDINATES (ANGSTROEM)
---------------------------------
  C     -1.250565   -0.453611    0.017643
  O     -2.160377   -0.544078    0.785075
  C      0.022636    0.352773    0.329897
  C      1.134443    0.239264   -0.305381
  H     -1.270220   -0.934083   -1.058881
  H      0.079983    1.126882    1.181054
  H      1.301120   -0.561920   -0.958158
  H      2.176086    0.775230    0.041560

 Total Charge           Charge          ....    0
 Multiplicity           Mult            ....    1
 Number of Electrons    NEL             ....   30
 Basis Dimension        Dim             ....   24

ORBITAL ENERGIES
----------------

  NO   OCC          E(Eh)            E(eV)
   0   2.0000     -20.379611      -554.5574
   1   2.0000     -11.305985      -307.6515
   2   2.0000     -11.186127      -304.3900
   3   2.0000     -11.181493      -304.2639
   4   2.0000      -1.417404       -38.5695
   5   2.0000      -1.083410       -29.4811
   6   2.0000      -0.855563       -23.2811
   7   2.0000      -0.761077       -20.7100
   8   2.0000      -0.670801       -18.2534
   9   2.0000      -0.633102       -17.2276
  10   2.0000      -0.574978       -15.6459
  11   2.0000      -0.543328       -14.7847
  12   2.0000      -0.515095       -14.0165
  13   2.0000      -0.408578       -11.1180
  14   2.0000      -0.404593       -11.0095
  15   0.0000       0.150599         4.0980
  16   0.0000       0.305039         8.3005
  17   0.0000       0.475174        12.9301
  18   0.0000       0.512391        13.9429
  19   0.0000       0.635573        17.2948

MULLIKEN ATOMIC CHARGES
-----------------------
   0 C :    0.188257
   1 O :   -0.352889
   2 C :   -0.170132
   3 C :   -0.236719
   4 H :    0.138990
   5 H :    0.155110
   6 H :    0.130405
   7 H :    0.146978
Sum of atomic charges:   -0.0000000

LOEWDIN ATOMIC CHARGES
----------------------
   0 C :    0.156442
   1 O :   -0.249506
   2 C :   -0.129711
   3 C :   -0.149320
   4 H :    0.080750
   5 H :    0.106291
   6 H :    0.079030
   7 H :    0.106023

  Mayer bond orders larger than 0.100000
B(  0-C ,  1-O ) :   1.9372 B(  0-C ,  2-C ) :   0.9857 B(  0-C ,  4-H ) :   0.9097
B(  2-C ,  3-C ) :   1.9828 B(  2-C ,  5-H ) :   0.9479 B(  3-C ,  6-H ) :   0.9642
B(  3-C ,  7-H ) :   0.9559

-----------------------------------------------------------------------------
         ABSORPTION SPECTRUM VIA TRANSITION ELECTRIC DIPOLE MOMENTS
-----------------------------------------------------------------------------
State   Energy    Wavelength  fosc         T2        TX        TY        TZ
        (cm-1)      (nm)                 (au**2)    (au)      (au)      (au)
-----------------------------------------------------------------------------
   1   34755.8    287.7   0.000028550   0.00027   0.01262   0.00850   0.00622

Dispersion correction           -0.024848828
FINAL SINGLE POINT ENERGY      -189.309311035128

DIPOLE MOMENT
-------------
                                X             Y             Z
Electronic contribution:     -3.40730      -0.69752       1.01595
Nuclear contribution   :      4.35686       0.81867      -1.55797
                        -----------------------------------------
Total Dipole Moment    :      0.94956       0.12115      -0.54203
                        -----------------------------------------
Magnitude (a.u.)       :      1.10006
Magnitude (Debye)      :      2.79614

Rotational constants in cm-1:     1.514080     0.151337     0.138967
Rotational constants in MHz : 45390.974475  4536.979240  4166.124930

                             ****ORCA TERMINATED NORMALLY****
TOTAL RUN TIME: 0 days 0 hours 0 minutes 16 seconds 127 msec
