                         Program Version 5.0.3 -  RELEASE  -
|  1> ! B3LYP cc-pVDZ
|  2> !TightSCF
|  3> %scf
|  4>  ConvForced true
|  5>  convergence tight
|  6>  MaxIter 500
|  7> end
|  8>
|  9> %tddft
| 10>  nroots 1
| 11> end
| 12>
| 13> # 	25993
| 14> * xyz 0 1
| 15> 		C   -0.591265  -0.413695   0.059596
| 16> 		O   -0.516635  -1.578317  -0.015237
| 17> 		C    0.571590   0.409761  -0.017463
| 18> 		C    1.859257  -0.189256  -0.014409
| 19> 		H   -1.567209   0.095879  -0.201139
| 20> 		H    0.350156   1.562079  -0.039285
| 21> 		H    1.771865  -1.395066   0.010912
| 22> 		H    2.644569   0.347959   0.149665
| 23> *
| 24>
| 25>                          ****END OF INPUT****

CARTESIAN COORDINATES (ANGSTROEM)
---------------------------------
  C     -0.591265   -0.413695    0.059596
  O     -0.516635   -1.578317   -0.015237
  C      0.571590    0.409761   -0.017463
  C      1.859257   -0.189256   -0.014409
  H     -1.567209    0.095879   -0.201139
  H      0.350156    1.562079   -0.039285
  H      1.771865   -1.395066    0.010912
  H      2.644569    0.347959    0.149665

 Total Charge           Charge          ....    0
 Multiplicity           Mult            ....    1
 Number of Electrons    NEL             ....   30
 Basis Dimension        Dim             ....   76

ORBITAL ENERGIES
----------------

  NO   OCC          E(Eh)            E(eV)
   0   2.0000     -19.134706      -520.6818
   1   2.0000     -10.265819      -279.3471
   2   2.0000     -10.220423      -278.1118
   3   2.0000     -10.212905      -277.9073
   4   2.0000      -1.071332       -29.1524
   5   2.0000      -0.781539       -21.2668
   6   2.0000      -0.664898       -18.0928
   7   2.0000      -0.539221       -14.6729
   8   2.0000      -0.498010       -13.5515
   9   2.0000      -0.444936       -12.1073
  10   2.0000      -0.434842       -11.8326
  11   2.0000      -0.411039       -11.1849
  12   2.0000      -0.371810       -10.1175
  13   2.0000      -0.275463        -7.4957
  14   2.0000      -0.253607        -6.9010
  15   0.0000      -0.079784        -2.1710
  16   0.0000       0.056617         1.5406
  17   0.0000       0.067094         1.8257
  18   0.0000       0.090260         2.4561
  19   0.0000       0.122005         3.3199

MULLIKEN ATOMIC CHARGES
-----------------------
   0 C :    0.176030
   1 O :   -0.161724
   2 C :   -0.164008
   3 C :    0.098087
   4 H :   -0.028665
   5 H :    0.012350
   6 H :    0.078538
   7 H :   -0.010608
Sum of atomic charges:    0.0000000

LOEWDIN ATOMIC CHARGES
----------------------
   0 C :   -0.089450
   1 O :    0.038432
   2 C :   -0.078689
   3 C :    0.048965
   4 H :   -0.005013
   5 H :    0.036829
   6 H :    0.064394
   7 H :   -0.015467

  Mayer bond orders larger than 0.100000
B(  0-C ,  1-O ) :   2.1924 B(  0-C ,  2-C ) :   1.0893 B(  0-C ,  4-H ) :   0.9128
B(  1-O ,  3-C ) :   0.1054 B(  2-C ,  3-C ) :   1.9156 B(  2-C ,  5-H ) :   0.9407
B(  3-C ,  6-H ) :   0.9218 B(  3-C ,  7-H ) :   0.9447

-----------------------------------------------------------------------------
         ABSORPTION SPECTRUM VIA TRANSITION ELECTRIC DIPOLE MOMENTS
-----------------------------------------------------------------------------
State   Energy    Wavelength  fosc         T2        TX        TY        TZ
        (cm-1)      (nm)                 (au**2)    (au)      (au)      (au)
-----------------------------------------------------------------------------
   1   26011.3    384.4   0.000271194   0.00343   0.00601   0.01072  -0.05728

FINAL SINGLE POINT ENERGY      -191.644384991117

DIPOLE MOMENT
-------------
                                X             Y             Z
Electronic contribution:     -1.50251      -1.59305       0.13468
Nuclear contribution   :      1.84788       2.36120      -0.07572
                        -----------------------------------------
Total Dipole Moment    :      0.34537       0.76815       0.05896
                        -----------------------------------------
Magnitude (a.u.)       :      0.84428
Magnitude (Debye)      :      2.14599

Rotational constants in cm-1:     0.709761     0.227891     0.172919
Rotational constants in MHz : 21278.094155  6831.991073  5183.988044

                             ****ORCA TERMINATED NORMALLY****
TOTAL RUN TIME: 0 days 0 hours 3 minutes 18 seconds 778 msec
