                         Program Version 5.0.3 -  RELEASE  -
|  1> ! HF-3c
|  2> !TightSCF
|  3> %scf
|  4>  ConvForced true
|  5>  convergence tight
|  6>  MaxIter 500
|  7> end
|  8>
|  9> %tddft
| 10>  nroots 1
| 11> end
| 12>
| 13> # 	31831
| 14> * xyz 0 1
| 15> 		C   -0.552215  -0.424876  -0.069532
| 16> 		O   -0.557995  -1.628254   0.036297
| 17> 		C    0.623118   0.411147   0.039486
| 18> 		C    1.794880  -0.125661  -0.023751
| 19> 		H   -1.558562   0.209452   0.020230
| 20> 		H    0.496905   1.485501   0.064206
| 21> 		H    1.713393  -1.335151  -0.168522
| 22> 		H    2.929565   0.389031   0.163551
| 23> *
| 24>
| 25>                          ****END OF INPUT****

CARTESIAN COORDINATES (ANGSTROEM)
---------------------------------
  C     -0.552215   -0.424876   -0.069532
  O     -0.557995   -1.628254    0.036297
  C      0.623118    0.411147    0.039486
  C      1.794880   -0.125661   -0.023751
  H     -1.558562    0.209452    0.020230
  H      0.496905    1.485501    0.064206
  H      1.713393   -1.335151   -0.168522
  H      2.929565    0.389031    0.163551

 Total Charge           Charge          ....    0
 Multiplicity           Mult            ....    1
 Number of Electrons    NEL             ....   30
 Basis Dimension        Dim             ....   24

ORBITAL ENERGIES
----------------

  NO   OCC          E(Eh)            E(eV)
   0   2.0000     -20.355383      -553.8981
   1   2.0000     -11.290403      -307.2275
   2   2.0000     -11.185921      -304.3844
   3   2.0000     -11.177081      -304.1438
   4   2.0000      -1.399027       -38.0694
   5   2.0000      -1.085870       -29.5480
   6   2.0000      -0.869414       -23.6580
   7   2.0000      -0.712364       -19.3844
   8   2.0000      -0.693015       -18.8579
   9   2.0000      -0.601813       -16.3762
  10   2.0000      -0.571982       -15.5644
  11   2.0000      -0.544639       -14.8204
  12   2.0000      -0.487906       -13.2766
  13   2.0000      -0.403240       -10.9727
  14   2.0000      -0.395865       -10.7720
  15   0.0000       0.142589         3.8800
  16   0.0000       0.327129         8.9016
  17   0.0000       0.463423        12.6104
  18   0.0000       0.514258        13.9937
  19   0.0000       0.600142        16.3307

MULLIKEN ATOMIC CHARGES
-----------------------
   0 C :    0.181459
   1 O :   -0.369346
   2 C :   -0.220520
   3 C :   -0.176631
   4 H :    0.128921
   5 H :    0.140610
   6 H :    0.160067
   7 H :    0.155439
Sum of atomic charges:    0.0000000

LOEWDIN ATOMIC CHARGES
----------------------
   0 C :    0.155792
   1 O :   -0.274572
   2 C :   -0.176910
   3 C :   -0.097810
   4 H :    0.073072
   5 H :    0.089007
   6 H :    0.115553
   7 H :    0.115869

  Mayer bond orders larger than 0.100000
B(  0-C ,  1-O ) :   1.8975 B(  0-C ,  2-C ) :   1.0316 B(  0-C ,  4-H ) :   0.9144
B(  2-C ,  3-C ) :   1.9373 B(  2-C ,  5-H ) :   0.9550 B(  3-C ,  6-H ) :   0.9428
B(  3-C ,  7-H ) :   0.9542

-----------------------------------------------------------------------------
         ABSORPTION SPECTRUM VIA TRANSITION ELECTRIC DIPOLE MOMENTS
-----------------------------------------------------------------------------
State   Energy    Wavelength  fosc         T2        TX        TY        TZ
        (cm-1)      (nm)                 (au**2)    (au)      (au)      (au)
-----------------------------------------------------------------------------
   1   33575.7    297.8   0.000229919   0.00225   0.03895  -0.00765  -0.02605

Dispersion correction           -0.026163109
FINAL SINGLE POINT ENERGY      -189.296571043165

DIPOLE MOMENT
-------------
                                X             Y             Z
Electronic contribution:     -1.74066      -1.59415      -0.12130
Nuclear contribution   :      2.20302       2.49083       0.07410
                        -----------------------------------------
Total Dipole Moment    :      0.46237       0.89667      -0.04720
                        -----------------------------------------
Magnitude (a.u.)       :      1.00997
Magnitude (Debye)      :      2.56713

Rotational constants in cm-1:     0.765352     0.217655     0.170025
Rotational constants in MHz : 22944.684723  6525.128121  5097.220695

                             ****ORCA TERMINATED NORMALLY****
TOTAL RUN TIME: 0 days 0 hours 0 minutes 12 seconds 536 msec
