                         Program Version 5.0.3 -  RELEASE  -
|  1> ! HF-3c
|  2> !TightSCF
|  3> %scf
|  4>  ConvForced true
|  5>  convergence tight
|  6>  MaxIter 500
|  7> end
|  8>
|  9> %tddft
| 10>  nroots 1
| 11> end
| 12>
| 13> # 	5531
| 14> * xyz 0 1
| 15> 		C   -1.159673  -0.286430   0.028513
| 16> 		O   -1.641681  -1.075289   0.882492
| 17> 		C   -0.007471   0.468810   0.318005
| 18> 		C    1.204869   0.010157  -0.196703
| 19> 		H   -1.610209  -0.164559  -1.075863
| 20> 		H   -0.188266   1.408840   0.853800
| 21> 		H    1.195701  -0.884825  -0.812709
| 22> 		H    2.164417   0.523750  -0.037643
| 23> *
| 24>
| 25>                          ****END OF INPUT****

CARTESIAN COORDINATES (ANGSTROEM)
---------------------------------
  C     -1.159673   -0.286430    0.028513
  O     -1.641681   -1.075289    0.882492
  C     -0.007471    0.468810    0.318005
  C      1.204869    0.010157   -0.196703
  H     -1.610209   -0.164559   -1.075863
  H     -0.188266    1.408840    0.853800
  H      1.195701   -0.884825   -0.812709
  H      2.164417    0.523750   -0.037643

 Total Charge           Charge          ....    0
 Multiplicity           Mult            ....    1
 Number of Electrons    NEL             ....   30
 Basis Dimension        Dim             ....   24

ORBITAL ENERGIES
----------------

  NO   OCC          E(Eh)            E(eV)
   0   2.0000     -20.354077      -553.8626
   1   2.0000     -11.285402      -307.0914
   2   2.0000     -11.191501      -304.5362
   3   2.0000     -11.181259      -304.2575
   4   2.0000      -1.368931       -37.2505
   5   2.0000      -1.074961       -29.2512
   6   2.0000      -0.885136       -24.0858
   7   2.0000      -0.750678       -20.4270
   8   2.0000      -0.665587       -18.1115
   9   2.0000      -0.629737       -17.1360
  10   2.0000      -0.592096       -16.1117
  11   2.0000      -0.550099       -14.9689
  12   2.0000      -0.473032       -12.8718
  13   2.0000      -0.411637       -11.2012
  14   2.0000      -0.380808       -10.3623
  15   0.0000       0.168540         4.5862
  16   0.0000       0.199388         5.4256
  17   0.0000       0.541911        14.7461
  18   0.0000       0.603926        16.4337
  19   0.0000       0.650775        17.7085

MULLIKEN ATOMIC CHARGES
-----------------------
   0 C :    0.156274
   1 O :   -0.338624
   2 C :   -0.170658
   3 C :   -0.227910
   4 H :    0.141814
   5 H :    0.157647
   6 H :    0.137749
   7 H :    0.143708
Sum of atomic charges:   -0.0000000

LOEWDIN ATOMIC CHARGES
----------------------
   0 C :    0.145336
   1 O :   -0.259780
   2 C :   -0.122727
   3 C :   -0.138447
   4 H :    0.086930
   5 H :    0.105365
   6 H :    0.088883
   7 H :    0.094438

  Mayer bond orders larger than 0.100000
B(  0-C ,  1-O ) :   1.9277 B(  0-C ,  2-C ) :   1.0311 B(  0-C ,  4-H ) :   0.9090
B(  2-C ,  3-C ) :   1.9673 B(  2-C ,  5-H ) :   0.9465 B(  3-C ,  6-H ) :   0.9683
B(  3-C ,  7-H ) :   0.9660

-----------------------------------------------------------------------------
         ABSORPTION SPECTRUM VIA TRANSITION ELECTRIC DIPOLE MOMENTS
-----------------------------------------------------------------------------
State   Energy    Wavelength  fosc         T2        TX        TY        TZ
        (cm-1)      (nm)                 (au**2)    (au)      (au)      (au)
-----------------------------------------------------------------------------
   1   31927.9    313.2   0.000029637   0.00031  -0.01338   0.00149   0.01115

Dispersion correction           -0.025259316
FINAL SINGLE POINT ENERGY      -189.312974362609

DIPOLE MOMENT
-------------
                                X             Y             Z
Electronic contribution:     -2.54550      -1.09903       1.27005
Nuclear contribution   :      3.06961       1.75355      -1.99014
                        -----------------------------------------
Total Dipole Moment    :      0.52411       0.65451      -0.72008
                        -----------------------------------------
Magnitude (a.u.)       :      1.10526
Magnitude (Debye)      :      2.80934

Rotational constants in cm-1:     0.932026     0.170891     0.164657
Rotational constants in MHz : 27941.449605  5123.185303  4936.280940

                             ****ORCA TERMINATED NORMALLY****
TOTAL RUN TIME: 0 days 0 hours 0 minutes 12 seconds 225 msec
