                         Program Version 5.0.3 -  RELEASE  -
|  1> ! B3LYP cc-pVDZ
|  2> !TightSCF
|  3> %scf
|  4>  ConvForced true
|  5>  convergence tight
|  6>  MaxIter 500
|  7> end
|  8>
|  9> %tddft
| 10>  nroots 1
| 11> end
| 12>
| 13> # 	31999
| 14> * xyz 0 1
| 15> 		C   -0.596300  -0.441527   0.026226
| 16> 		O   -0.573532  -1.652660  -0.003227
| 17> 		C    0.641917   0.427443  -0.027713
| 18> 		C    1.824594  -0.117513  -0.014201
| 19> 		H   -1.454104   0.300320  -0.072958
| 20> 		H    0.528018   1.423923   0.122982
| 21> 		H    1.844922  -1.099825   0.071811
| 22> 		H    2.845265   0.431598   0.128335
| 23> *
| 24>
| 25>                          ****END OF INPUT****

CARTESIAN COORDINATES (ANGSTROEM)
---------------------------------
  C     -0.596300   -0.441527    0.026226
  O     -0.573532   -1.652660   -0.003227
  C      0.641917    0.427443   -0.027713
  C      1.824594   -0.117513   -0.014201
  H     -1.454104    0.300320   -0.072958
  H      0.528018    1.423923    0.122982
  H      1.844922   -1.099825    0.071811
  H      2.845265    0.431598    0.128335

 Total Charge           Charge          ....    0
 Multiplicity           Mult            ....    1
 Number of Electrons    NEL             ....   30
 Basis Dimension        Dim             ....   76

ORBITAL ENERGIES
----------------

  NO   OCC          E(Eh)            E(eV)
   0   2.0000     -19.148429      -521.0552
   1   2.0000     -10.283366      -279.8246
   2   2.0000     -10.201117      -277.5865
   3   2.0000     -10.189702      -277.2759
   4   2.0000      -1.051127       -28.6026
   5   2.0000      -0.803147       -21.8547
   6   2.0000      -0.658522       -17.9193
   7   2.0000      -0.554098       -15.0778
   8   2.0000      -0.501834       -13.6556
   9   2.0000      -0.454563       -12.3693
  10   2.0000      -0.424512       -11.5515
  11   2.0000      -0.401070       -10.9137
  12   2.0000      -0.382673       -10.4131
  13   2.0000      -0.292246        -7.9524
  14   2.0000      -0.259824        -7.0702
  15   0.0000      -0.068455        -1.8628
  16   0.0000       0.057230         1.5573
  17   0.0000       0.066314         1.8045
  18   0.0000       0.092464         2.5161
  19   0.0000       0.134761         3.6670

MULLIKEN ATOMIC CHARGES
-----------------------
   0 C :    0.182876
   1 O :   -0.184734
   2 C :   -0.092436
   3 C :    0.113859
   4 H :   -0.006645
   5 H :   -0.045469
   6 H :   -0.011518
   7 H :    0.044068
Sum of atomic charges:    0.0000000

LOEWDIN ATOMIC CHARGES
----------------------
   0 C :   -0.022731
   1 O :    0.003343
   2 C :   -0.073246
   3 C :    0.039553
   4 H :   -0.001577
   5 H :    0.007393
   6 H :   -0.000968
   7 H :    0.048234

  Mayer bond orders larger than 0.100000
B(  0-C ,  1-O ) :   2.1944 B(  0-C ,  2-C ) :   1.0371 B(  0-C ,  4-H ) :   0.9059
B(  2-C ,  3-C ) :   1.9820 B(  2-C ,  5-H ) :   0.9487 B(  3-C ,  6-H ) :   0.9210
B(  3-C ,  7-H ) :   0.9482

-----------------------------------------------------------------------------
         ABSORPTION SPECTRUM VIA TRANSITION ELECTRIC DIPOLE MOMENTS
-----------------------------------------------------------------------------
State   Energy    Wavelength  fosc         T2        TX        TY        TZ
        (cm-1)      (nm)                 (au**2)    (au)      (au)      (au)
-----------------------------------------------------------------------------
   1   28899.7    346.0   0.000293071   0.00334  -0.04794  -0.00050  -0.03225

FINAL SINGLE POINT ENERGY      -191.649103392100

DIPOLE MOMENT
-------------
                                X             Y             Z
Electronic contribution:     -2.02292      -1.90705      -0.14416
Nuclear contribution   :      2.37504       2.77780       0.23384
                        -----------------------------------------
Total Dipole Moment    :      0.35212       0.87075       0.08968
                        -----------------------------------------
Magnitude (a.u.)       :      0.94352
Magnitude (Debye)      :      2.39825

Rotational constants in cm-1:     0.773638     0.209196     0.164870
Rotational constants in MHz : 23193.093754  6271.539604  4942.673153

                             ****ORCA TERMINATED NORMALLY****
TOTAL RUN TIME: 0 days 0 hours 3 minutes 21 seconds 868 msec
