                         Program Version 5.0.3 -  RELEASE  -
|  1> ! B3LYP cc-pVDZ
|  2> !TightSCF
|  3> %scf
|  4>  ConvForced true
|  5>  convergence tight
|  6>  MaxIter 500
|  7> end
|  8>
|  9> %tddft
| 10>  nroots 1
| 11> end
| 12>
| 13> # 	27890
| 14> * xyz 0 1
| 15> 		C   -0.595440  -0.404659  -0.045466
| 16> 		O   -0.601928  -1.635167   0.014014
| 17> 		C    0.644547   0.331751   0.025698
| 18> 		C    1.874867  -0.079161  -0.027308
| 19> 		H   -1.613836   0.096544   0.167297
| 20> 		H    0.362167   1.467319  -0.030137
| 21> 		H    2.036776  -1.042385   0.065987
| 22> 		H    2.769290   0.509237   0.138543
| 23> *
| 24>
| 25>                          ****END OF INPUT****

CARTESIAN COORDINATES (ANGSTROEM)
---------------------------------
  C     -0.595440   -0.404659   -0.045466
  O     -0.601928   -1.635167    0.014014
  C      0.644547    0.331751    0.025698
  C      1.874867   -0.079161   -0.027308
  H     -1.613836    0.096544    0.167297
  H      0.362167    1.467319   -0.030137
  H      2.036776   -1.042385    0.065987
  H      2.769290    0.509237    0.138543

 Total Charge           Charge          ....    0
 Multiplicity           Mult            ....    1
 Number of Electrons    NEL             ....   30
 Basis Dimension        Dim             ....   76

ORBITAL ENERGIES
----------------

  NO   OCC          E(Eh)            E(eV)
   0   2.0000     -19.136659      -520.7350
   1   2.0000     -10.277054      -279.6529
   2   2.0000     -10.209834      -277.8237
   3   2.0000     -10.201848      -277.6064
   4   2.0000      -1.035919       -28.1888
   5   2.0000      -0.806697       -21.9513
   6   2.0000      -0.671477       -18.2718
   7   2.0000      -0.544829       -14.8256
   8   2.0000      -0.505512       -13.7557
   9   2.0000      -0.458281       -12.4704
  10   2.0000      -0.430808       -11.7229
  11   2.0000      -0.397384       -10.8134
  12   2.0000      -0.363795        -9.8994
  13   2.0000      -0.294808        -8.0221
  14   2.0000      -0.254132        -6.9153
  15   0.0000      -0.077818        -2.1175
  16   0.0000       0.050857         1.3839
  17   0.0000       0.067857         1.8465
  18   0.0000       0.099149         2.6980
  19   0.0000       0.117349         3.1932

MULLIKEN ATOMIC CHARGES
-----------------------
   0 C :    0.149245
   1 O :   -0.204078
   2 C :   -0.136052
   3 C :    0.171880
   4 H :   -0.000521
   5 H :   -0.002320
   6 H :   -0.013296
   7 H :    0.035142
Sum of atomic charges:    0.0000000

LOEWDIN ATOMIC CHARGES
----------------------
   0 C :   -0.037401
   1 O :   -0.020849
   2 C :   -0.075714
   3 C :    0.041391
   4 H :    0.009917
   5 H :    0.037041
   6 H :    0.004733
   7 H :    0.040882

  Mayer bond orders larger than 0.100000
B(  0-C ,  1-O ) :   2.1529 B(  0-C ,  2-C ) :   1.0769 B(  0-C ,  4-H ) :   0.9169
B(  2-C ,  3-C ) :   1.9861 B(  2-C ,  5-H ) :   0.9290 B(  3-C ,  6-H ) :   0.9163
B(  3-C ,  7-H ) :   0.9398

-----------------------------------------------------------------------------
         ABSORPTION SPECTRUM VIA TRANSITION ELECTRIC DIPOLE MOMENTS
-----------------------------------------------------------------------------
State   Energy    Wavelength  fosc         T2        TX        TY        TZ
        (cm-1)      (nm)                 (au**2)    (au)      (au)      (au)
-----------------------------------------------------------------------------
   1   25402.7    393.7   0.000278611   0.00361   0.04162  -0.00368  -0.04319

FINAL SINGLE POINT ENERGY      -191.663253722381

DIPOLE MOMENT
-------------
                                X             Y             Z
Electronic contribution:     -1.75754      -1.90546      -0.28965
Nuclear contribution   :      2.17922       2.75375       0.32056
                        -----------------------------------------
Total Dipole Moment    :      0.42168       0.84829       0.03090
                        -----------------------------------------
Magnitude (a.u.)       :      0.94783
Magnitude (Debye)      :      2.40918

Rotational constants in cm-1:     0.814850     0.203167     0.162928
Rotational constants in MHz : 24428.586635  6090.794272  4884.446970

                             ****ORCA TERMINATED NORMALLY****
TOTAL RUN TIME: 0 days 0 hours 3 minutes 27 seconds 952 msec
