                         Program Version 5.0.3 -  RELEASE  -
|  1> ! B3LYP cc-pVDZ
|  2> !TightSCF
|  3> %scf
|  4>  ConvForced true
|  5>  convergence tight
|  6>  MaxIter 500
|  7> end
|  8>
|  9> %tddft
| 10>  nroots 1
| 11> end
| 12>
| 13> # 	486
| 14> * xyz 0 1
| 15> 		C   -1.253356  -0.405903   0.017305
| 16> 		O   -1.457175  -1.352762  -0.624433
| 17> 		C    0.015737   0.439323  -0.149761
| 18> 		C    1.129551  -0.016402   0.135605
| 19> 		H   -2.076950   0.026237   0.679365
| 20> 		H    0.016466   1.548638  -0.651391
| 21> 		H    1.534900  -0.859411   0.515730
| 22> 		H    2.030914   0.613835   0.042452
| 23> *
| 24>
| 25>                          ****END OF INPUT****

CARTESIAN COORDINATES (ANGSTROEM)
---------------------------------
  C     -1.253356   -0.405903    0.017305
  O     -1.457175   -1.352762   -0.624433
  C      0.015737    0.439323   -0.149761
  C      1.129551   -0.016402    0.135605
  H     -2.076950    0.026237    0.679365
  H      0.016466    1.548638   -0.651391
  H      1.534900   -0.859411    0.515730
  H      2.030914    0.613835    0.042452

 Total Charge           Charge          ....    0
 Multiplicity           Mult            ....    1
 Number of Electrons    NEL             ....   30
 Basis Dimension        Dim             ....   76

ORBITAL ENERGIES
----------------

  NO   OCC          E(Eh)            E(eV)
   0   2.0000     -19.146725      -521.0089
   1   2.0000     -10.281979      -279.7869
   2   2.0000     -10.203669      -277.6560
   3   2.0000     -10.182264      -277.0735
   4   2.0000      -1.081455       -29.4279
   5   2.0000      -0.806042       -21.9335
   6   2.0000      -0.641376       -17.4527
   7   2.0000      -0.557832       -15.1794
   8   2.0000      -0.500974       -13.6322
   9   2.0000      -0.461054       -12.5459
  10   2.0000      -0.451698       -12.2913
  11   2.0000      -0.396830       -10.7983
  12   2.0000      -0.360350        -9.8056
  13   2.0000      -0.302950        -8.2437
  14   2.0000      -0.251721        -6.8497
  15   0.0000      -0.029740        -0.8093
  16   0.0000       0.018454         0.5022
  17   0.0000       0.065258         1.7758
  18   0.0000       0.096487         2.6255
  19   0.0000       0.102659         2.7935

MULLIKEN ATOMIC CHARGES
-----------------------
   0 C :    0.161147
   1 O :   -0.132525
   2 C :   -0.134666
   3 C :    0.102163
   4 H :   -0.018593
   5 H :    0.039577
   6 H :   -0.023346
   7 H :    0.006244
Sum of atomic charges:   -0.0000000

LOEWDIN ATOMIC CHARGES
----------------------
   0 C :   -0.044194
   1 O :    0.058297
   2 C :   -0.080848
   3 C :   -0.029546
   4 H :   -0.010799
   5 H :    0.061544
   6 H :    0.008339
   7 H :    0.037208

  Mayer bond orders larger than 0.100000
B(  0-C ,  1-O ) :   2.2863 B(  0-C ,  2-C ) :   0.9402 B(  0-C ,  4-H ) :   0.9020
B(  2-C ,  3-C ) :   2.0744 B(  2-C ,  5-H ) :   0.9000 B(  3-C ,  6-H ) :   0.9665
B(  3-C ,  7-H ) :   0.9321

-----------------------------------------------------------------------------
         ABSORPTION SPECTRUM VIA TRANSITION ELECTRIC DIPOLE MOMENTS
-----------------------------------------------------------------------------
State   Energy    Wavelength  fosc         T2        TX        TY        TZ
        (cm-1)      (nm)                 (au**2)    (au)      (au)      (au)
-----------------------------------------------------------------------------
   1   34323.4    291.3   0.000440035   0.00422   0.04751   0.03220  -0.03044

FINAL SINGLE POINT ENERGY      -191.602203166494

DIPOLE MOMENT
-------------
                                X             Y             Z
Electronic contribution:     -2.56194      -1.93895      -0.79943
Nuclear contribution   :      2.94263       2.57773       1.16978
                        -----------------------------------------
Total Dipole Moment    :      0.38069       0.63878       0.37035
                        -----------------------------------------
Magnitude (a.u.)       :      0.83074
Magnitude (Debye)      :      2.11157

Rotational constants in cm-1:     0.915751     0.185059     0.165169
Rotational constants in MHz : 27453.536654  5547.938031  4951.648247

                             ****ORCA TERMINATED NORMALLY****
TOTAL RUN TIME: 0 days 0 hours 3 minutes 16 seconds 818 msec
