                         Program Version 5.0.3 -  RELEASE  -
|  1> ! B3LYP cc-pVDZ
|  2> !TightSCF
|  3> %scf
|  4>  ConvForced true
|  5>  convergence tight
|  6>  MaxIter 500
|  7> end
|  8>
|  9> %tddft
| 10>  nroots 1
| 11> end
| 12>
| 13> # 	10790
| 14> * xyz 0 1
| 15> 		C   -1.201687  -0.282056   0.039776
| 16> 		O   -1.548578  -1.169679   0.841689
| 17> 		C    0.038842   0.539155   0.099015
| 18> 		C    1.293342   0.054066  -0.146029
| 19> 		H   -1.900569  -0.301976  -0.751967
| 20> 		H   -0.110082   1.589945   0.479858
| 21> 		H    1.299716  -1.067697  -0.422238
| 22> 		H    2.083764   0.708495  -0.072810
| 23> *
| 24>
| 25>                          ****END OF INPUT****

CARTESIAN COORDINATES (ANGSTROEM)
---------------------------------
  C     -1.201687   -0.282056    0.039776
  O     -1.548578   -1.169679    0.841689
  C      0.038842    0.539155    0.099015
  C      1.293342    0.054066   -0.146029
  H     -1.900569   -0.301976   -0.751967
  H     -0.110082    1.589945    0.479858
  H      1.299716   -1.067697   -0.422238
  H      2.083764    0.708495   -0.072810

 Total Charge           Charge          ....    0
 Multiplicity           Mult            ....    1
 Number of Electrons    NEL             ....   30
 Basis Dimension        Dim             ....   76

ORBITAL ENERGIES
----------------

  NO   OCC          E(Eh)            E(eV)
   0   2.0000     -19.138199      -520.7769
   1   2.0000     -10.276110      -279.6272
   2   2.0000     -10.217953      -278.0446
   3   2.0000     -10.214366      -277.9470
   4   2.0000      -1.029851       -28.0237
   5   2.0000      -0.790955       -21.5230
   6   2.0000      -0.655710       -17.8428
   7   2.0000      -0.557133       -15.1604
   8   2.0000      -0.502310       -13.6685
   9   2.0000      -0.453649       -12.3444
  10   2.0000      -0.428923       -11.6716
  11   2.0000      -0.394789       -10.7427
  12   2.0000      -0.360821        -9.8184
  13   2.0000      -0.285599        -7.7715
  14   2.0000      -0.249488        -6.7889
  15   0.0000      -0.043409        -1.1812
  16   0.0000      -0.018129        -0.4933
  17   0.0000       0.078746         2.1428
  18   0.0000       0.084585         2.3017
  19   0.0000       0.107516         2.9257

MULLIKEN ATOMIC CHARGES
-----------------------
   0 C :    0.180404
   1 O :   -0.215488
   2 C :   -0.116037
   3 C :    0.065387
   4 H :   -0.008575
   5 H :    0.033660
   6 H :    0.045773
   7 H :    0.014876
Sum of atomic charges:   -0.0000000

LOEWDIN ATOMIC CHARGES
----------------------
   0 C :   -0.001036
   1 O :   -0.028313
   2 C :   -0.062243
   3 C :   -0.010487
   4 H :   -0.005058
   5 H :    0.043275
   6 H :    0.048779
   7 H :    0.015082

  Mayer bond orders larger than 0.100000
B(  0-C ,  1-O ) :   2.1851 B(  0-C ,  2-C ) :   0.9722 B(  0-C ,  4-H ) :   0.9513
B(  2-C ,  3-C ) :   2.0275 B(  2-C ,  5-H ) :   0.9331 B(  3-C ,  6-H ) :   0.9398
B(  3-C ,  7-H ) :   0.9400

-----------------------------------------------------------------------------
         ABSORPTION SPECTRUM VIA TRANSITION ELECTRIC DIPOLE MOMENTS
-----------------------------------------------------------------------------
State   Energy    Wavelength  fosc         T2        TX        TY        TZ
        (cm-1)      (nm)                 (au**2)    (au)      (au)      (au)
-----------------------------------------------------------------------------
   1   29767.3    335.9   0.000029749   0.00033  -0.00671   0.01020   0.01342

FINAL SINGLE POINT ENERGY      -191.642102705055

DIPOLE MOMENT
-------------
                                X             Y             Z
Electronic contribution:     -2.25318      -1.09728       1.01544
Nuclear contribution   :      2.73166       1.79754      -1.55440
                        -----------------------------------------
Total Dipole Moment    :      0.47848       0.70026      -0.53896
                        -----------------------------------------
Magnitude (a.u.)       :      1.00488
Magnitude (Debye)      :      2.55420

Rotational constants in cm-1:     0.911663     0.168792     0.153512
Rotational constants in MHz : 27330.954813  5060.267447  4602.179946

                             ****ORCA TERMINATED NORMALLY****
TOTAL RUN TIME: 0 days 0 hours 3 minutes 21 seconds 822 msec
