                         Program Version 5.0.3 -  RELEASE  -
|  1> ! HF-3c
|  2> !TightSCF
|  3> %scf
|  4>  ConvForced true
|  5>  convergence tight
|  6>  MaxIter 500
|  7> end
|  8>
|  9> %tddft
| 10>  nroots 1
| 11> end
| 12>
| 13> # 	22461
| 14> * xyz 0 1
| 15> 		C   -0.528339  -0.413878   0.059636
| 16> 		O   -0.578486  -1.649621  -0.036946
| 17> 		C    0.576407   0.446703  -0.014747
| 18> 		C    1.845682  -0.153379   0.010255
| 19> 		H   -1.532593   0.093328  -0.006804
| 20> 		H    0.566377   1.539930  -0.144058
| 21> 		H    1.845801  -1.307759   0.241786
| 22> 		H    2.726790   0.531966  -0.181731
| 23> *
| 24>
| 25>                          ****END OF INPUT****

CARTESIAN COORDINATES (ANGSTROEM)
---------------------------------
  C     -0.528339   -0.413878    0.059636
  O     -0.578486   -1.649621   -0.036946
  C      0.576407    0.446703   -0.014747
  C      1.845682   -0.153379    0.010255
  H     -1.532593    0.093328   -0.006804
  H      0.566377    1.539930   -0.144058
  H      1.845801   -1.307759    0.241786
  H      2.726790    0.531966   -0.181731

 Total Charge           Charge          ....    0
 Multiplicity           Mult            ....    1
 Number of Electrons    NEL             ....   30
 Basis Dimension        Dim             ....   24

ORBITAL ENERGIES
----------------

  NO   OCC          E(Eh)            E(eV)
   0   2.0000     -20.333483      -553.3022
   1   2.0000     -11.279917      -306.9422
   2   2.0000     -11.194503      -304.6179
   3   2.0000     -11.178439      -304.1808
   4   2.0000      -1.367871       -37.2217
   5   2.0000      -1.070151       -29.1203
   6   2.0000      -0.885178       -24.0869
   7   2.0000      -0.723369       -19.6839
   8   2.0000      -0.701134       -19.0788
   9   2.0000      -0.589563       -16.0428
  10   2.0000      -0.567908       -15.4536
  11   2.0000      -0.527466       -14.3531
  12   2.0000      -0.524653       -14.2765
  13   2.0000      -0.401988       -10.9386
  14   2.0000      -0.366861        -9.9828
  15   0.0000       0.113942         3.1005
  16   0.0000       0.310468         8.4483
  17   0.0000       0.521257        14.1841
  18   0.0000       0.562415        15.3041
  19   0.0000       0.631362        17.1802

MULLIKEN ATOMIC CHARGES
-----------------------
   0 C :    0.144556
   1 O :   -0.366397
   2 C :   -0.203120
   3 C :   -0.172366
   4 H :    0.127856
   5 H :    0.147857
   6 H :    0.172683
   7 H :    0.148931
Sum of atomic charges:   -0.0000000

LOEWDIN ATOMIC CHARGES
----------------------
   0 C :    0.137257
   1 O :   -0.285947
   2 C :   -0.163764
   3 C :   -0.076739
   4 H :    0.067822
   5 H :    0.097121
   6 H :    0.123291
   7 H :    0.100959

  Mayer bond orders larger than 0.100000
B(  0-C ,  1-O ) :   1.8543 B(  0-C ,  2-C ) :   1.0942 B(  0-C ,  4-H ) :   0.9283
B(  2-C ,  3-C ) :   1.8719 B(  2-C ,  5-H ) :   0.9597 B(  3-C ,  6-H ) :   0.9528
B(  3-C ,  7-H ) :   0.9645

-----------------------------------------------------------------------------
         ABSORPTION SPECTRUM VIA TRANSITION ELECTRIC DIPOLE MOMENTS
-----------------------------------------------------------------------------
State   Energy    Wavelength  fosc         T2        TX        TY        TZ
        (cm-1)      (nm)                 (au**2)    (au)      (au)      (au)
-----------------------------------------------------------------------------
   1   30002.5    333.3   0.000050848   0.00056   0.00141  -0.00153   0.02353

Dispersion correction           -0.025848709
FINAL SINGLE POINT ENERGY      -189.325419106103

DIPOLE MOMENT
-------------
                                X             Y             Z
Electronic contribution:     -1.62342      -1.63182       0.11696
Nuclear contribution   :      2.22400       2.59284      -0.08438
                        -----------------------------------------
Total Dipole Moment    :      0.60058       0.96102       0.03259
                        -----------------------------------------
Magnitude (a.u.)       :      1.13372
Magnitude (Debye)      :      2.88169

Rotational constants in cm-1:     0.729150     0.213529     0.165751
Rotational constants in MHz : 21859.380970  6401.425293  4969.092756

                             ****ORCA TERMINATED NORMALLY****
TOTAL RUN TIME: 0 days 0 hours 0 minutes 13 seconds 163 msec
