                         Program Version 5.0.3 -  RELEASE  -
|  1> ! HF-3c
|  2> !TightSCF
|  3> %scf
|  4>  ConvForced true
|  5>  convergence tight
|  6>  MaxIter 500
|  7> end
|  8>
|  9> %tddft
| 10>  nroots 1
| 11> end
| 12>
| 13> # 	1720
| 14> * xyz 0 1
| 15> 		C   -1.242742  -0.247177  -0.037338
| 16> 		O   -1.158127  -1.551649   0.094499
| 17> 		C    0.052889   0.548989   0.135427
| 18> 		C    1.204356  -0.090667   0.071699
| 19> 		H   -2.143099   0.177757  -0.095218
| 20> 		H   -0.120998   1.588202   0.157898
| 21> 		H    1.256052  -1.069753  -0.063392
| 22> 		H    2.106304   0.601197  -0.200657
| 23> *
| 24>
| 25>                          ****END OF INPUT****

CARTESIAN COORDINATES (ANGSTROEM)
---------------------------------
  C     -1.242742   -0.247177   -0.037338
  O     -1.158127   -1.551649    0.094499
  C      0.052889    0.548989    0.135427
  C      1.204356   -0.090667    0.071699
  H     -2.143099    0.177757   -0.095218
  H     -0.120998    1.588202    0.157898
  H      1.256052   -1.069753   -0.063392
  H      2.106304    0.601197   -0.200657

 Total Charge           Charge          ....    0
 Multiplicity           Mult            ....    1
 Number of Electrons    NEL             ....   30
 Basis Dimension        Dim             ....   24

ORBITAL ENERGIES
----------------

  NO   OCC          E(Eh)            E(eV)
   0   2.0000     -20.341416      -553.5181
   1   2.0000     -11.274221      -306.7872
   2   2.0000     -11.195920      -304.6565
   3   2.0000     -11.192306      -304.5581
   4   2.0000      -1.334063       -36.3017
   5   2.0000      -1.081161       -29.4199
   6   2.0000      -0.901851       -24.5406
   7   2.0000      -0.774494       -21.0750
   8   2.0000      -0.697367       -18.9763
   9   2.0000      -0.622145       -16.9294
  10   2.0000      -0.572084       -15.5672
  11   2.0000      -0.527696       -14.3593
  12   2.0000      -0.502032       -13.6610
  13   2.0000      -0.422838       -11.5060
  14   2.0000      -0.384646       -10.4667
  15   0.0000       0.116601         3.1729
  16   0.0000       0.275393         7.4938
  17   0.0000       0.519719        14.1423
  18   0.0000       0.611445        16.6383
  19   0.0000       0.677063        18.4238

MULLIKEN ATOMIC CHARGES
-----------------------
   0 C :    0.117840
   1 O :   -0.328022
   2 C :   -0.162042
   3 C :   -0.231124
   4 H :    0.145017
   5 H :    0.142159
   6 H :    0.160704
   7 H :    0.155468
Sum of atomic charges:   -0.0000000

LOEWDIN ATOMIC CHARGES
----------------------
   0 C :    0.130624
   1 O :   -0.261838
   2 C :   -0.109679
   3 C :   -0.130321
   4 H :    0.075523
   5 H :    0.087266
   6 H :    0.097446
   7 H :    0.110978

  Mayer bond orders larger than 0.100000
B(  0-C ,  1-O ) :   1.9008 B(  0-C ,  2-C ) :   1.0259 B(  0-C ,  4-H ) :   0.9483
B(  2-C ,  3-C ) :   1.9531 B(  2-C ,  5-H ) :   0.9617 B(  3-C ,  6-H ) :   0.9603
B(  3-C ,  7-H ) :   0.9577

-----------------------------------------------------------------------------
         ABSORPTION SPECTRUM VIA TRANSITION ELECTRIC DIPOLE MOMENTS
-----------------------------------------------------------------------------
State   Energy    Wavelength  fosc         T2        TX        TY        TZ
        (cm-1)      (nm)                 (au**2)    (au)      (au)      (au)
-----------------------------------------------------------------------------
   1   26567.0    376.4   0.000004717   0.00006  -0.00678  -0.00092   0.00340

Dispersion correction           -0.025975395
FINAL SINGLE POINT ENERGY      -189.325102934031

DIPOLE MOMENT
-------------
                                X             Y             Z
Electronic contribution:     -1.93309      -1.61047       0.23591
Nuclear contribution   :      2.17227       2.60417      -0.41252
                        -----------------------------------------
Total Dipole Moment    :      0.23918       0.99369      -0.17661
                        -----------------------------------------
Magnitude (a.u.)       :      1.03722
Magnitude (Debye)      :      2.63640

Rotational constants in cm-1:     0.694579     0.214913     0.165133
Rotational constants in MHz : 20822.956690  6442.926213  4950.558081

                             ****ORCA TERMINATED NORMALLY****
TOTAL RUN TIME: 0 days 0 hours 0 minutes 10 seconds 690 msec
