                         Program Version 5.0.3 -  RELEASE  -
|  1> ! HF-3c
|  2> !TightSCF
|  3> %scf
|  4>  ConvForced true
|  5>  convergence tight
|  6>  MaxIter 500
|  7> end
|  8>
|  9> %tddft
| 10>  nroots 1
| 11> end
| 12>
| 13> # 	14090
| 14> * xyz 0 1
| 15> 		C   -1.257610  -0.306991  -0.001324
| 16> 		O   -1.603099  -1.131742  -0.779008
| 17> 		C   -0.009949   0.456579  -0.176155
| 18> 		C    1.201532   0.033807   0.231347
| 19> 		H   -1.670667  -0.284480   0.971436
| 20> 		H   -0.057323   1.476825  -0.873996
| 21> 		H    1.262613  -0.932541   0.721685
| 22> 		H    2.163283   0.660526  -0.076829
| 23> *
| 24>
| 25>                          ****END OF INPUT****

CARTESIAN COORDINATES (ANGSTROEM)
---------------------------------
  C     -1.257610   -0.306991   -0.001324
  O     -1.603099   -1.131742   -0.779008
  C     -0.009949    0.456579   -0.176155
  C      1.201532    0.033807    0.231347
  H     -1.670667   -0.284480    0.971436
  H     -0.057323    1.476825   -0.873996
  H      1.262613   -0.932541    0.721685
  H      2.163283    0.660526   -0.076829

 Total Charge           Charge          ....    0
 Multiplicity           Mult            ....    1
 Number of Electrons    NEL             ....   30
 Basis Dimension        Dim             ....   24

ORBITAL ENERGIES
----------------

  NO   OCC          E(Eh)            E(eV)
   0   2.0000     -20.386667      -554.7494
   1   2.0000     -11.309330      -307.7425
   2   2.0000     -11.179221      -304.2021
   3   2.0000     -11.170820      -303.9735
   4   2.0000      -1.430732       -38.9322
   5   2.0000      -1.062111       -28.9015
   6   2.0000      -0.880732       -23.9659
   7   2.0000      -0.760760       -20.7013
   8   2.0000      -0.673413       -18.3245
   9   2.0000      -0.627812       -17.0836
  10   2.0000      -0.597391       -16.2558
  11   2.0000      -0.539824       -14.6893
  12   2.0000      -0.496939       -13.5224
  13   2.0000      -0.412363       -11.2210
  14   2.0000      -0.390194       -10.6177
  15   0.0000       0.186080         5.0635
  16   0.0000       0.220145         5.9905
  17   0.0000       0.510634        13.8951
  18   0.0000       0.565129        15.3779
  19   0.0000       0.615173        16.7397

MULLIKEN ATOMIC CHARGES
-----------------------
   0 C :    0.158102
   1 O :   -0.338567
   2 C :   -0.149835
   3 C :   -0.241592
   4 H :    0.141363
   5 H :    0.147924
   6 H :    0.136063
   7 H :    0.146542
Sum of atomic charges:    0.0000000

LOEWDIN ATOMIC CHARGES
----------------------
   0 C :    0.142006
   1 O :   -0.234808
   2 C :   -0.119058
   3 C :   -0.159721
   4 H :    0.071960
   5 H :    0.107721
   6 H :    0.087455
   7 H :    0.104446

  Mayer bond orders larger than 0.100000
B(  0-C ,  1-O ) :   1.9423 B(  0-C ,  2-C ) :   0.9915 B(  0-C ,  4-H ) :   0.9220
B(  2-C ,  3-C ) :   1.9972 B(  2-C ,  5-H ) :   0.9413 B(  3-C ,  6-H ) :   0.9647
B(  3-C ,  7-H ) :   0.9590

-----------------------------------------------------------------------------
         ABSORPTION SPECTRUM VIA TRANSITION ELECTRIC DIPOLE MOMENTS
-----------------------------------------------------------------------------
State   Energy    Wavelength  fosc         T2        TX        TY        TZ
        (cm-1)      (nm)                 (au**2)    (au)      (au)      (au)
-----------------------------------------------------------------------------
   1   34761.4    287.7   0.000133743   0.00127  -0.03045   0.00904   0.01606

Dispersion correction           -0.025019322
FINAL SINGLE POINT ENERGY      -189.295068903260

DIPOLE MOMENT
-------------
                                X             Y             Z
Electronic contribution:     -2.76826      -1.19737      -0.93317
Nuclear contribution   :      3.23105       1.85310       1.42866
                        -----------------------------------------
Total Dipole Moment    :      0.46279       0.65573       0.49549
                        -----------------------------------------
Magnitude (a.u.)       :      0.94322
Magnitude (Debye)      :      2.39748

Rotational constants in cm-1:     0.956328     0.170643     0.162068
Rotational constants in MHz : 28670.003422  5115.747989  4858.691362

                             ****ORCA TERMINATED NORMALLY****
TOTAL RUN TIME: 0 days 0 hours 0 minutes 16 seconds 30 msec
