                         Program Version 5.0.3 -  RELEASE  -
|  1> ! HF-3c
|  2> !TightSCF
|  3> %scf
|  4>  ConvForced true
|  5>  convergence tight
|  6>  MaxIter 500
|  7> end
|  8>
|  9> %tddft
| 10>  nroots 1
| 11> end
| 12>
| 13> # 	8665
| 14> * xyz 0 1
| 15> 		C   -1.227718  -0.381235  -0.004942
| 16> 		O   -1.534572  -1.417080   0.597417
| 17> 		C    0.015108   0.410527   0.244964
| 18> 		C    1.223338   0.092211  -0.083978
| 19> 		H   -1.869438   0.155109  -0.782826
| 20> 		H   -0.209469   1.434330   0.538117
| 21> 		H    1.436672  -0.889181  -0.597484
| 22> 		H    2.073535   0.691238   0.117941
| 23> *
| 24>
| 25>                          ****END OF INPUT****

CARTESIAN COORDINATES (ANGSTROEM)
---------------------------------
  C     -1.227718   -0.381235   -0.004942
  O     -1.534572   -1.417080    0.597417
  C      0.015108    0.410527    0.244964
  C      1.223338    0.092211   -0.083978
  H     -1.869438    0.155109   -0.782826
  H     -0.209469    1.434330    0.538117
  H      1.436672   -0.889181   -0.597484
  H      2.073535    0.691238    0.117941

 Total Charge           Charge          ....    0
 Multiplicity           Mult            ....    1
 Number of Electrons    NEL             ....   30
 Basis Dimension        Dim             ....   24

ORBITAL ENERGIES
----------------

  NO   OCC          E(Eh)            E(eV)
   0   2.0000     -20.372738      -554.3704
   1   2.0000     -11.297083      -307.4093
   2   2.0000     -11.193190      -304.5822
   3   2.0000     -11.186199      -304.3920
   4   2.0000      -1.386557       -37.7301
   5   2.0000      -1.088954       -29.6319
   6   2.0000      -0.894308       -24.3353
   7   2.0000      -0.747906       -20.3516
   8   2.0000      -0.687117       -18.6974
   9   2.0000      -0.634205       -17.2576
  10   2.0000      -0.607632       -16.5345
  11   2.0000      -0.536356       -14.5950
  12   2.0000      -0.498620       -13.5681
  13   2.0000      -0.421217       -11.4619
  14   2.0000      -0.402847       -10.9620
  15   0.0000       0.164294         4.4707
  16   0.0000       0.248520         6.7626
  17   0.0000       0.527966        14.3667
  18   0.0000       0.610654        16.6167
  19   0.0000       0.653826        17.7915

MULLIKEN ATOMIC CHARGES
-----------------------
   0 C :    0.172255
   1 O :   -0.337921
   2 C :   -0.172828
   3 C :   -0.239042
   4 H :    0.140202
   5 H :    0.147516
   6 H :    0.145340
   7 H :    0.144479
Sum of atomic charges:    0.0000000

LOEWDIN ATOMIC CHARGES
----------------------
   0 C :    0.156777
   1 O :   -0.249978
   2 C :   -0.125564
   3 C :   -0.147134
   4 H :    0.080451
   5 H :    0.096265
   6 H :    0.097433
   7 H :    0.091749

  Mayer bond orders larger than 0.100000
B(  0-C ,  1-O ) :   1.9452 B(  0-C ,  2-C ) :   0.9947 B(  0-C ,  4-H ) :   0.9156
B(  2-C ,  3-C ) :   1.9954 B(  2-C ,  5-H ) :   0.9457 B(  3-C ,  6-H ) :   0.9603
B(  3-C ,  7-H ) :   0.9627

-----------------------------------------------------------------------------
         ABSORPTION SPECTRUM VIA TRANSITION ELECTRIC DIPOLE MOMENTS
-----------------------------------------------------------------------------
State   Energy    Wavelength  fosc         T2        TX        TY        TZ
        (cm-1)      (nm)                 (au**2)    (au)      (au)      (au)
-----------------------------------------------------------------------------
   1   33173.6    301.4   0.000176385   0.00175  -0.03936  -0.01401  -0.00215

Dispersion correction           -0.025093497
FINAL SINGLE POINT ENERGY      -189.331209851381

DIPOLE MOMENT
-------------
                                X             Y             Z
Electronic contribution:     -2.48985      -1.75490       0.85091
Nuclear contribution   :      2.86437       2.61573      -1.38983
                        -----------------------------------------
Total Dipole Moment    :      0.37452       0.86083      -0.53892
                        -----------------------------------------
Magnitude (a.u.)       :      1.08246
Magnitude (Debye)      :      2.75141

Rotational constants in cm-1:     0.942010     0.171513     0.155050
Rotational constants in MHz : 28240.751665  5141.829153  4648.283652

                             ****ORCA TERMINATED NORMALLY****
TOTAL RUN TIME: 0 days 0 hours 0 minutes 10 seconds 200 msec
