                         Program Version 5.0.3 -  RELEASE  -
|  1> ! B3LYP cc-pVDZ
|  2> !TightSCF
|  3> %scf
|  4>  ConvForced true
|  5>  convergence tight
|  6>  MaxIter 500
|  7> end
|  8>
|  9> %tddft
| 10>  nroots 1
| 11> end
| 12>
| 13> # 	29414
| 14> * xyz 0 1
| 15> 		C   -0.624013  -0.461972  -0.061098
| 16> 		O   -0.564006  -1.636755   0.031320
| 17> 		C    0.589977   0.443937   0.073285
| 18> 		C    1.884781  -0.119561  -0.025120
| 19> 		H   -1.580144   0.214729  -0.167789
| 20> 		H    0.499695   1.532561  -0.000451
| 21> 		H    2.048303  -1.300436  -0.130890
| 22> 		H    2.880964   0.442790  -0.040955
| 23> *
| 24>
| 25>                          ****END OF INPUT****

CARTESIAN COORDINATES (ANGSTROEM)
---------------------------------
  C     -0.624013   -0.461972   -0.061098
  O     -0.564006   -1.636755    0.031320
  C      0.589977    0.443937    0.073285
  C      1.884781   -0.119561   -0.025120
  H     -1.580144    0.214729   -0.167789
  H      0.499695    1.532561   -0.000451
  H      2.048303   -1.300436   -0.130890
  H      2.880964    0.442790   -0.040955

 Total Charge           Charge          ....    0
 Multiplicity           Mult            ....    1
 Number of Electrons    NEL             ....   30
 Basis Dimension        Dim             ....   76

ORBITAL ENERGIES
----------------

  NO   OCC          E(Eh)            E(eV)
   0   2.0000     -19.145485      -520.9751
   1   2.0000     -10.284705      -279.8611
   2   2.0000     -10.234607      -278.4978
   3   2.0000     -10.213487      -277.9231
   4   2.0000      -1.067946       -29.0603
   5   2.0000      -0.770142       -20.9566
   6   2.0000      -0.641937       -17.4680
   7   2.0000      -0.535917       -14.5830
   8   2.0000      -0.494481       -13.4555
   9   2.0000      -0.448687       -12.2094
  10   2.0000      -0.417792       -11.3687
  11   2.0000      -0.407726       -11.0948
  12   2.0000      -0.372499       -10.1362
  13   2.0000      -0.277270        -7.5449
  14   2.0000      -0.259151        -7.0518
  15   0.0000      -0.071346        -1.9414
  16   0.0000       0.048888         1.3303
  17   0.0000       0.066217         1.8018
  18   0.0000       0.073985         2.0132
  19   0.0000       0.113010         3.0751

MULLIKEN ATOMIC CHARGES
-----------------------
   0 C :    0.171075
   1 O :   -0.155288
   2 C :   -0.105146
   3 C :   -0.029576
   4 H :   -0.012837
   5 H :    0.005370
   6 H :    0.071017
   7 H :    0.055385
Sum of atomic charges:    0.0000000

LOEWDIN ATOMIC CHARGES
----------------------
   0 C :   -0.058063
   1 O :    0.032079
   2 C :   -0.091045
   3 C :    0.007900
   4 H :   -0.004970
   5 H :    0.026359
   6 H :    0.050073
   7 H :    0.037667

  Mayer bond orders larger than 0.100000
B(  0-C ,  1-O ) :   2.2305 B(  0-C ,  2-C ) :   1.0196 B(  0-C ,  4-H ) :   0.8942
B(  2-C ,  3-C ) :   1.9142 B(  2-C ,  5-H ) :   0.9444 B(  3-C ,  6-H ) :   0.9413
B(  3-C ,  7-H ) :   0.9508

-----------------------------------------------------------------------------
         ABSORPTION SPECTRUM VIA TRANSITION ELECTRIC DIPOLE MOMENTS
-----------------------------------------------------------------------------
State   Energy    Wavelength  fosc         T2        TX        TY        TZ
        (cm-1)      (nm)                 (au**2)    (au)      (au)      (au)
-----------------------------------------------------------------------------
   1   29066.0    344.0   0.000468874   0.00531  -0.07049  -0.01124   0.01468

FINAL SINGLE POINT ENERGY      -191.657255465751

DIPOLE MOMENT
-------------
                                X             Y             Z
Electronic contribution:     -2.06154      -1.82398       0.20949
Nuclear contribution   :      2.45439       2.62096      -0.31879
                        -----------------------------------------
Total Dipole Moment    :      0.39286       0.79698      -0.10931
                        -----------------------------------------
Magnitude (a.u.)       :      0.89524
Magnitude (Debye)      :      2.27552

Rotational constants in cm-1:     0.705007     0.204205     0.158878
Rotational constants in MHz : 21135.584531  6121.925403  4763.056011

                             ****ORCA TERMINATED NORMALLY****
TOTAL RUN TIME: 0 days 0 hours 3 minutes 20 seconds 972 msec
