                         Program Version 5.0.3 -  RELEASE  -
|  1> ! HF-3c
|  2> !TightSCF
|  3> %scf
|  4>  ConvForced true
|  5>  convergence tight
|  6>  MaxIter 500
|  7> end
|  8>
|  9> %tddft
| 10>  nroots 1
| 11> end
| 12>
| 13> # 	5949
| 14> * xyz 0 1
| 15> 		C   -1.131599  -0.305650   0.061795
| 16> 		O   -1.400969  -1.290943   0.726263
| 17> 		C    0.023871   0.499622   0.239668
| 18> 		C    1.268011   0.082345  -0.187911
| 19> 		H   -1.947952  -0.095048  -0.785401
| 20> 		H   -0.201369   1.579784   0.510625
| 21> 		H    1.239429  -1.153390  -0.524576
| 22> 		H    2.178841   0.701179  -0.132630
| 23> *
| 24>
| 25>                          ****END OF INPUT****

CARTESIAN COORDINATES (ANGSTROEM)
---------------------------------
  C     -1.131599   -0.305650    0.061795
  O     -1.400969   -1.290943    0.726263
  C      0.023871    0.499622    0.239668
  C      1.268011    0.082345   -0.187911
  H     -1.947952   -0.095048   -0.785401
  H     -0.201369    1.579784    0.510625
  H      1.239429   -1.153390   -0.524576
  H      2.178841    0.701179   -0.132630

 Total Charge           Charge          ....    0
 Multiplicity           Mult            ....    1
 Number of Electrons    NEL             ....   30
 Basis Dimension        Dim             ....   24

ORBITAL ENERGIES
----------------

  NO   OCC          E(Eh)            E(eV)
   0   2.0000     -20.352406      -553.8171
   1   2.0000     -11.286313      -307.1162
   2   2.0000     -11.182789      -304.2992
   3   2.0000     -11.180765      -304.2441
   4   2.0000      -1.390847       -37.8469
   5   2.0000      -1.063018       -28.9262
   6   2.0000      -0.871246       -23.7078
   7   2.0000      -0.725175       -19.7330
   8   2.0000      -0.674880       -18.3644
   9   2.0000      -0.618387       -16.8272
  10   2.0000      -0.584877       -15.9153
  11   2.0000      -0.515061       -14.0155
  12   2.0000      -0.482412       -13.1271
  13   2.0000      -0.404003       -10.9935
  14   2.0000      -0.379551       -10.3281
  15   0.0000       0.168510         4.5854
  16   0.0000       0.229234         6.2378
  17   0.0000       0.459030        12.4908
  18   0.0000       0.552756        15.0413
  19   0.0000       0.617755        16.8100

MULLIKEN ATOMIC CHARGES
-----------------------
   0 C :    0.156103
   1 O :   -0.351909
   2 C :   -0.181856
   3 C :   -0.202130
   4 H :    0.137359
   5 H :    0.146135
   6 H :    0.150172
   7 H :    0.146125
Sum of atomic charges:    0.0000000

LOEWDIN ATOMIC CHARGES
----------------------
   0 C :    0.136687
   1 O :   -0.261788
   2 C :   -0.142173
   3 C :   -0.123903
   4 H :    0.081745
   5 H :    0.099108
   6 H :    0.113604
   7 H :    0.096720

  Mayer bond orders larger than 0.100000
B(  0-C ,  1-O ) :   1.9179 B(  0-C ,  2-C ) :   1.0334 B(  0-C ,  4-H ) :   0.9101
B(  2-C ,  3-C ) :   1.9584 B(  2-C ,  5-H ) :   0.9449 B(  3-C ,  6-H ) :   0.9555
B(  3-C ,  7-H ) :   0.9626

-----------------------------------------------------------------------------
         ABSORPTION SPECTRUM VIA TRANSITION ELECTRIC DIPOLE MOMENTS
-----------------------------------------------------------------------------
State   Energy    Wavelength  fosc         T2        TX        TY        TZ
        (cm-1)      (nm)                 (au**2)    (au)      (au)      (au)
-----------------------------------------------------------------------------
   1   33388.3    299.5   0.000074343   0.00073  -0.02560  -0.00284   0.00836

Dispersion correction           -0.025038326
FINAL SINGLE POINT ENERGY      -189.286278466208

DIPOLE MOMENT
-------------
                                X             Y             Z
Electronic contribution:     -2.00892      -1.30486       1.05930
Nuclear contribution   :      2.46068       2.04456      -1.67297
                        -----------------------------------------
Total Dipole Moment    :      0.45176       0.73970      -0.61367
                        -----------------------------------------
Magnitude (a.u.)       :      1.06199
Magnitude (Debye)      :      2.69938

Rotational constants in cm-1:     0.865115     0.181006     0.161814
Rotational constants in MHz : 25935.489531  5426.414694  4851.047584

                             ****ORCA TERMINATED NORMALLY****
TOTAL RUN TIME: 0 days 0 hours 0 minutes 10 seconds 661 msec
