                         Program Version 5.0.3 -  RELEASE  -
|  1> ! B3LYP cc-pVDZ
|  2> !TightSCF
|  3> %scf
|  4>  ConvForced true
|  5>  convergence tight
|  6>  MaxIter 500
|  7> end
|  8>
|  9> %tddft
| 10>  nroots 1
| 11> end
| 12>
| 13> # 	27356
| 14> * xyz 0 1
| 15> 		C   -0.611993  -0.477322   0.000545
| 16> 		O   -0.626262  -1.636726  -0.016393
| 17> 		C    0.693536   0.367969  -0.002428
| 18> 		C    1.868094  -0.058822  -0.005943
| 19> 		H   -1.517229   0.190243   0.233677
| 20> 		H    0.568043   1.446612  -0.107212
| 21> 		H    2.013856  -1.064045   0.246309
| 22> 		H    2.622757   0.656882  -0.032907
| 23> *
| 24>
| 25>                          ****END OF INPUT****

CARTESIAN COORDINATES (ANGSTROEM)
---------------------------------
  C     -0.611993   -0.477322    0.000545
  O     -0.626262   -1.636726   -0.016393
  C      0.693536    0.367969   -0.002428
  C      1.868094   -0.058822   -0.005943
  H     -1.517229    0.190243    0.233677
  H      0.568043    1.446612   -0.107212
  H      2.013856   -1.064045    0.246309
  H      2.622757    0.656882   -0.032907

 Total Charge           Charge          ....    0
 Multiplicity           Mult            ....    1
 Number of Electrons    NEL             ....   30
 Basis Dimension        Dim             ....   76

ORBITAL ENERGIES
----------------

  NO   OCC          E(Eh)            E(eV)
   0   2.0000     -19.149507      -521.0846
   1   2.0000     -10.281997      -279.7874
   2   2.0000     -10.188234      -277.2359
   3   2.0000     -10.183923      -277.1186
   4   2.0000      -1.082959       -29.4688
   5   2.0000      -0.807807       -21.9816
   6   2.0000      -0.644875       -17.5480
   7   2.0000      -0.538151       -14.6438
   8   2.0000      -0.516122       -14.0444
   9   2.0000      -0.457816       -12.4578
  10   2.0000      -0.438087       -11.9210
  11   2.0000      -0.416274       -11.3274
  12   2.0000      -0.378662       -10.3039
  13   2.0000      -0.300487        -8.1767
  14   2.0000      -0.256898        -6.9906
  15   0.0000      -0.053697        -1.4612
  16   0.0000       0.066861         1.8194
  17   0.0000       0.073053         1.9879
  18   0.0000       0.097259         2.6465
  19   0.0000       0.126486         3.4419

MULLIKEN ATOMIC CHARGES
-----------------------
   0 C :    0.163786
   1 O :   -0.131565
   2 C :   -0.167809
   3 C :    0.171767
   4 H :   -0.019266
   5 H :   -0.024207
   6 H :    0.001399
   7 H :    0.005894
Sum of atomic charges:    0.0000000

LOEWDIN ATOMIC CHARGES
----------------------
   0 C :   -0.051994
   1 O :    0.057107
   2 C :   -0.083272
   3 C :    0.009844
   4 H :   -0.009225
   5 H :    0.024629
   6 H :    0.024641
   7 H :    0.028270

  Mayer bond orders larger than 0.100000
B(  0-C ,  1-O ) :   2.2776 B(  0-C ,  2-C ) :   0.9838 B(  0-C ,  4-H ) :   0.8940
B(  2-C ,  3-C ) :   2.0556 B(  2-C ,  5-H ) :   0.9322 B(  3-C ,  6-H ) :   0.9219
B(  3-C ,  7-H ) :   0.9189

-----------------------------------------------------------------------------
         ABSORPTION SPECTRUM VIA TRANSITION ELECTRIC DIPOLE MOMENTS
-----------------------------------------------------------------------------
State   Energy    Wavelength  fosc         T2        TX        TY        TZ
        (cm-1)      (nm)                 (au**2)    (au)      (au)      (au)
-----------------------------------------------------------------------------
   1   31399.4    318.5   0.000496834   0.00521   0.05998  -0.01398  -0.03763

FINAL SINGLE POINT ENERGY      -191.638895778080

DIPOLE MOMENT
-------------
                                X             Y             Z
Electronic contribution:     -1.99948      -2.16878      -0.26625
Nuclear contribution   :      2.30011       2.94160       0.31953
                        -----------------------------------------
Total Dipole Moment    :      0.30063       0.77282       0.05328
                        -----------------------------------------
Magnitude (a.u.)       :      0.83095
Magnitude (Debye)      :      2.11210

Rotational constants in cm-1:     0.873490     0.196264     0.160664
Rotational constants in MHz : 26186.558336  5883.846563  4816.597781

                             ****ORCA TERMINATED NORMALLY****
TOTAL RUN TIME: 0 days 0 hours 3 minutes 27 seconds 983 msec
