                         Program Version 5.0.3 -  RELEASE  -
|  1> ! B3LYP cc-pVDZ
|  2> !TightSCF
|  3> %scf
|  4>  ConvForced true
|  5>  convergence tight
|  6>  MaxIter 500
|  7> end
|  8>
|  9> %tddft
| 10>  nroots 1
| 11> end
| 12>
| 13> # 	27199
| 14> * xyz 0 1
| 15> 		C   -0.591911  -0.431120  -0.014635
| 16> 		O   -0.528096  -1.589265   0.010846
| 17> 		C    0.606450   0.435920  -0.043240
| 18> 		C    1.821686  -0.183828   0.032778
| 19> 		H   -1.519690   0.076126   0.121232
| 20> 		H    0.493909   1.407737   0.166639
| 21> 		H    1.692638  -1.251013  -0.174024
| 22> 		H    2.759011   0.352594   0.022282
| 23> *
| 24>
| 25>                          ****END OF INPUT****

CARTESIAN COORDINATES (ANGSTROEM)
---------------------------------
  C     -0.591911   -0.431120   -0.014635
  O     -0.528096   -1.589265    0.010846
  C      0.606450    0.435920   -0.043240
  C      1.821686   -0.183828    0.032778
  H     -1.519690    0.076126    0.121232
  H      0.493909    1.407737    0.166639
  H      1.692638   -1.251013   -0.174024
  H      2.759011    0.352594    0.022282

 Total Charge           Charge          ....    0
 Multiplicity           Mult            ....    1
 Number of Electrons    NEL             ....   30
 Basis Dimension        Dim             ....   76

ORBITAL ENERGIES
----------------

  NO   OCC          E(Eh)            E(eV)
   0   2.0000     -19.135327      -520.6987
   1   2.0000     -10.264628      -279.3147
   2   2.0000     -10.208572      -277.7894
   3   2.0000     -10.190252      -277.2908
   4   2.0000      -1.076056       -29.2810
   5   2.0000      -0.790166       -21.5015
   6   2.0000      -0.654956       -17.8223
   7   2.0000      -0.547827       -14.9071
   8   2.0000      -0.522129       -14.2079
   9   2.0000      -0.448674       -12.2090
  10   2.0000      -0.426014       -11.5924
  11   2.0000      -0.414141       -11.2694
  12   2.0000      -0.382956       -10.4208
  13   2.0000      -0.282238        -7.6801
  14   2.0000      -0.255401        -6.9498
  15   0.0000      -0.065232        -1.7751
  16   0.0000       0.061438         1.6718
  17   0.0000       0.082552         2.2464
  18   0.0000       0.099390         2.7045
  19   0.0000       0.137964         3.7542

MULLIKEN ATOMIC CHARGES
-----------------------
   0 C :    0.195638
   1 O :   -0.156247
   2 C :   -0.090972
   3 C :    0.071922
   4 H :   -0.041379
   5 H :   -0.049383
   6 H :    0.039283
   7 H :    0.031138
Sum of atomic charges:    0.0000000

LOEWDIN ATOMIC CHARGES
----------------------
   0 C :   -0.060383
   1 O :    0.046219
   2 C :   -0.064589
   3 C :    0.035867
   4 H :   -0.014177
   5 H :   -0.002416
   6 H :    0.032152
   7 H :    0.027328

  Mayer bond orders larger than 0.100000
B(  0-C ,  1-O ) :   2.2258 B(  0-C ,  2-C ) :   1.0507 B(  0-C ,  4-H ) :   0.9251
B(  2-C ,  3-C ) :   1.9602 B(  2-C ,  5-H ) :   0.9546 B(  3-C ,  6-H ) :   0.9210
B(  3-C ,  7-H ) :   0.9487

-----------------------------------------------------------------------------
         ABSORPTION SPECTRUM VIA TRANSITION ELECTRIC DIPOLE MOMENTS
-----------------------------------------------------------------------------
State   Energy    Wavelength  fosc         T2        TX        TY        TZ
        (cm-1)      (nm)                 (au**2)    (au)      (au)      (au)
-----------------------------------------------------------------------------
   1   29347.5    340.7   0.000653384   0.00733  -0.07894  -0.01234  -0.03075

FINAL SINGLE POINT ENERGY      -191.654058617008

DIPOLE MOMENT
-------------
                                X             Y             Z
Electronic contribution:     -1.78686      -1.52602      -0.11415
Nuclear contribution   :      2.05988       2.33926       0.12725
                        -----------------------------------------
Total Dipole Moment    :      0.27302       0.81324       0.01310
                        -----------------------------------------
Magnitude (a.u.)       :      0.85794
Magnitude (Debye)      :      2.18072

Rotational constants in cm-1:     0.759752     0.224842     0.173903
Rotational constants in MHz : 22776.785042  6740.583860  5213.481068

                             ****ORCA TERMINATED NORMALLY****
TOTAL RUN TIME: 0 days 0 hours 3 minutes 23 seconds 40 msec
