                         Program Version 5.0.3 -  RELEASE  -
|  1> ! B3LYP cc-pVDZ
|  2> !TightSCF
|  3> %scf
|  4>  ConvForced true
|  5>  convergence tight
|  6>  MaxIter 500
|  7> end
|  8>
|  9> %tddft
| 10>  nroots 1
| 11> end
| 12>
| 13> # 	13409
| 14> * xyz 0 1
| 15> 		C   -1.209892  -0.361153  -0.071048
| 16> 		O   -1.526398  -1.222187  -0.813900
| 17> 		C   -0.002099   0.447256  -0.159701
| 18> 		C    1.222756   0.054491   0.214642
| 19> 		H   -1.943578  -0.051495   0.798847
| 20> 		H   -0.010335   1.451985  -0.627725
| 21> 		H    1.285799  -0.981096   0.617920
| 22> 		H    2.146510   0.593630   0.057950
| 23> *
| 24>
| 25>                          ****END OF INPUT****

CARTESIAN COORDINATES (ANGSTROEM)
---------------------------------
  C     -1.209892   -0.361153   -0.071048
  O     -1.526398   -1.222187   -0.813900
  C     -0.002099    0.447256   -0.159701
  C      1.222756    0.054491    0.214642
  H     -1.943578   -0.051495    0.798847
  H     -0.010335    1.451985   -0.627725
  H      1.285799   -0.981096    0.617920
  H      2.146510    0.593630    0.057950

 Total Charge           Charge          ....    0
 Multiplicity           Mult            ....    1
 Number of Electrons    NEL             ....   30
 Basis Dimension        Dim             ....   76

ORBITAL ENERGIES
----------------

  NO   OCC          E(Eh)            E(eV)
   0   2.0000     -19.149328      -521.0797
   1   2.0000     -10.286198      -279.9017
   2   2.0000     -10.207056      -277.7481
   3   2.0000     -10.206252      -277.7262
   4   2.0000      -1.072667       -29.1887
   5   2.0000      -0.797268       -21.6948
   6   2.0000      -0.652934       -17.7672
   7   2.0000      -0.546430       -14.8691
   8   2.0000      -0.500808       -13.6277
   9   2.0000      -0.462064       -12.5734
  10   2.0000      -0.449859       -12.2413
  11   2.0000      -0.398735       -10.8501
  12   2.0000      -0.371312       -10.1039
  13   2.0000      -0.285723        -7.7749
  14   2.0000      -0.259349        -7.0573
  15   0.0000      -0.034159        -0.9295
  16   0.0000      -0.008455        -0.2301
  17   0.0000       0.081844         2.2271
  18   0.0000       0.092570         2.5190
  19   0.0000       0.098658         2.6846

MULLIKEN ATOMIC CHARGES
-----------------------
   0 C :    0.153862
   1 O :   -0.145658
   2 C :   -0.092412
   3 C :    0.023260
   4 H :   -0.016133
   5 H :    0.023739
   6 H :    0.023529
   7 H :    0.029813
Sum of atomic charges:   -0.0000000

LOEWDIN ATOMIC CHARGES
----------------------
   0 C :   -0.049984
   1 O :    0.044234
   2 C :   -0.067743
   3 C :   -0.023245
   4 H :   -0.006363
   5 H :    0.044699
   6 H :    0.029883
   7 H :    0.028519

  Mayer bond orders larger than 0.100000
B(  0-C ,  1-O ) :   2.2698 B(  0-C ,  2-C ) :   0.9710 B(  0-C ,  4-H ) :   0.8967
B(  2-C ,  3-C ) :   2.0439 B(  2-C ,  5-H ) :   0.9310 B(  3-C ,  6-H ) :   0.9454
B(  3-C ,  7-H ) :   0.9453

-----------------------------------------------------------------------------
         ABSORPTION SPECTRUM VIA TRANSITION ELECTRIC DIPOLE MOMENTS
-----------------------------------------------------------------------------
State   Energy    Wavelength  fosc         T2        TX        TY        TZ
        (cm-1)      (nm)                 (au**2)    (au)      (au)      (au)
-----------------------------------------------------------------------------
   1   34410.3    290.6   0.000606002   0.00580   0.07517  -0.01210   0.00113

FINAL SINGLE POINT ENERGY      -191.634879404458

DIPOLE MOMENT
-------------
                                X             Y             Z
Electronic contribution:     -2.42998      -1.41910      -1.23077
Nuclear contribution   :      2.89667       2.06423       1.61327
                        -----------------------------------------
Total Dipole Moment    :      0.46669       0.64513       0.38250
                        -----------------------------------------
Magnitude (a.u.)       :      0.88335
Magnitude (Debye)      :      2.24529

Rotational constants in cm-1:     0.974091     0.172854     0.159747
Rotational constants in MHz : 29202.527644  5182.032810  4789.090234

                             ****ORCA TERMINATED NORMALLY****
TOTAL RUN TIME: 0 days 0 hours 3 minutes 20 seconds 427 msec
