                         Program Version 5.0.3 -  RELEASE  -
|  1> ! B3LYP cc-pVDZ
|  2> !TightSCF
|  3> %scf
|  4>  ConvForced true
|  5>  convergence tight
|  6>  MaxIter 500
|  7> end
|  8>
|  9> %tddft
| 10>  nroots 1
| 11> end
| 12>
| 13> # 	30336
| 14> * xyz 0 1
| 15> 		C   -0.608221  -0.477599   0.024984
| 16> 		O   -0.610864  -1.692482  -0.018521
| 17> 		C    0.655978   0.469350  -0.009410
| 18> 		C    1.911550  -0.095840   0.016396
| 19> 		H   -1.778677   0.269800   0.106063
| 20> 		H    0.501296   1.620433  -0.191834
| 21> 		H    2.061949  -1.148633  -0.006850
| 22> 		H    2.561684   0.634976  -0.004678
| 23> *
| 24>
| 25>                          ****END OF INPUT****

CARTESIAN COORDINATES (ANGSTROEM)
---------------------------------
  C     -0.608221   -0.477599    0.024984
  O     -0.610864   -1.692482   -0.018521
  C      0.655978    0.469350   -0.009410
  C      1.911550   -0.095840    0.016396
  H     -1.778677    0.269800    0.106063
  H      0.501296    1.620433   -0.191834
  H      2.061949   -1.148633   -0.006850
  H      2.561684    0.634976   -0.004678

 Total Charge           Charge          ....    0
 Multiplicity           Mult            ....    1
 Number of Electrons    NEL             ....   30
 Basis Dimension        Dim             ....   76

ORBITAL ENERGIES
----------------

  NO   OCC          E(Eh)            E(eV)
   0   2.0000     -19.159193      -521.3481
   1   2.0000     -10.305622      -280.4302
   2   2.0000     -10.228802      -278.3399
   3   2.0000     -10.209316      -277.8096
   4   2.0000      -1.054952       -28.7067
   5   2.0000      -0.790591       -21.5131
   6   2.0000      -0.641761       -17.4632
   7   2.0000      -0.530333       -14.4311
   8   2.0000      -0.498621       -13.5682
   9   2.0000      -0.449914       -12.2428
  10   2.0000      -0.410744       -11.1769
  11   2.0000      -0.404931       -11.0187
  12   2.0000      -0.396115       -10.7788
  13   2.0000      -0.289164        -7.8686
  14   2.0000      -0.257962        -7.0195
  15   0.0000      -0.072903        -1.9838
  16   0.0000       0.036179         0.9845
  17   0.0000       0.043623         1.1870
  18   0.0000       0.072210         1.9649
  19   0.0000       0.103311         2.8112

MULLIKEN ATOMIC CHARGES
-----------------------
   0 C :    0.132432
   1 O :   -0.168270
   2 C :   -0.183852
   3 C :    0.180168
   4 H :   -0.021823
   5 H :    0.037323
   6 H :    0.034380
   7 H :   -0.010358
Sum of atomic charges:    0.0000000

LOEWDIN ATOMIC CHARGES
----------------------
   0 C :   -0.032024
   1 O :    0.001429
   2 C :   -0.077717
   3 C :    0.044772
   4 H :   -0.017681
   5 H :    0.047059
   6 H :    0.031906
   7 H :    0.002255

  Mayer bond orders larger than 0.100000
B(  0-C ,  1-O ) :   2.2014 B(  0-C ,  2-C ) :   0.9758 B(  0-C ,  4-H ) :   0.8402
B(  2-C ,  3-C ) :   1.9557 B(  2-C ,  5-H ) :   0.9404 B(  3-C ,  6-H ) :   0.9468
B(  3-C ,  7-H ) :   0.9328

-----------------------------------------------------------------------------
         ABSORPTION SPECTRUM VIA TRANSITION ELECTRIC DIPOLE MOMENTS
-----------------------------------------------------------------------------
State   Energy    Wavelength  fosc         T2        TX        TY        TZ
        (cm-1)      (nm)                 (au**2)    (au)      (au)      (au)
-----------------------------------------------------------------------------
   1   28502.5    350.8   0.000258657   0.00299   0.00600   0.01189  -0.05301

FINAL SINGLE POINT ENERGY      -191.629593028684

DIPOLE MOMENT
-------------
                                X             Y             Z
Electronic contribution:     -1.39914      -2.27794       0.05602
Nuclear contribution   :      1.97900       3.07685      -0.09086
                        -----------------------------------------
Total Dipole Moment    :      0.57986       0.79891      -0.03484
                        -----------------------------------------
Magnitude (a.u.)       :      0.98778
Magnitude (Debye)      :      2.51074

Rotational constants in cm-1:     0.710513     0.191961     0.151308
Rotational constants in MHz : 21300.647964  5754.831968  4536.101076

                             ****ORCA TERMINATED NORMALLY****
TOTAL RUN TIME: 0 days 0 hours 3 minutes 24 seconds 171 msec
