                         Program Version 5.0.3 -  RELEASE  -
|  1> ! HF-3c
|  2> !TightSCF
|  3> %scf
|  4>  ConvForced true
|  5>  convergence tight
|  6>  MaxIter 500
|  7> end
|  8>
|  9> %tddft
| 10>  nroots 1
| 11> end
| 12>
| 13> # 	15364
| 14> * xyz 0 1
| 15> 		C   -1.263076  -0.334456   0.005816
| 16> 		O   -1.315728  -1.519743  -0.397516
| 17> 		C    0.030495   0.483356  -0.176563
| 18> 		C    1.218548   0.034405   0.102678
| 19> 		H   -2.009436   0.059130   0.590997
| 20> 		H   -0.064496   1.627365  -0.152107
| 21> 		H    1.391234  -1.098772   0.085977
| 22> 		H    2.001932   0.769632  -0.007456
| 23> *
| 24>
| 25>                          ****END OF INPUT****

CARTESIAN COORDINATES (ANGSTROEM)
---------------------------------
  C     -1.263076   -0.334456    0.005816
  O     -1.315728   -1.519743   -0.397516
  C      0.030495    0.483356   -0.176563
  C      1.218548    0.034405    0.102678
  H     -2.009436    0.059130    0.590997
  H     -0.064496    1.627365   -0.152107
  H      1.391234   -1.098772    0.085977
  H      2.001932    0.769632   -0.007456

 Total Charge           Charge          ....    0
 Multiplicity           Mult            ....    1
 Number of Electrons    NEL             ....   30
 Basis Dimension        Dim             ....   24

ORBITAL ENERGIES
----------------

  NO   OCC          E(Eh)            E(eV)
   0   2.0000     -20.363892      -554.1297
   1   2.0000     -11.293067      -307.3000
   2   2.0000     -11.186023      -304.3872
   3   2.0000     -11.181051      -304.2519
   4   2.0000      -1.376224       -37.4489
   5   2.0000      -1.079260       -29.3681
   6   2.0000      -0.889711       -24.2103
   7   2.0000      -0.748966       -20.3804
   8   2.0000      -0.691757       -18.8237
   9   2.0000      -0.606034       -16.4910
  10   2.0000      -0.595387       -16.2013
  11   2.0000      -0.524239       -14.2653
  12   2.0000      -0.501875       -13.6567
  13   2.0000      -0.417929       -11.3724
  14   2.0000      -0.403335       -10.9753
  15   0.0000       0.144292         3.9264
  16   0.0000       0.264516         7.1979
  17   0.0000       0.536684        14.6039
  18   0.0000       0.573309        15.6005
  19   0.0000       0.609377        16.5820

MULLIKEN ATOMIC CHARGES
-----------------------
   0 C :    0.142981
   1 O :   -0.334792
   2 C :   -0.155583
   3 C :   -0.241139
   4 H :    0.145913
   5 H :    0.137746
   6 H :    0.158879
   7 H :    0.145993
Sum of atomic charges:    0.0000000

LOEWDIN ATOMIC CHARGES
----------------------
   0 C :    0.142381
   1 O :   -0.251831
   2 C :   -0.115478
   3 C :   -0.148811
   4 H :    0.076624
   5 H :    0.091471
   6 H :    0.110131
   7 H :    0.095514

  Mayer bond orders larger than 0.100000
B(  0-C ,  1-O ) :   1.9285 B(  0-C ,  2-C ) :   0.9968 B(  0-C ,  4-H ) :   0.9359
B(  2-C ,  3-C ) :   1.9785 B(  2-C ,  5-H ) :   0.9529 B(  3-C ,  6-H ) :   0.9544
B(  3-C ,  7-H ) :   0.9602

-----------------------------------------------------------------------------
         ABSORPTION SPECTRUM VIA TRANSITION ELECTRIC DIPOLE MOMENTS
-----------------------------------------------------------------------------
State   Energy    Wavelength  fosc         T2        TX        TY        TZ
        (cm-1)      (nm)                 (au**2)    (au)      (au)      (au)
-----------------------------------------------------------------------------
   1   30944.5    323.2   0.000018056   0.00019  -0.01134   0.00654   0.00456

Dispersion correction           -0.025279655
FINAL SINGLE POINT ENERGY      -189.326566498819

DIPOLE MOMENT
-------------
                                X             Y             Z
Electronic contribution:     -2.28230      -1.74831      -0.57469
Nuclear contribution   :      2.55476       2.64499       0.92682
                        -----------------------------------------
Total Dipole Moment    :      0.27246       0.89668       0.35213
                        -----------------------------------------
Magnitude (a.u.)       :      1.00113
Magnitude (Debye)      :      2.54467

Rotational constants in cm-1:     0.804522     0.189557     0.158080
Rotational constants in MHz : 24118.952452  5682.777604  4739.114911

                             ****ORCA TERMINATED NORMALLY****
TOTAL RUN TIME: 0 days 0 hours 0 minutes 13 seconds 62 msec
