                         Program Version 5.0.3 -  RELEASE  -
|  1> ! B3LYP cc-pVDZ
|  2> !TightSCF
|  3> %scf
|  4>  ConvForced true
|  5>  convergence tight
|  6>  MaxIter 500
|  7> end
|  8>
|  9> %tddft
| 10>  nroots 1
| 11> end
| 12>
| 13> # 	30730
| 14> * xyz 0 1
| 15> 		C   -0.624543  -0.445510  -0.067711
| 16> 		O   -0.582863  -1.649479   0.032549
| 17> 		C    0.649832   0.420621   0.028416
| 18> 		C    1.885845  -0.097026   0.005960
| 19> 		H   -1.725424  -0.000379   0.035080
| 20> 		H    0.551647   1.575386   0.087414
| 21> 		H    1.915806  -1.198856  -0.219969
| 22> 		H    2.708665   0.488837  -0.015578
| 23> *
| 24>
| 25>                          ****END OF INPUT****

CARTESIAN COORDINATES (ANGSTROEM)
---------------------------------
  C     -0.624543   -0.445510   -0.067711
  O     -0.582863   -1.649479    0.032549
  C      0.649832    0.420621    0.028416
  C      1.885845   -0.097026    0.005960
  H     -1.725424   -0.000379    0.035080
  H      0.551647    1.575386    0.087414
  H      1.915806   -1.198856   -0.219969
  H      2.708665    0.488837   -0.015578

 Total Charge           Charge          ....    0
 Multiplicity           Mult            ....    1
 Number of Electrons    NEL             ....   30
 Basis Dimension        Dim             ....   76

ORBITAL ENERGIES
----------------

  NO   OCC          E(Eh)            E(eV)
   0   2.0000     -19.143163      -520.9120
   1   2.0000     -10.288154      -279.9549
   2   2.0000     -10.216375      -278.0017
   3   2.0000     -10.206279      -277.7270
   4   2.0000      -1.051832       -28.6218
   5   2.0000      -0.788185       -21.4476
   6   2.0000      -0.642315       -17.4783
   7   2.0000      -0.536124       -14.5887
   8   2.0000      -0.504076       -13.7166
   9   2.0000      -0.441764       -12.0210
  10   2.0000      -0.434255       -11.8167
  11   2.0000      -0.400006       -10.8847
  12   2.0000      -0.372127       -10.1261
  13   2.0000      -0.288159        -7.8412
  14   2.0000      -0.256732        -6.9860
  15   0.0000      -0.068399        -1.8612
  16   0.0000       0.047527         1.2933
  17   0.0000       0.065008         1.7689
  18   0.0000       0.091918         2.5012
  19   0.0000       0.106088         2.8868

MULLIKEN ATOMIC CHARGES
-----------------------
   0 C :    0.152087
   1 O :   -0.180800
   2 C :   -0.157572
   3 C :    0.120169
   4 H :    0.005591
   5 H :    0.011249
   6 H :    0.043097
   7 H :    0.006178
Sum of atomic charges:   -0.0000000

LOEWDIN ATOMIC CHARGES
----------------------
   0 C :   -0.035381
   1 O :   -0.001639
   2 C :   -0.081846
   3 C :    0.023100
   4 H :    0.007192
   5 H :    0.036063
   6 H :    0.043104
   7 H :    0.009409

  Mayer bond orders larger than 0.100000
B(  0-C ,  1-O ) :   2.1797 B(  0-C ,  2-C ) :   0.9828 B(  0-C ,  4-H ) :   0.9100
B(  2-C ,  3-C ) :   1.9898 B(  2-C ,  5-H ) :   0.9392 B(  3-C ,  6-H ) :   0.9288
B(  3-C ,  7-H ) :   0.9381

-----------------------------------------------------------------------------
         ABSORPTION SPECTRUM VIA TRANSITION ELECTRIC DIPOLE MOMENTS
-----------------------------------------------------------------------------
State   Energy    Wavelength  fosc         T2        TX        TY        TZ
        (cm-1)      (nm)                 (au**2)    (au)      (au)      (au)
-----------------------------------------------------------------------------
   1   28348.1    352.8   0.000234951   0.00273  -0.03547  -0.00799   0.03750

FINAL SINGLE POINT ENERGY      -191.661133553832

DIPOLE MOMENT
-------------
                                X             Y             Z
Electronic contribution:     -1.74371      -1.76284       0.02119
Nuclear contribution   :      2.07910       2.60033      -0.10601
                        -----------------------------------------
Total Dipole Moment    :      0.33540       0.83749      -0.08483
                        -----------------------------------------
Magnitude (a.u.)       :      0.90613
Magnitude (Debye)      :      2.30321

Rotational constants in cm-1:     0.760272     0.199369     0.158365
Rotational constants in MHz : 22792.392741  5976.940951  4747.664293

                             ****ORCA TERMINATED NORMALLY****
TOTAL RUN TIME: 0 days 0 hours 3 minutes 4 seconds 454 msec
