                         Program Version 5.0.3 -  RELEASE  -
|  1> ! B3LYP cc-pVDZ
|  2> !TightSCF
|  3> %scf
|  4>  ConvForced true
|  5>  convergence tight
|  6>  MaxIter 500
|  7> end
|  8>
|  9> %tddft
| 10>  nroots 1
| 11> end
| 12>
| 13> # 	20062
| 14> * xyz 0 1
| 15> 		C   -0.613733  -0.437942  -0.010912
| 16> 		O   -0.543317  -1.620063   0.016538
| 17> 		C    0.619357   0.427761  -0.020359
| 18> 		C    1.850351  -0.132831   0.001028
| 19> 		H   -1.534824   0.061831  -0.039533
| 20> 		H    0.539686   1.514287   0.166458
| 21> 		H    1.636640  -1.249270  -0.148034
| 22> 		H    2.802384   0.304597   0.136421
| 23> *
| 24>
| 25>                          ****END OF INPUT****

CARTESIAN COORDINATES (ANGSTROEM)
---------------------------------
  C     -0.613733   -0.437942   -0.010912
  O     -0.543317   -1.620063    0.016538
  C      0.619357    0.427761   -0.020359
  C      1.850351   -0.132831    0.001028
  H     -1.534824    0.061831   -0.039533
  H      0.539686    1.514287    0.166458
  H      1.636640   -1.249270   -0.148034
  H      2.802384    0.304597    0.136421

 Total Charge           Charge          ....    0
 Multiplicity           Mult            ....    1
 Number of Electrons    NEL             ....   30
 Basis Dimension        Dim             ....   76

ORBITAL ENERGIES
----------------

  NO   OCC          E(Eh)            E(eV)
   0   2.0000     -19.141316      -520.8617
   1   2.0000     -10.272759      -279.5360
   2   2.0000     -10.208488      -277.7871
   3   2.0000     -10.201279      -277.5909
   4   2.0000      -1.065797       -29.0018
   5   2.0000      -0.785294       -21.3689
   6   2.0000      -0.653879       -17.7930
   7   2.0000      -0.548617       -14.9286
   8   2.0000      -0.509762       -13.8713
   9   2.0000      -0.445740       -12.1292
  10   2.0000      -0.440003       -11.9731
  11   2.0000      -0.408080       -11.1044
  12   2.0000      -0.357640        -9.7319
  13   2.0000      -0.282535        -7.6882
  14   2.0000      -0.261948        -7.1280
  15   0.0000      -0.065484        -1.7819
  16   0.0000       0.058769         1.5992
  17   0.0000       0.078647         2.1401
  18   0.0000       0.096996         2.6394
  19   0.0000       0.125700         3.4205

MULLIKEN ATOMIC CHARGES
-----------------------
   0 C :    0.225328
   1 O :   -0.174572
   2 C :   -0.160263
   3 C :    0.078416
   4 H :   -0.027173
   5 H :   -0.011916
   6 H :    0.046685
   7 H :    0.023495
Sum of atomic charges:   -0.0000000

LOEWDIN ATOMIC CHARGES
----------------------
   0 C :   -0.034397
   1 O :    0.026263
   2 C :   -0.087280
   3 C :    0.021282
   4 H :   -0.011333
   5 H :    0.021260
   6 H :    0.044271
   7 H :    0.019932

  Mayer bond orders larger than 0.100000
B(  0-C ,  1-O ) :   2.1916 B(  0-C ,  2-C ) :   1.0287 B(  0-C ,  4-H ) :   0.9319
B(  2-C ,  3-C ) :   1.9609 B(  2-C ,  5-H ) :   0.9502 B(  3-C ,  6-H ) :   0.9097
B(  3-C ,  7-H ) :   0.9510

-----------------------------------------------------------------------------
         ABSORPTION SPECTRUM VIA TRANSITION ELECTRIC DIPOLE MOMENTS
-----------------------------------------------------------------------------
State   Energy    Wavelength  fosc         T2        TX        TY        TZ
        (cm-1)      (nm)                 (au**2)    (au)      (au)      (au)
-----------------------------------------------------------------------------
   1   30150.1    331.7   0.000378938   0.00414  -0.05841  -0.01217  -0.02404

FINAL SINGLE POINT ENERGY      -191.656816853333

DIPOLE MOMENT
-------------
                                X             Y             Z
Electronic contribution:     -1.84000      -1.55463      -0.07626
Nuclear contribution   :      2.07577       2.38289       0.10725
                        -----------------------------------------
Total Dipole Moment    :      0.23577       0.82826       0.03098
                        -----------------------------------------
Magnitude (a.u.)       :      0.86172
Magnitude (Debye)      :      2.19031

Rotational constants in cm-1:     0.760757     0.214066     0.167327
Rotational constants in MHz : 22806.929678  6417.532540  5016.327988

                             ****ORCA TERMINATED NORMALLY****
TOTAL RUN TIME: 0 days 0 hours 3 minutes 6 seconds 647 msec
