                         Program Version 5.0.3 -  RELEASE  -
|  1> ! B3LYP cc-pVDZ
|  2> !TightSCF
|  3> %scf
|  4>  ConvForced true
|  5>  convergence tight
|  6>  MaxIter 500
|  7> end
|  8>
|  9> %tddft
| 10>  nroots 1
| 11> end
| 12>
| 13> # 	6616
| 14> * xyz 0 1
| 15> 		C   -1.150900  -0.365807   0.015042
| 16> 		O   -2.106274  -0.533481   0.802360
| 17> 		C    0.054714   0.378951   0.383993
| 18> 		C    1.193786   0.116425  -0.188699
| 19> 		H   -1.211336  -0.931918  -1.090892
| 20> 		H    0.096684   1.111450   1.236040
| 21> 		H    1.225707  -0.445139  -1.034541
| 22> 		H    2.017659   0.681485  -0.070410
| 23> *
| 24>
| 25>                          ****END OF INPUT****

CARTESIAN COORDINATES (ANGSTROEM)
---------------------------------
  C     -1.150900   -0.365807    0.015042
  O     -2.106274   -0.533481    0.802360
  C      0.054714    0.378951    0.383993
  C      1.193786    0.116425   -0.188699
  H     -1.211336   -0.931918   -1.090892
  H      0.096684    1.111450    1.236040
  H      1.225707   -0.445139   -1.034541
  H      2.017659    0.681485   -0.070410

 Total Charge           Charge          ....    0
 Multiplicity           Mult            ....    1
 Number of Electrons    NEL             ....   30
 Basis Dimension        Dim             ....   76

ORBITAL ENERGIES
----------------

  NO   OCC          E(Eh)            E(eV)
   0   2.0000     -19.141549      -520.8680
   1   2.0000     -10.289971      -280.0043
   2   2.0000     -10.212389      -277.8932
   3   2.0000     -10.197647      -277.4921
   4   2.0000      -1.027405       -27.9571
   5   2.0000      -0.818023       -22.2595
   6   2.0000      -0.654846       -17.8193
   7   2.0000      -0.565280       -15.3821
   8   2.0000      -0.483998       -13.1703
   9   2.0000      -0.475109       -12.9284
  10   2.0000      -0.416465       -11.3326
  11   2.0000      -0.394306       -10.7296
  12   2.0000      -0.381781       -10.3888
  13   2.0000      -0.299397        -8.1470
  14   2.0000      -0.256518        -6.9802
  15   0.0000      -0.069006        -1.8777
  16   0.0000       0.038085         1.0363
  17   0.0000       0.062925         1.7123
  18   0.0000       0.082548         2.2463
  19   0.0000       0.117149         3.1878

MULLIKEN ATOMIC CHARGES
-----------------------
   0 C :    0.137657
   1 O :   -0.214981
   2 C :   -0.084586
   3 C :    0.147797
   4 H :    0.006173
   5 H :    0.017331
   6 H :   -0.009221
   7 H :   -0.000169
Sum of atomic charges:   -0.0000000

LOEWDIN ATOMIC CHARGES
----------------------
   0 C :   -0.021043
   1 O :   -0.034791
   2 C :   -0.052425
   3 C :    0.024607
   4 H :    0.010482
   5 H :    0.046816
   6 H :    0.011936
   7 H :    0.014419

  Mayer bond orders larger than 0.100000
B(  0-C ,  1-O ) :   2.1203 B(  0-C ,  2-C ) :   1.0494 B(  0-C ,  4-H ) :   0.8989
B(  2-C ,  3-C ) :   1.9664 B(  2-C ,  5-H ) :   0.9433 B(  3-C ,  6-H ) :   0.9430
B(  3-C ,  7-H ) :   0.9360

-----------------------------------------------------------------------------
         ABSORPTION SPECTRUM VIA TRANSITION ELECTRIC DIPOLE MOMENTS
-----------------------------------------------------------------------------
State   Energy    Wavelength  fosc         T2        TX        TY        TZ
        (cm-1)      (nm)                 (au**2)    (au)      (au)      (au)
-----------------------------------------------------------------------------
   1   27936.9    357.9   0.000617091   0.00727  -0.08202   0.02053   0.01107

FINAL SINGLE POINT ENERGY      -191.655121401651

DIPOLE MOMENT
-------------
                                X             Y             Z
Electronic contribution:     -2.97200      -0.51249       1.34173
Nuclear contribution   :      4.00751       0.82309      -1.85600
                        -----------------------------------------
Total Dipole Moment    :      1.03550       0.31060      -0.51427
                        -----------------------------------------
Magnitude (a.u.)       :      1.19717
Magnitude (Debye)      :      3.04296

Rotational constants in cm-1:     1.442466     0.158001     0.144846
Rotational constants in MHz : 43244.050492  4736.754827  4342.372902

                             ****ORCA TERMINATED NORMALLY****
TOTAL RUN TIME: 0 days 0 hours 3 minutes 20 seconds 384 msec
