                         Program Version 5.0.3 -  RELEASE  -
|  1> ! B3LYP cc-pVDZ
|  2> !TightSCF
|  3> %scf
|  4>  ConvForced true
|  5>  convergence tight
|  6>  MaxIter 500
|  7> end
|  8>
|  9> %tddft
| 10>  nroots 1
| 11> end
| 12>
| 13> # 	14010
| 14> * xyz 0 1
| 15> 		C   -1.180119  -0.395001   0.147567
| 16> 		O   -1.717263  -1.037594   0.971837
| 17> 		C    0.075424   0.469067   0.316613
| 18> 		C    1.273512   0.000189  -0.223930
| 19> 		H   -1.670485  -0.417757  -0.967829
| 20> 		H    0.035268   1.452979   0.813705
| 21> 		H    1.188324  -0.842098  -0.787962
| 22> 		H    1.988704   0.757892  -0.252641
| 23> *
| 24>
| 25>                          ****END OF INPUT****

CARTESIAN COORDINATES (ANGSTROEM)
---------------------------------
  C     -1.180119   -0.395001    0.147567
  O     -1.717263   -1.037594    0.971837
  C      0.075424    0.469067    0.316613
  C      1.273512    0.000189   -0.223930
  H     -1.670485   -0.417757   -0.967829
  H      0.035268    1.452979    0.813705
  H      1.188324   -0.842098   -0.787962
  H      1.988704    0.757892   -0.252641

 Total Charge           Charge          ....    0
 Multiplicity           Mult            ....    1
 Number of Electrons    NEL             ....   30
 Basis Dimension        Dim             ....   76

ORBITAL ENERGIES
----------------

  NO   OCC          E(Eh)            E(eV)
   0   2.0000     -19.150242      -521.1046
   1   2.0000     -10.290614      -280.0218
   2   2.0000     -10.217891      -278.0429
   3   2.0000     -10.201181      -277.5882
   4   2.0000      -1.075052       -29.2537
   5   2.0000      -0.788174       -21.4473
   6   2.0000      -0.640555       -17.4304
   7   2.0000      -0.554924       -15.1003
   8   2.0000      -0.496417       -13.5082
   9   2.0000      -0.457988       -12.4625
  10   2.0000      -0.435074       -11.8390
  11   2.0000      -0.414962       -11.2917
  12   2.0000      -0.386553       -10.5186
  13   2.0000      -0.279338        -7.6012
  14   2.0000      -0.255576        -6.9546
  15   0.0000      -0.044385        -1.2078
  16   0.0000      -0.009598        -0.2612
  17   0.0000       0.080725         2.1966
  18   0.0000       0.087198         2.3728
  19   0.0000       0.110506         3.0070

MULLIKEN ATOMIC CHARGES
-----------------------
   0 C :    0.133490
   1 O :   -0.136944
   2 C :   -0.126982
   3 C :    0.095610
   4 H :   -0.010354
   5 H :    0.027755
   6 H :   -0.003336
   7 H :    0.020760
Sum of atomic charges:    0.0000000

LOEWDIN ATOMIC CHARGES
----------------------
   0 C :   -0.053666
   1 O :    0.045060
   2 C :   -0.041414
   3 C :   -0.007802
   4 H :   -0.006870
   5 H :    0.034761
   6 H :    0.007144
   7 H :    0.022787

  Mayer bond orders larger than 0.100000
B(  0-C ,  1-O ) :   2.2708 B(  0-C ,  2-C ) :   0.9471 B(  0-C ,  4-H ) :   0.8843
B(  2-C ,  3-C ) :   2.0159 B(  2-C ,  5-H ) :   0.9454 B(  3-C ,  6-H ) :   0.9507
B(  3-C ,  7-H ) :   0.9485

-----------------------------------------------------------------------------
         ABSORPTION SPECTRUM VIA TRANSITION ELECTRIC DIPOLE MOMENTS
-----------------------------------------------------------------------------
State   Energy    Wavelength  fosc         T2        TX        TY        TZ
        (cm-1)      (nm)                 (au**2)    (au)      (au)      (au)
-----------------------------------------------------------------------------
   1   33232.3    300.9   0.000371124   0.00368  -0.03429   0.02174   0.04504

FINAL SINGLE POINT ENERGY      -191.623092415147

DIPOLE MOMENT
-------------
                                X             Y             Z
Electronic contribution:     -2.51860      -1.29637       1.75184
Nuclear contribution   :      3.02668       1.86807      -2.26433
                        -----------------------------------------
Total Dipole Moment    :      0.50808       0.57171      -0.51249
                        -----------------------------------------
Magnitude (a.u.)       :      0.92067
Magnitude (Debye)      :      2.34017

Rotational constants in cm-1:     1.057751     0.157236     0.151688
Rotational constants in MHz : 31710.569389  4713.809120  4547.480184

                             ****ORCA TERMINATED NORMALLY****
TOTAL RUN TIME: 0 days 0 hours 3 minutes 22 seconds 93 msec
