                         Program Version 5.0.3 -  RELEASE  -
|  1> ! B3LYP cc-pVDZ
|  2> !TightSCF
|  3> %scf
|  4>  ConvForced true
|  5>  convergence tight
|  6>  MaxIter 500
|  7> end
|  8>
|  9> %tddft
| 10>  nroots 1
| 11> end
| 12>
| 13> # 	22477
| 14> * xyz 0 1
| 15> 		C   -0.624649  -0.460664  -0.062561
| 16> 		O   -0.586966  -1.632252   0.036136
| 17> 		C    0.651680   0.401397   0.059097
| 18> 		C    1.870161  -0.112356  -0.041718
| 19> 		H   -1.504848   0.242846  -0.182637
| 20> 		H    0.546871   1.530838   0.157526
| 21> 		H    2.089022  -1.120556  -0.025072
| 22> 		H    2.551969   0.577764   0.027112
| 23> *
| 24>
| 25>                          ****END OF INPUT****

CARTESIAN COORDINATES (ANGSTROEM)
---------------------------------
  C     -0.624649   -0.460664   -0.062561
  O     -0.586966   -1.632252    0.036136
  C      0.651680    0.401397    0.059097
  C      1.870161   -0.112356   -0.041718
  H     -1.504848    0.242846   -0.182637
  H      0.546871    1.530838    0.157526
  H      2.089022   -1.120556   -0.025072
  H      2.551969    0.577764    0.027112

 Total Charge           Charge          ....    0
 Multiplicity           Mult            ....    1
 Number of Electrons    NEL             ....   30
 Basis Dimension        Dim             ....   76

ORBITAL ENERGIES
----------------

  NO   OCC          E(Eh)            E(eV)
   0   2.0000     -19.147895      -521.0407
   1   2.0000     -10.281478      -279.7732
   2   2.0000     -10.201255      -277.5903
   3   2.0000     -10.187463      -277.2150
   4   2.0000      -1.071396       -29.1542
   5   2.0000      -0.792671       -21.5697
   6   2.0000      -0.654080       -17.7984
   7   2.0000      -0.542167       -14.7531
   8   2.0000      -0.510402       -13.8887
   9   2.0000      -0.457216       -12.4415
  10   2.0000      -0.424444       -11.5497
  11   2.0000      -0.408904       -11.1268
  12   2.0000      -0.391887       -10.6638
  13   2.0000      -0.287122        -7.8130
  14   2.0000      -0.256691        -6.9849
  15   0.0000      -0.059836        -1.6282
  16   0.0000       0.056508         1.5377
  17   0.0000       0.070530         1.9192
  18   0.0000       0.097490         2.6528
  19   0.0000       0.123363         3.3569

MULLIKEN ATOMIC CHARGES
-----------------------
   0 C :    0.185727
   1 O :   -0.151975
   2 C :   -0.202236
   3 C :    0.197574
   4 H :   -0.015080
   5 H :    0.000282
   6 H :    0.005802
   7 H :   -0.020094
Sum of atomic charges:   -0.0000000

LOEWDIN ATOMIC CHARGES
----------------------
   0 C :   -0.046873
   1 O :    0.038849
   2 C :   -0.075733
   3 C :    0.037277
   4 H :   -0.007910
   5 H :    0.032566
   6 H :    0.019430
   7 H :    0.002394

  Mayer bond orders larger than 0.100000
B(  0-C ,  1-O ) :   2.2502 B(  0-C ,  2-C ) :   1.0032 B(  0-C ,  4-H ) :   0.9003
B(  2-C ,  3-C ) :   2.0087 B(  2-C ,  5-H ) :   0.9327 B(  3-C ,  6-H ) :   0.9454
B(  3-C ,  7-H ) :   0.9256

-----------------------------------------------------------------------------
         ABSORPTION SPECTRUM VIA TRANSITION ELECTRIC DIPOLE MOMENTS
-----------------------------------------------------------------------------
State   Energy    Wavelength  fosc         T2        TX        TY        TZ
        (cm-1)      (nm)                 (au**2)    (au)      (au)      (au)
-----------------------------------------------------------------------------
   1   30324.5    329.8   0.000078046   0.00085  -0.02427  -0.00150   0.01601

FINAL SINGLE POINT ENERGY      -191.645457460322

DIPOLE MOMENT
-------------
                                X             Y             Z
Electronic contribution:     -1.99619      -2.14526      -0.01336
Nuclear contribution   :      2.29693       2.94068      -0.02193
                        -----------------------------------------
Total Dipole Moment    :      0.30073       0.79542      -0.03529
                        -----------------------------------------
Magnitude (a.u.)       :      0.85111
Magnitude (Debye)      :      2.16334

Rotational constants in cm-1:     0.775856     0.204007     0.162125
Rotational constants in MHz : 23259.580193  6115.967908  4860.393334

                             ****ORCA TERMINATED NORMALLY****
TOTAL RUN TIME: 0 days 0 hours 3 minutes 12 seconds 375 msec
