                         Program Version 5.0.3 -  RELEASE  -
|  1> ! HF-3c
|  2> !TightSCF
|  3> %scf
|  4>  ConvForced true
|  5>  convergence tight
|  6>  MaxIter 500
|  7> end
|  8>
|  9> %tddft
| 10>  nroots 1
| 11> end
| 12>
| 13> # 	31584
| 14> * xyz 0 1
| 15> 		C   -0.545341  -0.442305   0.082865
| 16> 		O   -0.627761  -1.661551  -0.056103
| 17> 		C    0.648227   0.413329  -0.068237
| 18> 		C    1.854621  -0.085609  -0.000905
| 19> 		H   -1.424896   0.188769   0.289578
| 20> 		H    0.348310   1.447218  -0.104727
| 21> 		H    1.981146  -1.263486   0.528540
| 22> 		H    2.710491   0.621887  -0.004259
| 23> *
| 24>
| 25>                          ****END OF INPUT****

CARTESIAN COORDINATES (ANGSTROEM)
---------------------------------
  C     -0.545341   -0.442305    0.082865
  O     -0.627761   -1.661551   -0.056103
  C      0.648227    0.413329   -0.068237
  C      1.854621   -0.085609   -0.000905
  H     -1.424896    0.188769    0.289578
  H      0.348310    1.447218   -0.104727
  H      1.981146   -1.263486    0.528540
  H      2.710491    0.621887   -0.004259

 Total Charge           Charge          ....    0
 Multiplicity           Mult            ....    1
 Number of Electrons    NEL             ....   30
 Basis Dimension        Dim             ....   24

ORBITAL ENERGIES
----------------

  NO   OCC          E(Eh)            E(eV)
   0   2.0000     -20.354515      -553.8745
   1   2.0000     -11.283569      -307.0415
   2   2.0000     -11.189967      -304.4945
   3   2.0000     -11.181959      -304.2766
   4   2.0000      -1.380638       -37.5691
   5   2.0000      -1.081461       -29.4281
   6   2.0000      -0.889701       -24.2100
   7   2.0000      -0.724266       -19.7083
   8   2.0000      -0.692038       -18.8313
   9   2.0000      -0.599574       -16.3152
  10   2.0000      -0.585507       -15.9325
  11   2.0000      -0.529107       -14.3977
  12   2.0000      -0.504260       -13.7216
  13   2.0000      -0.406000       -11.0478
  14   2.0000      -0.392876       -10.6907
  15   0.0000       0.134336         3.6555
  16   0.0000       0.302246         8.2245
  17   0.0000       0.453594        12.3429
  18   0.0000       0.575313        15.6551
  19   0.0000       0.651746        17.7349

MULLIKEN ATOMIC CHARGES
-----------------------
   0 C :    0.164382
   1 O :   -0.356842
   2 C :   -0.197936
   3 C :   -0.193412
   4 H :    0.127017
   5 H :    0.142051
   6 H :    0.171925
   7 H :    0.142815
Sum of atomic charges:    0.0000000

LOEWDIN ATOMIC CHARGES
----------------------
   0 C :    0.150101
   1 O :   -0.268113
   2 C :   -0.152784
   3 C :   -0.112179
   4 H :    0.065342
   5 H :    0.090098
   6 H :    0.133300
   7 H :    0.094234

  Mayer bond orders larger than 0.100000
B(  0-C ,  1-O ) :   1.9041 B(  0-C ,  2-C ) :   1.0258 B(  0-C ,  4-H ) :   0.9274
B(  2-C ,  3-C ) :   1.9443 B(  2-C ,  5-H ) :   0.9556 B(  3-C ,  6-H ) :   0.9445
B(  3-C ,  7-H ) :   0.9602

-----------------------------------------------------------------------------
         ABSORPTION SPECTRUM VIA TRANSITION ELECTRIC DIPOLE MOMENTS
-----------------------------------------------------------------------------
State   Energy    Wavelength  fosc         T2        TX        TY        TZ
        (cm-1)      (nm)                 (au**2)    (au)      (au)      (au)
-----------------------------------------------------------------------------
   1   31948.4    313.0   0.000058016   0.00060  -0.02393  -0.00438  -0.00247

Dispersion correction           -0.025691340
FINAL SINGLE POINT ENERGY      -189.310861578641

DIPOLE MOMENT
-------------
                                X             Y             Z
Electronic contribution:     -1.79462      -1.80012      -0.40824
Nuclear contribution   :      2.23234       2.71985       0.66567
                        -----------------------------------------
Total Dipole Moment    :      0.43773       0.91973       0.25743
                        -----------------------------------------
Magnitude (a.u.)       :      1.05061
Magnitude (Debye)      :      2.67043

Rotational constants in cm-1:     0.778099     0.201034     0.161489
Rotational constants in MHz : 23326.835708  6026.843863  4841.316232

                             ****ORCA TERMINATED NORMALLY****
TOTAL RUN TIME: 0 days 0 hours 0 minutes 11 seconds 329 msec
