                         Program Version 5.0.3 -  RELEASE  -
|  1> ! HF-3c
|  2> !TightSCF
|  3> %scf
|  4>  ConvForced true
|  5>  convergence tight
|  6>  MaxIter 500
|  7> end
|  8>
|  9> %tddft
| 10>  nroots 1
| 11> end
| 12>
| 13> # 	14910
| 14> * xyz 0 1
| 15> 		C   -1.232826  -0.244582   0.043543
| 16> 		O   -1.614475  -1.081515   0.828199
| 17> 		C   -0.005158   0.466849   0.247698
| 18> 		C    1.153888   0.058402  -0.162028
| 19> 		H   -1.548094  -0.145538  -1.004465
| 20> 		H   -0.038546   1.333627   0.844548
| 21> 		H    1.222505  -0.936980  -0.661654
| 22> 		H    2.077209   0.540087  -0.119306
| 23> *
| 24>
| 25>                          ****END OF INPUT****

CARTESIAN COORDINATES (ANGSTROEM)
---------------------------------
  C     -1.232826   -0.244582    0.043543
  O     -1.614475   -1.081515    0.828199
  C     -0.005158    0.466849    0.247698
  C      1.153888    0.058402   -0.162028
  H     -1.548094   -0.145538   -1.004465
  H     -0.038546    1.333627    0.844548
  H      1.222505   -0.936980   -0.661654
  H      2.077209    0.540087   -0.119306

 Total Charge           Charge          ....    0
 Multiplicity           Mult            ....    1
 Number of Electrons    NEL             ....   30
 Basis Dimension        Dim             ....   24

ORBITAL ENERGIES
----------------

  NO   OCC          E(Eh)            E(eV)
   0   2.0000     -20.386152      -554.7354
   1   2.0000     -11.307958      -307.7052
   2   2.0000     -11.194361      -304.6141
   3   2.0000     -11.184533      -304.3466
   4   2.0000      -1.415671       -38.5224
   5   2.0000      -1.101302       -29.9680
   6   2.0000      -0.903206       -24.5775
   7   2.0000      -0.777132       -21.1468
   8   2.0000      -0.691068       -18.8049
   9   2.0000      -0.662416       -18.0252
  10   2.0000      -0.617307       -16.7978
  11   2.0000      -0.545456       -14.8426
  12   2.0000      -0.506822       -13.7913
  13   2.0000      -0.422063       -11.4849
  14   2.0000      -0.412220       -11.2171
  15   0.0000       0.174755         4.7553
  16   0.0000       0.226605         6.1662
  17   0.0000       0.585364        15.9286
  18   0.0000       0.635851        17.3024
  19   0.0000       0.699039        19.0218

MULLIKEN ATOMIC CHARGES
-----------------------
   0 C :    0.167807
   1 O :   -0.330761
   2 C :   -0.181207
   3 C :   -0.239430
   4 H :    0.146601
   5 H :    0.155297
   6 H :    0.136519
   7 H :    0.145174
Sum of atomic charges:   -0.0000000

LOEWDIN ATOMIC CHARGES
----------------------
   0 C :    0.152295
   1 O :   -0.235243
   2 C :   -0.129059
   3 C :   -0.148317
   4 H :    0.080955
   5 H :    0.099339
   6 H :    0.089278
   7 H :    0.090752

  Mayer bond orders larger than 0.100000
B(  0-C ,  1-O ) :   1.9467 B(  0-C ,  2-C ) :   0.9995 B(  0-C ,  4-H ) :   0.9162
B(  2-C ,  3-C ) :   1.9981 B(  2-C ,  5-H ) :   0.9445 B(  3-C ,  6-H ) :   0.9636
B(  3-C ,  7-H ) :   0.9648

-----------------------------------------------------------------------------
         ABSORPTION SPECTRUM VIA TRANSITION ELECTRIC DIPOLE MOMENTS
-----------------------------------------------------------------------------
State   Energy    Wavelength  fosc         T2        TX        TY        TZ
        (cm-1)      (nm)                 (au**2)    (au)      (au)      (au)
-----------------------------------------------------------------------------
   1   33504.3    298.5   0.000166663   0.00164  -0.02268   0.00498  -0.03314

Dispersion correction           -0.025967147
FINAL SINGLE POINT ENERGY      -189.316528254392

DIPOLE MOMENT
-------------
                                X             Y             Z
Electronic contribution:     -2.82614      -1.03137       1.17434
Nuclear contribution   :      3.27090       1.60892      -1.80144
                        -----------------------------------------
Total Dipole Moment    :      0.44476       0.57756      -0.62711
                        -----------------------------------------
Magnitude (a.u.)       :      0.96158
Magnitude (Debye)      :      2.44415

Rotational constants in cm-1:     1.011430     0.177276     0.168856
Rotational constants in MHz : 30321.907850  5314.597214  5062.170164

                             ****ORCA TERMINATED NORMALLY****
TOTAL RUN TIME: 0 days 0 hours 0 minutes 16 seconds 101 msec
