                         Program Version 5.0.3 -  RELEASE  -
|  1> ! B3LYP cc-pVDZ
|  2> !TightSCF
|  3> %scf
|  4>  ConvForced true
|  5>  convergence tight
|  6>  MaxIter 500
|  7> end
|  8>
|  9> %tddft
| 10>  nroots 1
| 11> end
| 12>
| 13> # 	22683
| 14> * xyz 0 1
| 15> 		C   -0.574688  -0.432467   0.105970
| 16> 		O   -0.591064  -1.623352  -0.073860
| 17> 		C    0.643458   0.408262  -0.039113
| 18> 		C    1.843201  -0.123230   0.036797
| 19> 		H   -1.482274  -0.052328   0.234357
| 20> 		H    0.498244   1.480178  -0.457765
| 21> 		H    1.863766  -1.243678   0.324812
| 22> 		H    2.695302   0.559341  -0.204514
| 23> *
| 24>
| 25>                          ****END OF INPUT****

CARTESIAN COORDINATES (ANGSTROEM)
---------------------------------
  C     -0.574688   -0.432467    0.105970
  O     -0.591064   -1.623352   -0.073860
  C      0.643458    0.408262   -0.039113
  C      1.843201   -0.123230    0.036797
  H     -1.482274   -0.052328    0.234357
  H      0.498244    1.480178   -0.457765
  H      1.863766   -1.243678    0.324812
  H      2.695302    0.559341   -0.204514

 Total Charge           Charge          ....    0
 Multiplicity           Mult            ....    1
 Number of Electrons    NEL             ....   30
 Basis Dimension        Dim             ....   76

ORBITAL ENERGIES
----------------

  NO   OCC          E(Eh)            E(eV)
   0   2.0000     -19.133936      -520.6609
   1   2.0000     -10.262238      -279.2497
   2   2.0000     -10.213061      -277.9115
   3   2.0000     -10.204510      -277.6788
   4   2.0000      -1.049798       -28.5665
   5   2.0000      -0.794414       -21.6171
   6   2.0000      -0.654832       -17.8189
   7   2.0000      -0.547587       -14.9006
   8   2.0000      -0.508695       -13.8423
   9   2.0000      -0.438190       -11.9237
  10   2.0000      -0.429178       -11.6785
  11   2.0000      -0.395005       -10.7486
  12   2.0000      -0.372288       -10.1305
  13   2.0000      -0.290335        -7.9004
  14   2.0000      -0.252295        -6.8653
  15   0.0000      -0.060040        -1.6338
  16   0.0000       0.044880         1.2213
  17   0.0000       0.069221         1.8836
  18   0.0000       0.086875         2.3640
  19   0.0000       0.124531         3.3887

MULLIKEN ATOMIC CHARGES
-----------------------
   0 C :    0.244406
   1 O :   -0.196085
   2 C :   -0.155565
   3 C :    0.053510
   4 H :   -0.055256
   5 H :    0.015953
   6 H :    0.054030
   7 H :    0.039006
Sum of atomic charges:    0.0000000

LOEWDIN ATOMIC CHARGES
----------------------
   0 C :   -0.020349
   1 O :    0.004347
   2 C :   -0.092068
   3 C :    0.000144
   4 H :   -0.024645
   5 H :    0.040859
   6 H :    0.050364
   7 H :    0.041348

  Mayer bond orders larger than 0.100000
B(  0-C ,  1-O ) :   2.1869 B(  0-C ,  2-C ) :   1.0336 B(  0-C ,  4-H ) :   0.9474
B(  2-C ,  3-C ) :   1.9893 B(  2-C ,  5-H ) :   0.9357 B(  3-C ,  6-H ) :   0.9199
B(  3-C ,  7-H ) :   0.9332

-----------------------------------------------------------------------------
         ABSORPTION SPECTRUM VIA TRANSITION ELECTRIC DIPOLE MOMENTS
-----------------------------------------------------------------------------
State   Energy    Wavelength  fosc         T2        TX        TY        TZ
        (cm-1)      (nm)                 (au**2)    (au)      (au)      (au)
-----------------------------------------------------------------------------
   1   28844.7    346.7   0.000283501   0.00324   0.05117   0.00226  -0.02475

FINAL SINGLE POINT ENERGY      -191.652108730316

DIPOLE MOMENT
-------------
                                X             Y             Z
Electronic contribution:     -1.91014      -1.61525       0.13695
Nuclear contribution   :      2.19536       2.48749      -0.09510
                        -----------------------------------------
Total Dipole Moment    :      0.28522       0.87224       0.04185
                        -----------------------------------------
Magnitude (a.u.)       :      0.91865
Magnitude (Debye)      :      2.33501

Rotational constants in cm-1:     0.791413     0.207797     0.166770
Rotational constants in MHz : 23725.967691  6229.592246  4999.627739

                             ****ORCA TERMINATED NORMALLY****
TOTAL RUN TIME: 0 days 0 hours 3 minutes 21 seconds 72 msec
