                         Program Version 5.0.3 -  RELEASE  -
|  1> ! B3LYP cc-pVDZ
|  2> !TightSCF
|  3> %scf
|  4>  ConvForced true
|  5>  convergence tight
|  6>  MaxIter 500
|  7> end
|  8>
|  9> %tddft
| 10>  nroots 1
| 11> end
| 12>
| 13> # 	32500
| 14> * xyz 0 1
| 15> 		C   -0.610058  -0.421027   0.083981
| 16> 		O   -0.560390  -1.589551  -0.069120
| 17> 		C    0.599281   0.361653  -0.062238
| 18> 		C    1.893879  -0.126485   0.028993
| 19> 		H   -1.688070   0.075207   0.467736
| 20> 		H    0.513723   1.336764  -0.361125
| 21> 		H    1.917912  -1.392699   0.435337
| 22> 		H    2.653639   0.665512  -0.083985
| 23> *
| 24>
| 25>                          ****END OF INPUT****

CARTESIAN COORDINATES (ANGSTROEM)
---------------------------------
  C     -0.610058   -0.421027    0.083981
  O     -0.560390   -1.589551   -0.069120
  C      0.599281    0.361653   -0.062238
  C      1.893879   -0.126485    0.028993
  H     -1.688070    0.075207    0.467736
  H      0.513723    1.336764   -0.361125
  H      1.917912   -1.392699    0.435337
  H      2.653639    0.665512   -0.083985

 Total Charge           Charge          ....    0
 Multiplicity           Mult            ....    1
 Number of Electrons    NEL             ....   30
 Basis Dimension        Dim             ....   76

ORBITAL ENERGIES
----------------

  NO   OCC          E(Eh)            E(eV)
   0   2.0000     -19.138899      -520.7959
   1   2.0000     -10.280688      -279.7517
   2   2.0000     -10.236151      -278.5398
   3   2.0000     -10.200829      -277.5787
   4   2.0000      -1.067908       -29.0593
   5   2.0000      -0.787020       -21.4159
   6   2.0000      -0.646115       -17.5817
   7   2.0000      -0.524532       -14.2733
   8   2.0000      -0.509936       -13.8761
   9   2.0000      -0.439509       -11.9596
  10   2.0000      -0.429099       -11.6764
  11   2.0000      -0.401653       -10.9295
  12   2.0000      -0.367035        -9.9875
  13   2.0000      -0.282779        -7.6948
  14   2.0000      -0.254070        -6.9136
  15   0.0000      -0.067825        -1.8456
  16   0.0000       0.039955         1.0872
  17   0.0000       0.047331         1.2879
  18   0.0000       0.073367         1.9964
  19   0.0000       0.098734         2.6867

MULLIKEN ATOMIC CHARGES
-----------------------
   0 C :    0.116887
   1 O :   -0.157689
   2 C :   -0.025462
   3 C :   -0.029477
   4 H :   -0.014571
   5 H :   -0.028155
   6 H :    0.088180
   7 H :    0.050287
Sum of atomic charges:    0.0000000

LOEWDIN ATOMIC CHARGES
----------------------
   0 C :   -0.069427
   1 O :    0.027973
   2 C :   -0.077147
   3 C :   -0.007755
   4 H :   -0.000384
   5 H :    0.008774
   6 H :    0.078286
   7 H :    0.039680

  Mayer bond orders larger than 0.100000
B(  0-C ,  1-O ) :   2.2107 B(  0-C ,  2-C ) :   1.0389 B(  0-C ,  4-H ) :   0.8919
B(  2-C ,  3-C ) :   1.9474 B(  2-C ,  5-H ) :   0.9442 B(  3-C ,  6-H ) :   0.9155
B(  3-C ,  7-H ) :   0.9287

-----------------------------------------------------------------------------
         ABSORPTION SPECTRUM VIA TRANSITION ELECTRIC DIPOLE MOMENTS
-----------------------------------------------------------------------------
State   Energy    Wavelength  fosc         T2        TX        TY        TZ
        (cm-1)      (nm)                 (au**2)    (au)      (au)      (au)
-----------------------------------------------------------------------------
   1   28618.1    349.4   0.000753868   0.00867  -0.08076  -0.00685   0.04586

FINAL SINGLE POINT ENERGY      -191.627867136375

DIPOLE MOMENT
-------------
                                X             Y             Z
Electronic contribution:     -1.67360      -1.61151      -0.34955
Nuclear contribution   :      2.03134       2.43154       0.43097
                        -----------------------------------------
Total Dipole Moment    :      0.35774       0.82003       0.08142
                        -----------------------------------------
Magnitude (a.u.)       :      0.89836
Magnitude (Debye)      :      2.28346

Rotational constants in cm-1:     0.757970     0.209479     0.166611
Rotational constants in MHz : 22723.357150  6280.020787  4994.861958

                             ****ORCA TERMINATED NORMALLY****
TOTAL RUN TIME: 0 days 0 hours 3 minutes 11 seconds 780 msec
