                         Program Version 5.0.3 -  RELEASE  -
|  1> ! B3LYP cc-pVDZ
|  2> !TightSCF
|  3> %scf
|  4>  ConvForced true
|  5>  convergence tight
|  6>  MaxIter 500
|  7> end
|  8>
|  9> %tddft
| 10>  nroots 1
| 11> end
| 12>
| 13> # 	31634
| 14> * xyz 0 1
| 15> 		C   -0.603153  -0.419768  -0.099001
| 16> 		O   -0.588568  -1.655309   0.049769
| 17> 		C    0.603988   0.419656   0.062269
| 18> 		C    1.901676  -0.120446  -0.003274
| 19> 		H   -1.436213   0.165129  -0.012968
| 20> 		H    0.325177   1.501814   0.037048
| 21> 		H    2.073441  -1.137854  -0.371997
| 22> 		H    2.640998   0.457108   0.045491
| 23> *
| 24>
| 25>                          ****END OF INPUT****

CARTESIAN COORDINATES (ANGSTROEM)
---------------------------------
  C     -0.603153   -0.419768   -0.099001
  O     -0.588568   -1.655309    0.049769
  C      0.603988    0.419656    0.062269
  C      1.901676   -0.120446   -0.003274
  H     -1.436213    0.165129   -0.012968
  H      0.325177    1.501814    0.037048
  H      2.073441   -1.137854   -0.371997
  H      2.640998    0.457108    0.045491

 Total Charge           Charge          ....    0
 Multiplicity           Mult            ....    1
 Number of Electrons    NEL             ....   30
 Basis Dimension        Dim             ....   76

ORBITAL ENERGIES
----------------

  NO   OCC          E(Eh)            E(eV)
   0   2.0000     -19.135433      -520.7016
   1   2.0000     -10.265203      -279.3304
   2   2.0000     -10.214442      -277.9491
   3   2.0000     -10.211396      -277.8662
   4   2.0000      -1.023862       -27.8607
   5   2.0000      -0.785970       -21.3873
   6   2.0000      -0.681759       -18.5516
   7   2.0000      -0.557010       -15.1570
   8   2.0000      -0.501431       -13.6446
   9   2.0000      -0.442191       -12.0326
  10   2.0000      -0.427807       -11.6412
  11   2.0000      -0.394172       -10.7260
  12   2.0000      -0.381278       -10.3751
  13   2.0000      -0.276481        -7.5234
  14   2.0000      -0.252343        -6.8666
  15   0.0000      -0.084557        -2.3009
  16   0.0000       0.038295         1.0421
  17   0.0000       0.072572         1.9748
  18   0.0000       0.099166         2.6984
  19   0.0000       0.132328         3.6008

MULLIKEN ATOMIC CHARGES
-----------------------
   0 C :    0.232671
   1 O :   -0.223147
   2 C :   -0.167352
   3 C :    0.159347
   4 H :   -0.033647
   5 H :    0.007418
   6 H :    0.048656
   7 H :   -0.023947
Sum of atomic charges:   -0.0000000

LOEWDIN ATOMIC CHARGES
----------------------
   0 C :   -0.018493
   1 O :   -0.032167
   2 C :   -0.059332
   3 C :    0.069686
   4 H :   -0.016014
   5 H :    0.033373
   6 H :    0.043591
   7 H :   -0.020644

  Mayer bond orders larger than 0.100000
B(  0-C ,  1-O ) :   2.1373 B(  0-C ,  2-C ) :   1.1072 B(  0-C ,  4-H ) :   0.9280
B(  1-O ,  3-C ) :   0.1088 B(  2-C ,  3-C ) :   1.9131 B(  2-C ,  5-H ) :   0.9438
B(  3-C ,  6-H ) :   0.9516 B(  3-C ,  7-H ) :   0.9445

-----------------------------------------------------------------------------
         ABSORPTION SPECTRUM VIA TRANSITION ELECTRIC DIPOLE MOMENTS
-----------------------------------------------------------------------------
State   Energy    Wavelength  fosc         T2        TX        TY        TZ
        (cm-1)      (nm)                 (au**2)    (au)      (au)      (au)
-----------------------------------------------------------------------------
   1   24165.1    413.8   0.000023395   0.00032  -0.00045   0.01472  -0.01008

FINAL SINGLE POINT ENERGY      -191.654927879034

DIPOLE MOMENT
-------------
                                X             Y             Z
Electronic contribution:     -1.81669      -1.74668       0.13038
Nuclear contribution   :      2.22504       2.71092      -0.28373
                        -----------------------------------------
Total Dipole Moment    :      0.40835       0.96424      -0.15335
                        -----------------------------------------
Magnitude (a.u.)       :      1.05831
Magnitude (Debye)      :      2.69002

Rotational constants in cm-1:     0.718250     0.204518     0.160240
Rotational constants in MHz : 21532.607587  6131.297808  4803.884240

                             ****ORCA TERMINATED NORMALLY****
TOTAL RUN TIME: 0 days 0 hours 2 minutes 53 seconds 828 msec
