                         Program Version 5.0.3 -  RELEASE  -
|  1> ! HF-3c
|  2> !TightSCF
|  3> %scf
|  4>  ConvForced true
|  5>  convergence tight
|  6>  MaxIter 500
|  7> end
|  8>
|  9> %tddft
| 10>  nroots 1
| 11> end
| 12>
| 13> # 	1536
| 14> * xyz 0 1
| 15> 		C   -1.238529  -0.304809  -0.012505
| 16> 		O   -1.995897  -0.754951   0.847737
| 17> 		C    0.019869   0.409558   0.279062
| 18> 		C    1.155113   0.090882  -0.270489
| 19> 		H   -1.344539  -0.483288  -0.992551
| 20> 		H   -0.120757   1.096611   1.062987
| 21> 		H    1.249551  -0.559177  -0.955244
| 22> 		H    2.248194   0.436014   0.092949
| 23> *
| 24>
| 25>                          ****END OF INPUT****

CARTESIAN COORDINATES (ANGSTROEM)
---------------------------------
  C     -1.238529   -0.304809   -0.012505
  O     -1.995897   -0.754951    0.847737
  C      0.019869    0.409558    0.279062
  C      1.155113    0.090882   -0.270489
  H     -1.344539   -0.483288   -0.992551
  H     -0.120757    1.096611    1.062987
  H      1.249551   -0.559177   -0.955244
  H      2.248194    0.436014    0.092949

 Total Charge           Charge          ....    0
 Multiplicity           Mult            ....    1
 Number of Electrons    NEL             ....   30
 Basis Dimension        Dim             ....   24

ORBITAL ENERGIES
----------------

  NO   OCC          E(Eh)            E(eV)
   0   2.0000     -20.377438      -554.4983
   1   2.0000     -11.302633      -307.5603
   2   2.0000     -11.202479      -304.8349
   3   2.0000     -11.199113      -304.7433
   4   2.0000      -1.396442       -37.9991
   5   2.0000      -1.103983       -30.0409
   6   2.0000      -0.907082       -24.6830
   7   2.0000      -0.811553       -22.0835
   8   2.0000      -0.689579       -18.7644
   9   2.0000      -0.649943       -17.6859
  10   2.0000      -0.606804       -16.5120
  11   2.0000      -0.547133       -14.8883
  12   2.0000      -0.522220       -14.2103
  13   2.0000      -0.423979       -11.5370
  14   2.0000      -0.410272       -11.1641
  15   0.0000       0.141422         3.8483
  16   0.0000       0.260630         7.0921
  17   0.0000       0.501131        13.6365
  18   0.0000       0.673516        18.3273
  19   0.0000       0.714656        19.4468

MULLIKEN ATOMIC CHARGES
-----------------------
   0 C :    0.154120
   1 O :   -0.332464
   2 C :   -0.169325
   3 C :   -0.244005
   4 H :    0.140456
   5 H :    0.157456
   6 H :    0.135356
   7 H :    0.158405
Sum of atomic charges:   -0.0000000

LOEWDIN ATOMIC CHARGES
----------------------
   0 C :    0.150476
   1 O :   -0.244317
   2 C :   -0.116160
   3 C :   -0.146808
   4 H :    0.067611
   5 H :    0.099265
   6 H :    0.075533
   7 H :    0.114399

  Mayer bond orders larger than 0.100000
B(  0-C ,  1-O ) :   1.9272 B(  0-C ,  2-C ) :   1.0076 B(  0-C ,  4-H ) :   0.9343
B(  2-C ,  3-C ) :   1.9760 B(  2-C ,  5-H ) :   0.9519 B(  3-C ,  6-H ) :   0.9688
B(  3-C ,  7-H ) :   0.9553

-----------------------------------------------------------------------------
         ABSORPTION SPECTRUM VIA TRANSITION ELECTRIC DIPOLE MOMENTS
-----------------------------------------------------------------------------
State   Energy    Wavelength  fosc         T2        TX        TY        TZ
        (cm-1)      (nm)                 (au**2)    (au)      (au)      (au)
-----------------------------------------------------------------------------
   1   32366.5    309.0   0.000015330   0.00016  -0.00541  -0.00106  -0.01120

Dispersion correction           -0.025761079
FINAL SINGLE POINT ENERGY      -189.299621787918

DIPOLE MOMENT
-------------
                                X             Y             Z
Electronic contribution:     -3.09772      -0.71578       1.02112
Nuclear contribution   :      3.93675       1.06926      -1.58498
                        -----------------------------------------
Total Dipole Moment    :      0.83903       0.35348      -0.56387
                        -----------------------------------------
Magnitude (a.u.)       :      1.07092
Magnitude (Debye)      :      2.72205

Rotational constants in cm-1:     1.380244     0.156544     0.149811
Rotational constants in MHz : 41378.683656  4693.085806  4491.209314

                             ****ORCA TERMINATED NORMALLY****
TOTAL RUN TIME: 0 days 0 hours 0 minutes 10 seconds 609 msec
