                         Program Version 5.0.3 -  RELEASE  -
|  1> ! B3LYP cc-pVDZ
|  2> !TightSCF
|  3> %scf
|  4>  ConvForced true
|  5>  convergence tight
|  6>  MaxIter 500
|  7> end
|  8>
|  9> %tddft
| 10>  nroots 1
| 11> end
| 12>
| 13> # 	22919
| 14> * xyz 0 1
| 15> 		C   -0.570785  -0.465346  -0.048767
| 16> 		O   -0.586154  -1.587903   0.027998
| 17> 		C    0.634272   0.414407   0.066849
| 18> 		C    1.847353  -0.136180  -0.032673
| 19> 		H   -1.587266   0.082341  -0.200377
| 20> 		H    0.435787   1.369117   0.019449
| 21> 		H    2.030789  -1.197407  -0.084698
| 22> 		H    2.592812   0.430723   0.000824
| 23> *
| 24>
| 25>                          ****END OF INPUT****

CARTESIAN COORDINATES (ANGSTROEM)
---------------------------------
  C     -0.570785   -0.465346   -0.048767
  O     -0.586154   -1.587903    0.027998
  C      0.634272    0.414407    0.066849
  C      1.847353   -0.136180   -0.032673
  H     -1.587266    0.082341   -0.200377
  H      0.435787    1.369117    0.019449
  H      2.030789   -1.197407   -0.084698
  H      2.592812    0.430723    0.000824

 Total Charge           Charge          ....    0
 Multiplicity           Mult            ....    1
 Number of Electrons    NEL             ....   30
 Basis Dimension        Dim             ....   76

ORBITAL ENERGIES
----------------

  NO   OCC          E(Eh)            E(eV)
   0   2.0000     -19.136089      -520.7194
   1   2.0000     -10.267019      -279.3798
   2   2.0000     -10.195409      -277.4312
   3   2.0000     -10.190115      -277.2871
   4   2.0000      -1.095675       -29.8148
   5   2.0000      -0.800876       -21.7929
   6   2.0000      -0.661405       -17.9977
   7   2.0000      -0.543967       -14.8021
   8   2.0000      -0.524792       -14.2803
   9   2.0000      -0.457595       -12.4518
  10   2.0000      -0.439166       -11.9503
  11   2.0000      -0.423335       -11.5195
  12   2.0000      -0.401974       -10.9383
  13   2.0000      -0.290089        -7.8937
  14   2.0000      -0.248293        -6.7564
  15   0.0000      -0.056562        -1.5391
  16   0.0000       0.071582         1.9478
  17   0.0000       0.082841         2.2542
  18   0.0000       0.099984         2.7207
  19   0.0000       0.129815         3.5324

MULLIKEN ATOMIC CHARGES
-----------------------
   0 C :    0.132075
   1 O :   -0.109724
   2 C :   -0.071982
   3 C :    0.183634
   4 H :   -0.055295
   5 H :   -0.067275
   6 H :    0.026357
   7 H :   -0.037790
Sum of atomic charges:   -0.0000000

LOEWDIN ATOMIC CHARGES
----------------------
   0 C :   -0.089834
   1 O :    0.081389
   2 C :   -0.045787
   3 C :    0.063694
   4 H :   -0.022514
   5 H :   -0.005638
   6 H :    0.035158
   7 H :   -0.016468

  Mayer bond orders larger than 0.100000
B(  0-C ,  1-O ) :   2.3030 B(  0-C ,  2-C ) :   1.0258 B(  0-C ,  4-H ) :   0.8918
B(  2-C ,  3-C ) :   1.9864 B(  2-C ,  5-H ) :   0.9484 B(  3-C ,  6-H ) :   0.9427
B(  3-C ,  7-H ) :   0.9323

-----------------------------------------------------------------------------
         ABSORPTION SPECTRUM VIA TRANSITION ELECTRIC DIPOLE MOMENTS
-----------------------------------------------------------------------------
State   Energy    Wavelength  fosc         T2        TX        TY        TZ
        (cm-1)      (nm)                 (au**2)    (au)      (au)      (au)
-----------------------------------------------------------------------------
   1   30022.9    333.1   0.000612307   0.00671  -0.07801  -0.00810   0.02373

FINAL SINGLE POINT ENERGY      -191.623119625685

DIPOLE MOMENT
-------------
                                X             Y             Z
Electronic contribution:     -1.66119      -1.70144       0.18734
Nuclear contribution   :      2.10148       2.43080      -0.24840
                        -----------------------------------------
Total Dipole Moment    :      0.44029       0.72936      -0.06107
                        -----------------------------------------
Magnitude (a.u.)       :      0.85414
Magnitude (Debye)      :      2.17105

Rotational constants in cm-1:     0.811737     0.213306     0.169447
Rotational constants in MHz : 24335.253871  6394.765569  5079.882144

                             ****ORCA TERMINATED NORMALLY****
TOTAL RUN TIME: 0 days 0 hours 3 minutes 17 seconds 330 msec
