                         Program Version 5.0.3 -  RELEASE  -
|  1> ! B3LYP cc-pVDZ
|  2> !TightSCF
|  3> %scf
|  4>  ConvForced true
|  5>  convergence tight
|  6>  MaxIter 500
|  7> end
|  8>
|  9> %tddft
| 10>  nroots 1
| 11> end
| 12>
| 13> # 	24055
| 14> * xyz 0 1
| 15> 		C   -0.547842  -0.393133   0.018719
| 16> 		O   -0.552135  -1.677029  -0.004215
| 17> 		C    0.563316   0.453493  -0.073541
| 18> 		C    1.855626  -0.126857   0.003368
| 19> 		H   -1.656514   0.156816   0.229660
| 20> 		H    0.530212   1.576669   0.145889
| 21> 		H    1.660892  -1.478192   0.030021
| 22> 		H    2.905413   0.387165   0.292379
| 23> *
| 24>
| 25>                          ****END OF INPUT****

CARTESIAN COORDINATES (ANGSTROEM)
---------------------------------
  C     -0.547842   -0.393133    0.018719
  O     -0.552135   -1.677029   -0.004215
  C      0.563316    0.453493   -0.073541
  C      1.855626   -0.126857    0.003368
  H     -1.656514    0.156816    0.229660
  H      0.530212    1.576669    0.145889
  H      1.660892   -1.478192    0.030021
  H      2.905413    0.387165    0.292379

 Total Charge           Charge          ....    0
 Multiplicity           Mult            ....    1
 Number of Electrons    NEL             ....   30
 Basis Dimension        Dim             ....   76

ORBITAL ENERGIES
----------------

  NO   OCC          E(Eh)            E(eV)
   0   2.0000     -19.138404      -520.7825
   1   2.0000     -10.287911      -279.9483
   2   2.0000     -10.260486      -279.2020
   3   2.0000     -10.224612      -278.2258
   4   2.0000      -1.008839       -27.4519
   5   2.0000      -0.793010       -21.5789
   6   2.0000      -0.649504       -17.6739
   7   2.0000      -0.517263       -14.0754
   8   2.0000      -0.496802       -13.5187
   9   2.0000      -0.435645       -11.8545
  10   2.0000      -0.400935       -10.9100
  11   2.0000      -0.386000       -10.5036
  12   2.0000      -0.350736        -9.5440
  13   2.0000      -0.280309        -7.6276
  14   2.0000      -0.255484        -6.9521
  15   0.0000      -0.094376        -2.5681
  16   0.0000       0.034683         0.9438
  17   0.0000       0.046526         1.2660
  18   0.0000       0.050051         1.3619
  19   0.0000       0.102633         2.7928

MULLIKEN ATOMIC CHARGES
-----------------------
   0 C :    0.154556
   1 O :   -0.252319
   2 C :   -0.056490
   3 C :   -0.078396
   4 H :    0.009740
   5 H :    0.026721
   6 H :    0.108387
   7 H :    0.087801
Sum of atomic charges:   -0.0000000

LOEWDIN ATOMIC CHARGES
----------------------
   0 C :   -0.021392
   1 O :   -0.079649
   2 C :   -0.111064
   3 C :    0.011740
   4 H :    0.014939
   5 H :    0.044459
   6 H :    0.082677
   7 H :    0.058291

  Mayer bond orders larger than 0.100000
B(  0-C ,  1-O ) :   2.0433 B(  0-C ,  2-C ) :   1.1177 B(  0-C ,  4-H ) :   0.9054
B(  1-O ,  3-C ) :   0.1320 B(  2-C ,  3-C ) :   1.8226 B(  2-C ,  5-H ) :   0.9457
B(  3-C ,  6-H ) :   0.8944 B(  3-C ,  7-H ) :   0.9332

-----------------------------------------------------------------------------
         ABSORPTION SPECTRUM VIA TRANSITION ELECTRIC DIPOLE MOMENTS
-----------------------------------------------------------------------------
State   Energy    Wavelength  fosc         T2        TX        TY        TZ
        (cm-1)      (nm)                 (au**2)    (au)      (au)      (au)
-----------------------------------------------------------------------------
   1   23202.1    431.0   0.000405749   0.00576  -0.05286  -0.00286  -0.05435

FINAL SINGLE POINT ENERGY      -191.635054343533

DIPOLE MOMENT
-------------
                                X             Y             Z
Electronic contribution:     -1.46182      -1.39366      -0.49604
Nuclear contribution   :      2.06953       2.39112       0.65352
                        -----------------------------------------
Total Dipole Moment    :      0.60771       0.99746       0.15748
                        -----------------------------------------
Magnitude (a.u.)       :      1.17858
Magnitude (Debye)      :      2.99570

Rotational constants in cm-1:     0.673429     0.211741     0.161805
Rotational constants in MHz : 20188.887172  6347.840401  4850.791613

                             ****ORCA TERMINATED NORMALLY****
TOTAL RUN TIME: 0 days 0 hours 3 minutes 21 seconds 911 msec
