                         Program Version 5.0.3 -  RELEASE  -
|  1> ! B3LYP cc-pVDZ
|  2> !TightSCF
|  3> %scf
|  4>  ConvForced true
|  5>  convergence tight
|  6>  MaxIter 500
|  7> end
|  8>
|  9> %tddft
| 10>  nroots 1
| 11> end
| 12>
| 13> # 	17613
| 14> * xyz 0 1
| 15> 		C   -1.243140  -0.255492  -0.105596
| 16> 		O   -1.779594  -0.617583  -1.014270
| 17> 		C    0.075674   0.593165  -0.294060
| 18> 		C    1.240461   0.060022   0.266540
| 19> 		H   -1.552578  -0.643050   1.096306
| 20> 		H    0.019848   1.192641  -1.033288
| 21> 		H    0.986547  -0.836758   1.092360
| 22> 		H    2.219558   0.505114  -0.012758
| 23> *
| 24>
| 25>                          ****END OF INPUT****

CARTESIAN COORDINATES (ANGSTROEM)
---------------------------------
  C     -1.243140   -0.255492   -0.105596
  O     -1.779594   -0.617583   -1.014270
  C      0.075674    0.593165   -0.294060
  C      1.240461    0.060022    0.266540
  H     -1.552578   -0.643050    1.096306
  H      0.019848    1.192641   -1.033288
  H      0.986547   -0.836758    1.092360
  H      2.219558    0.505114   -0.012758

 Total Charge           Charge          ....    0
 Multiplicity           Mult            ....    1
 Number of Electrons    NEL             ....   30
 Basis Dimension        Dim             ....   76

ORBITAL ENERGIES
----------------

  NO   OCC          E(Eh)            E(eV)
   0   2.0000     -19.155368      -521.2441
   1   2.0000     -10.290695      -280.0240
   2   2.0000     -10.229607      -278.3618
   3   2.0000     -10.202045      -277.6118
   4   2.0000      -1.116861       -30.3913
   5   2.0000      -0.776661       -21.1340
   6   2.0000      -0.619801       -16.8656
   7   2.0000      -0.559648       -15.2288
   8   2.0000      -0.483019       -13.1436
   9   2.0000      -0.469066       -12.7639
  10   2.0000      -0.440587       -11.9890
  11   2.0000      -0.418560       -11.3896
  12   2.0000      -0.390190       -10.6176
  13   2.0000      -0.279712        -7.6113
  14   2.0000      -0.254130        -6.9152
  15   0.0000      -0.040846        -1.1115
  16   0.0000       0.017271         0.4700
  17   0.0000       0.060170         1.6373
  18   0.0000       0.068834         1.8731
  19   0.0000       0.101228         2.7545

MULLIKEN ATOMIC CHARGES
-----------------------
   0 C :    0.075400
   1 O :   -0.077368
   2 C :    0.020528
   3 C :   -0.048964
   4 H :   -0.031008
   5 H :   -0.050965
   6 H :    0.060412
   7 H :    0.051965
Sum of atomic charges:   -0.0000000

LOEWDIN ATOMIC CHARGES
----------------------
   0 C :   -0.084782
   1 O :    0.106311
   2 C :   -0.034074
   3 C :   -0.035623
   4 H :   -0.021805
   5 H :   -0.022223
   6 H :    0.056641
   7 H :    0.035555

  Mayer bond orders larger than 0.100000
B(  0-C ,  1-O ) :   2.3081 B(  0-C ,  2-C ) :   0.9599 B(  0-C ,  4-H ) :   0.8399
B(  2-C ,  3-C ) :   1.9638 B(  2-C ,  5-H ) :   0.9525 B(  3-C ,  6-H ) :   0.9301
B(  3-C ,  7-H ) :   0.9437

-----------------------------------------------------------------------------
         ABSORPTION SPECTRUM VIA TRANSITION ELECTRIC DIPOLE MOMENTS
-----------------------------------------------------------------------------
State   Energy    Wavelength  fosc         T2        TX        TY        TZ
        (cm-1)      (nm)                 (au**2)    (au)      (au)      (au)
-----------------------------------------------------------------------------
   1   35517.5    281.6   0.003087666   0.02862   0.14992   0.00574   0.07817

FINAL SINGLE POINT ENERGY      -191.575413533236

DIPOLE MOMENT
-------------
                                X             Y             Z
Electronic contribution:     -2.75127      -0.23835      -1.86973
Nuclear contribution   :      3.28463       0.52356       2.17750
                        -----------------------------------------
Total Dipole Moment    :      0.53336       0.28522       0.30777
                        -----------------------------------------
Magnitude (a.u.)       :      0.67863
Magnitude (Debye)      :      1.72495

Rotational constants in cm-1:     1.048116     0.162646     0.153587
Rotational constants in MHz : 31421.712227  4876.019282  4604.429090

                             ****ORCA TERMINATED NORMALLY****
TOTAL RUN TIME: 0 days 0 hours 3 minutes 9 seconds 144 msec
