                         Program Version 5.0.3 -  RELEASE  -
|  1> ! B3LYP cc-pVDZ
|  2> !TightSCF
|  3> %scf
|  4>  ConvForced true
|  5>  convergence tight
|  6>  MaxIter 500
|  7> end
|  8>
|  9> %tddft
| 10>  nroots 1
| 11> end
| 12>
| 13> # 	29451
| 14> * xyz 0 1
| 15> 		C   -0.649765  -0.464134  -0.031264
| 16> 		O   -0.581601  -1.609017   0.008834
| 17> 		C    0.630686   0.377815   0.016298
| 18> 		C    1.906985  -0.106520  -0.020041
| 19> 		H   -1.636754   0.198833   0.083333
| 20> 		H    0.439389   1.462562   0.055561
| 21> 		H    2.178768  -1.143123   0.130781
| 22> 		H    2.688772   0.601977   0.007182
| 23> *
| 24>
| 25>                          ****END OF INPUT****

CARTESIAN COORDINATES (ANGSTROEM)
---------------------------------
  C     -0.649765   -0.464134   -0.031264
  O     -0.581601   -1.609017    0.008834
  C      0.630686    0.377815    0.016298
  C      1.906985   -0.106520   -0.020041
  H     -1.636754    0.198833    0.083333
  H      0.439389    1.462562    0.055561
  H      2.178768   -1.143123    0.130781
  H      2.688772    0.601977    0.007182

 Total Charge           Charge          ....    0
 Multiplicity           Mult            ....    1
 Number of Electrons    NEL             ....   30
 Basis Dimension        Dim             ....   76

ORBITAL ENERGIES
----------------

  NO   OCC          E(Eh)            E(eV)
   0   2.0000     -19.145820      -520.9843
   1   2.0000     -10.281700      -279.7793
   2   2.0000     -10.208284      -277.7815
   3   2.0000     -10.205266      -277.6994
   4   2.0000      -1.088833       -29.6286
   5   2.0000      -0.778710       -21.1898
   6   2.0000      -0.647372       -17.6159
   7   2.0000      -0.536730       -14.6052
   8   2.0000      -0.500828       -13.6282
   9   2.0000      -0.456718       -12.4279
  10   2.0000      -0.428145       -11.6504
  11   2.0000      -0.420404       -11.4398
  12   2.0000      -0.387268       -10.5381
  13   2.0000      -0.281760        -7.6671
  14   2.0000      -0.255217        -6.9448
  15   0.0000      -0.063627        -1.7314
  16   0.0000       0.059544         1.6203
  17   0.0000       0.067579         1.8389
  18   0.0000       0.091972         2.5027
  19   0.0000       0.116951         3.1824

MULLIKEN ATOMIC CHARGES
-----------------------
   0 C :    0.144462
   1 O :   -0.119049
   2 C :   -0.138866
   3 C :    0.083958
   4 H :   -0.021647
   5 H :   -0.007993
   6 H :    0.034612
   7 H :    0.024523
Sum of atomic charges:   -0.0000000

LOEWDIN ATOMIC CHARGES
----------------------
   0 C :   -0.078034
   1 O :    0.067654
   2 C :   -0.077023
   3 C :    0.017367
   4 H :   -0.008321
   5 H :    0.022958
   6 H :    0.030657
   7 H :    0.024741

  Mayer bond orders larger than 0.100000
B(  0-C ,  1-O ) :   2.2829 B(  0-C ,  2-C ) :   1.0057 B(  0-C ,  4-H ) :   0.8812
B(  2-C ,  3-C ) :   1.9852 B(  2-C ,  5-H ) :   0.9385 B(  3-C ,  6-H ) :   0.9466
B(  3-C ,  7-H ) :   0.9408

-----------------------------------------------------------------------------
         ABSORPTION SPECTRUM VIA TRANSITION ELECTRIC DIPOLE MOMENTS
-----------------------------------------------------------------------------
State   Energy    Wavelength  fosc         T2        TX        TY        TZ
        (cm-1)      (nm)                 (au**2)    (au)      (au)      (au)
-----------------------------------------------------------------------------
   1   29770.3    335.9   0.000172148   0.00190  -0.03203   0.01771   0.02375

FINAL SINGLE POINT ENERGY      -191.656878252523

DIPOLE MOMENT
-------------
                                X             Y             Z
Electronic contribution:     -1.96546      -2.12225      -0.22937
Nuclear contribution   :      2.28756       2.83686       0.25988
                        -----------------------------------------
Total Dipole Moment    :      0.32210       0.71461       0.03051
                        -----------------------------------------
Magnitude (a.u.)       :      0.78444
Magnitude (Debye)      :      1.99389

Rotational constants in cm-1:     0.775493     0.200997     0.159771
Rotational constants in MHz : 23248.696301  6025.751250  4789.821595

                             ****ORCA TERMINATED NORMALLY****
TOTAL RUN TIME: 0 days 0 hours 3 minutes 12 seconds 14 msec
