                         Program Version 5.0.3 -  RELEASE  -
|  1> ! B3LYP cc-pVDZ
|  2> !TightSCF
|  3> %scf
|  4>  ConvForced true
|  5>  convergence tight
|  6>  MaxIter 500
|  7> end
|  8>
|  9> %tddft
| 10>  nroots 1
| 11> end
| 12>
| 13> # 	2125
| 14> * xyz 0 1
| 15> 		C   -1.165925  -0.338952   0.041402
| 16> 		O   -1.364548  -1.382591   0.620316
| 17> 		C    0.074169   0.538952   0.142119
| 18> 		C    1.278327   0.006899  -0.107819
| 19> 		H   -2.045691   0.048105  -0.600618
| 20> 		H   -0.165011   1.428334   0.442552
| 21> 		H    1.288900  -1.051738  -0.554715
| 22> 		H    2.120980   0.733962   0.035511
| 23> *
| 24>
| 25>                          ****END OF INPUT****

CARTESIAN COORDINATES (ANGSTROEM)
---------------------------------
  C     -1.165925   -0.338952    0.041402
  O     -1.364548   -1.382591    0.620316
  C      0.074169    0.538952    0.142119
  C      1.278327    0.006899   -0.107819
  H     -2.045691    0.048105   -0.600618
  H     -0.165011    1.428334    0.442552
  H      1.288900   -1.051738   -0.554715
  H      2.120980    0.733962    0.035511

 Total Charge           Charge          ....    0
 Multiplicity           Mult            ....    1
 Number of Electrons    NEL             ....   30
 Basis Dimension        Dim             ....   76

ORBITAL ENERGIES
----------------

  NO   OCC          E(Eh)            E(eV)
   0   2.0000     -19.142034      -520.8812
   1   2.0000     -10.279723      -279.7255
   2   2.0000     -10.218597      -278.0622
   3   2.0000     -10.199408      -277.5400
   4   2.0000      -1.048157       -28.5218
   5   2.0000      -0.796973       -21.6867
   6   2.0000      -0.647635       -17.6231
   7   2.0000      -0.553138       -15.0516
   8   2.0000      -0.502354       -13.6698
   9   2.0000      -0.441940       -12.0258
  10   2.0000      -0.436562       -11.8795
  11   2.0000      -0.395481       -10.7616
  12   2.0000      -0.382065       -10.3965
  13   2.0000      -0.289052        -7.8655
  14   2.0000      -0.250282        -6.8105
  15   0.0000      -0.046991        -1.2787
  16   0.0000       0.011161         0.3037
  17   0.0000       0.073751         2.0069
  18   0.0000       0.082661         2.2493
  19   0.0000       0.111078         3.0226

MULLIKEN ATOMIC CHARGES
-----------------------
   0 C :    0.125100
   1 O :   -0.180634
   2 C :    0.001333
   3 C :    0.023548
   4 H :   -0.014900
   5 H :   -0.049672
   6 H :    0.052438
   7 H :    0.042786
Sum of atomic charges:    0.0000000

LOEWDIN ATOMIC CHARGES
----------------------
   0 C :   -0.022920
   1 O :    0.001141
   2 C :   -0.043100
   3 C :   -0.013126
   4 H :   -0.007338
   5 H :   -0.006936
   6 H :    0.050484
   7 H :    0.041795

  Mayer bond orders larger than 0.100000
B(  0-C ,  1-O ) :   2.2201 B(  0-C ,  2-C ) :   0.9939 B(  0-C ,  4-H ) :   0.9049
B(  2-C ,  3-C ) :   1.9986 B(  2-C ,  5-H ) :   0.9514 B(  3-C ,  6-H ) :   0.9324
B(  3-C ,  7-H ) :   0.9399

-----------------------------------------------------------------------------
         ABSORPTION SPECTRUM VIA TRANSITION ELECTRIC DIPOLE MOMENTS
-----------------------------------------------------------------------------
State   Energy    Wavelength  fosc         T2        TX        TY        TZ
        (cm-1)      (nm)                 (au**2)    (au)      (au)      (au)
-----------------------------------------------------------------------------
   1   30957.1    323.0   0.000220893   0.00235   0.03911  -0.02507  -0.01382

FINAL SINGLE POINT ENERGY      -191.637846450639

DIPOLE MOMENT
-------------
                                X             Y             Z
Electronic contribution:     -1.93214      -1.50536       0.93752
Nuclear contribution   :      2.34011       2.30757      -1.30837
                        -----------------------------------------
Total Dipole Moment    :      0.40797       0.80220      -0.37085
                        -----------------------------------------
Magnitude (a.u.)       :      0.97340
Magnitude (Debye)      :      2.47418

Rotational constants in cm-1:     0.840769     0.183678     0.159020
Rotational constants in MHz : 25205.624791  5506.532468  4767.308418

                             ****ORCA TERMINATED NORMALLY****
TOTAL RUN TIME: 0 days 0 hours 3 minutes 19 seconds 990 msec
