                         Program Version 5.0.3 -  RELEASE  -
|  1> ! B3LYP cc-pVDZ
|  2> !TightSCF
|  3> %scf
|  4>  ConvForced true
|  5>  convergence tight
|  6>  MaxIter 500
|  7> end
|  8>
|  9> %tddft
| 10>  nroots 1
| 11> end
| 12>
| 13> # 	16633
| 14> * xyz 0 1
| 15> 		C   -1.161210  -0.350873  -0.083972
| 16> 		O   -1.827990  -0.961011  -0.926557
| 17> 		C    0.004188   0.467243  -0.197457
| 18> 		C    1.196648   0.009933   0.195374
| 19> 		H   -1.606871  -0.495600   1.126436
| 20> 		H   -0.011775   1.313114  -0.877878
| 21> 		H    1.470506  -0.674108   0.752281
| 22> 		H    1.948298   0.650400   0.002973
| 23> *
| 24>
| 25>                          ****END OF INPUT****

CARTESIAN COORDINATES (ANGSTROEM)
---------------------------------
  C     -1.161210   -0.350873   -0.083972
  O     -1.827990   -0.961011   -0.926557
  C      0.004188    0.467243   -0.197457
  C      1.196648    0.009933    0.195374
  H     -1.606871   -0.495600    1.126436
  H     -0.011775    1.313114   -0.877878
  H      1.470506   -0.674108    0.752281
  H      1.948298    0.650400    0.002973

 Total Charge           Charge          ....    0
 Multiplicity           Mult            ....    1
 Number of Electrons    NEL             ....   30
 Basis Dimension        Dim             ....   76

ORBITAL ENERGIES
----------------

  NO   OCC          E(Eh)            E(eV)
   0   2.0000     -19.147157      -521.0206
   1   2.0000     -10.292456      -280.0720
   2   2.0000     -10.216858      -278.0148
   3   2.0000     -10.195457      -277.4325
   4   2.0000      -1.037377       -28.2285
   5   2.0000      -0.820179       -22.3182
   6   2.0000      -0.678537       -18.4639
   7   2.0000      -0.568320       -15.4648
   8   2.0000      -0.483380       -13.1534
   9   2.0000      -0.478576       -13.0227
  10   2.0000      -0.437745       -11.9116
  11   2.0000      -0.405814       -11.0428
  12   2.0000      -0.371101       -10.0982
  13   2.0000      -0.296015        -8.0550
  14   2.0000      -0.251038        -6.8311
  15   0.0000      -0.057013        -1.5514
  16   0.0000      -0.006761        -0.1840
  17   0.0000       0.075000         2.0408
  18   0.0000       0.084803         2.3076
  19   0.0000       0.113150         3.0790

MULLIKEN ATOMIC CHARGES
-----------------------
   0 C :    0.125162
   1 O :   -0.190296
   2 C :   -0.071207
   3 C :    0.190160
   4 H :   -0.020023
   5 H :    0.024116
   6 H :   -0.058287
   7 H :    0.000376
Sum of atomic charges:    0.0000000

LOEWDIN ATOMIC CHARGES
----------------------
   0 C :   -0.023256
   1 O :   -0.016883
   2 C :   -0.047456
   3 C :    0.051192
   4 H :   -0.009629
   5 H :    0.045714
   6 H :   -0.022932
   7 H :    0.023250

  Mayer bond orders larger than 0.100000
B(  0-C ,  1-O ) :   2.2003 B(  0-C ,  2-C ) :   1.0191 B(  0-C ,  4-H ) :   0.8766
B(  2-C ,  3-C ) :   2.0118 B(  2-C ,  5-H ) :   0.9216 B(  3-C ,  6-H ) :   0.9612
B(  3-C ,  7-H ) :   0.9413

-----------------------------------------------------------------------------
         ABSORPTION SPECTRUM VIA TRANSITION ELECTRIC DIPOLE MOMENTS
-----------------------------------------------------------------------------
State   Energy    Wavelength  fosc         T2        TX        TY        TZ
        (cm-1)      (nm)                 (au**2)    (au)      (au)      (au)
-----------------------------------------------------------------------------
   1   29636.6    337.4   0.000116254   0.00129   0.00669  -0.02073   0.02858

FINAL SINGLE POINT ENERGY      -191.608363629504

DIPOLE MOMENT
-------------
                                X             Y             Z
Electronic contribution:     -2.58279      -1.03627      -1.49735
Nuclear contribution   :      3.47324       1.60802       1.92568
                        -----------------------------------------
Total Dipole Moment    :      0.89045       0.57175       0.42833
                        -----------------------------------------
Magnitude (a.u.)       :      1.14161
Magnitude (Debye)      :      2.90173

Rotational constants in cm-1:     1.147260     0.158846     0.155387
Rotational constants in MHz : 34393.984429  4762.091443  4658.387202

                             ****ORCA TERMINATED NORMALLY****
TOTAL RUN TIME: 0 days 0 hours 2 minutes 51 seconds 285 msec
