                         Program Version 5.0.3 -  RELEASE  -
|  1> ! HF-3c
|  2> !TightSCF
|  3> %scf
|  4>  ConvForced true
|  5>  convergence tight
|  6>  MaxIter 500
|  7> end
|  8>
|  9> %tddft
| 10>  nroots 1
| 11> end
| 12>
| 13> # 	9439
| 14> * xyz 0 1
| 15> 		C   -1.116779  -0.347372  -0.143635
| 16> 		O   -2.172965  -0.293816  -0.748264
| 17> 		C    0.058068   0.442106  -0.355883
| 18> 		C    1.184349   0.135319   0.316024
| 19> 		H   -1.131687  -1.050725   0.769662
| 20> 		H    0.027621   1.153259  -1.152026
| 21> 		H    1.008583  -0.897056   1.060675
| 22> 		H    2.086336   0.792382   0.268507
| 23> *
| 24>
| 25>                          ****END OF INPUT****

CARTESIAN COORDINATES (ANGSTROEM)
---------------------------------
  C     -1.116779   -0.347372   -0.143635
  O     -2.172965   -0.293816   -0.748264
  C      0.058068    0.442106   -0.355883
  C      1.184349    0.135319    0.316024
  H     -1.131687   -1.050725    0.769662
  H      0.027621    1.153259   -1.152026
  H      1.008583   -0.897056    1.060675
  H      2.086336    0.792382    0.268507

 Total Charge           Charge          ....    0
 Multiplicity           Mult            ....    1
 Number of Electrons    NEL             ....   30
 Basis Dimension        Dim             ....   24

ORBITAL ENERGIES
----------------

  NO   OCC          E(Eh)            E(eV)
   0   2.0000     -20.348679      -553.7157
   1   2.0000     -11.285551      -307.0955
   2   2.0000     -11.196832      -304.6813
   3   2.0000     -11.186664      -304.4046
   4   2.0000      -1.386817       -37.7372
   5   2.0000      -1.086598       -29.5678
   6   2.0000      -0.866405       -23.5761
   7   2.0000      -0.765808       -20.8387
   8   2.0000      -0.649421       -17.6716
   9   2.0000      -0.638773       -17.3819
  10   2.0000      -0.561819       -15.2879
  11   2.0000      -0.536304       -14.5936
  12   2.0000      -0.519465       -14.1354
  13   2.0000      -0.404348       -11.0029
  14   2.0000      -0.386241       -10.5102
  15   0.0000       0.127874         3.4796
  16   0.0000       0.314525         8.5587
  17   0.0000       0.439523        11.9600
  18   0.0000       0.574040        15.6204
  19   0.0000       0.590646        16.0723

MULLIKEN ATOMIC CHARGES
-----------------------
   0 C :    0.162887
   1 O :   -0.358013
   2 C :   -0.199986
   3 C :   -0.186620
   4 H :    0.122798
   5 H :    0.155097
   6 H :    0.150550
   7 H :    0.153286
Sum of atomic charges:   -0.0000000

LOEWDIN ATOMIC CHARGES
----------------------
   0 C :    0.141726
   1 O :   -0.267549
   2 C :   -0.152962
   3 C :   -0.103659
   4 H :    0.065945
   5 H :    0.099041
   6 H :    0.114198
   7 H :    0.103261

  Mayer bond orders larger than 0.100000
B(  0-C ,  1-O ) :   1.8848 B(  0-C ,  2-C ) :   1.0556 B(  0-C ,  4-H ) :   0.9222
B(  2-C ,  3-C ) :   1.9201 B(  2-C ,  5-H ) :   0.9529 B(  3-C ,  6-H ) :   0.9513
B(  3-C ,  7-H ) :   0.9610

-----------------------------------------------------------------------------
         ABSORPTION SPECTRUM VIA TRANSITION ELECTRIC DIPOLE MOMENTS
-----------------------------------------------------------------------------
State   Energy    Wavelength  fosc         T2        TX        TY        TZ
        (cm-1)      (nm)                 (au**2)    (au)      (au)      (au)
-----------------------------------------------------------------------------
   1   31919.7    313.3   0.000081833   0.00084   0.02536  -0.00332  -0.01378

Dispersion correction           -0.025823720
FINAL SINGLE POINT ENERGY      -189.312029014980

DIPOLE MOMENT
-------------
                                X             Y             Z
Electronic contribution:     -2.74700      -0.15217      -1.17384
Nuclear contribution   :      3.93559       0.12400       1.76567
                        -----------------------------------------
Total Dipole Moment    :      1.18860      -0.02817       0.59183
                        -----------------------------------------
Magnitude (a.u.)       :      1.32809
Magnitude (Debye)      :      3.37574

Rotational constants in cm-1:     1.527525     0.157581     0.143176
Rotational constants in MHz : 45794.047901  4724.155432  4292.304525

                             ****ORCA TERMINATED NORMALLY****
TOTAL RUN TIME: 0 days 0 hours 0 minutes 11 seconds 339 msec
