                         Program Version 5.0.3 -  RELEASE  -
|  1> ! B3LYP cc-pVDZ
|  2> !TightSCF
|  3> %scf
|  4>  ConvForced true
|  5>  convergence tight
|  6>  MaxIter 500
|  7> end
|  8>
|  9> %tddft
| 10>  nroots 1
| 11> end
| 12>
| 13> # 	16174
| 14> * xyz 0 1
| 15> 		C   -1.184001  -0.298235   0.010583
| 16> 		O   -1.921304  -0.699709  -0.798128
| 17> 		C    0.033328   0.493376  -0.271130
| 18> 		C    1.259390   0.020647   0.167367
| 19> 		H   -1.220384  -0.521663   0.900487
| 20> 		H   -0.116904   1.414224  -0.913125
| 21> 		H    1.163776  -0.943666   0.835359
| 22> 		H    2.023754   0.542923   0.043929
| 23> *
| 24>
| 25>                          ****END OF INPUT****

CARTESIAN COORDINATES (ANGSTROEM)
---------------------------------
  C     -1.184001   -0.298235    0.010583
  O     -1.921304   -0.699709   -0.798128
  C      0.033328    0.493376   -0.271130
  C      1.259390    0.020647    0.167367
  H     -1.220384   -0.521663    0.900487
  H     -0.116904    1.414224   -0.913125
  H      1.163776   -0.943666    0.835359
  H      2.023754    0.542923    0.043929

 Total Charge           Charge          ....    0
 Multiplicity           Mult            ....    1
 Number of Electrons    NEL             ....   30
 Basis Dimension        Dim             ....   76

ORBITAL ENERGIES
----------------

  NO   OCC          E(Eh)            E(eV)
   0   2.0000     -19.138588      -520.7875
   1   2.0000     -10.256277      -279.0875
   2   2.0000     -10.207989      -277.7735
   3   2.0000     -10.207454      -277.7589
   4   2.0000      -1.073172       -29.2025
   5   2.0000      -0.793697       -21.5976
   6   2.0000      -0.670105       -18.2345
   7   2.0000      -0.587013       -15.9734
   8   2.0000      -0.491173       -13.3655
   9   2.0000      -0.471445       -12.8287
  10   2.0000      -0.437728       -11.9112
  11   2.0000      -0.407111       -11.0781
  12   2.0000      -0.380597       -10.3566
  13   2.0000      -0.280813        -7.6413
  14   2.0000      -0.254403        -6.9227
  15   0.0000      -0.052071        -1.4169
  16   0.0000       0.020301         0.5524
  17   0.0000       0.073104         1.9893
  18   0.0000       0.094768         2.5788
  19   0.0000       0.132010         3.5922

MULLIKEN ATOMIC CHARGES
-----------------------
   0 C :    0.284467
   1 O :   -0.161395
   2 C :   -0.161139
   3 C :    0.105440
   4 H :   -0.090698
   5 H :    0.022453
   6 H :    0.037558
   7 H :   -0.036686
Sum of atomic charges:   -0.0000000

LOEWDIN ATOMIC CHARGES
----------------------
   0 C :   -0.040181
   1 O :    0.058903
   2 C :   -0.035852
   3 C :    0.008412
   4 H :   -0.049570
   5 H :    0.037069
   6 H :    0.048715
   7 H :   -0.027497

  Mayer bond orders larger than 0.100000
B(  0-C ,  1-O ) :   2.2590 B(  0-C ,  2-C ) :   1.0250 B(  0-C ,  4-H ) :   0.9300
B(  2-C ,  3-C ) :   1.9801 B(  2-C ,  5-H ) :   0.9426 B(  3-C ,  6-H ) :   0.9440
B(  3-C ,  7-H ) :   0.9427

-----------------------------------------------------------------------------
         ABSORPTION SPECTRUM VIA TRANSITION ELECTRIC DIPOLE MOMENTS
-----------------------------------------------------------------------------
State   Energy    Wavelength  fosc         T2        TX        TY        TZ
        (cm-1)      (nm)                 (au**2)    (au)      (au)      (au)
-----------------------------------------------------------------------------
   1   31450.3    318.0   0.000961138   0.01006  -0.09201  -0.03133  -0.02476

FINAL SINGLE POINT ENERGY      -191.587955867357

DIPOLE MOMENT
-------------
                                X             Y             Z
Electronic contribution:     -2.90467      -0.63510      -1.11568
Nuclear contribution   :      3.56001       0.99586       1.67586
                        -----------------------------------------
Total Dipole Moment    :      0.65534       0.36076       0.56018
                        -----------------------------------------
Magnitude (a.u.)       :      0.93457
Magnitude (Debye)      :      2.37549

Rotational constants in cm-1:     1.226136     0.162697     0.154293
Rotational constants in MHz : 36758.627988  4877.544663  4625.581392

                             ****ORCA TERMINATED NORMALLY****
TOTAL RUN TIME: 0 days 0 hours 2 minutes 55 seconds 524 msec
