                         Program Version 5.0.3 -  RELEASE  -
|  1> ! B3LYP cc-pVDZ
|  2> !TightSCF
|  3> %scf
|  4>  ConvForced true
|  5>  convergence tight
|  6>  MaxIter 500
|  7> end
|  8>
|  9> %tddft
| 10>  nroots 1
| 11> end
| 12>
| 13> # 	26093
| 14> * xyz 0 1
| 15> 		C   -0.563807  -0.441850   0.030654
| 16> 		O   -0.606119  -1.663285  -0.015771
| 17> 		C    0.599626   0.399533  -0.036572
| 18> 		C    1.873905  -0.082538  -0.016335
| 19> 		H   -1.433320   0.247082   0.121611
| 20> 		H    0.520984   1.549024   0.024405
| 21> 		H    1.861367  -1.186380   0.209262
| 22> 		H    2.883402   0.524309   0.164911
| 23> *
| 24>
| 25>                          ****END OF INPUT****

CARTESIAN COORDINATES (ANGSTROEM)
---------------------------------
  C     -0.563807   -0.441850    0.030654
  O     -0.606119   -1.663285   -0.015771
  C      0.599626    0.399533   -0.036572
  C      1.873905   -0.082538   -0.016335
  H     -1.433320    0.247082    0.121611
  H      0.520984    1.549024    0.024405
  H      1.861367   -1.186380    0.209262
  H      2.883402    0.524309    0.164911

 Total Charge           Charge          ....    0
 Multiplicity           Mult            ....    1
 Number of Electrons    NEL             ....   30
 Basis Dimension        Dim             ....   76

ORBITAL ENERGIES
----------------

  NO   OCC          E(Eh)            E(eV)
   0   2.0000     -19.142603      -520.8967
   1   2.0000     -10.276777      -279.6453
   2   2.0000     -10.230006      -278.3726
   3   2.0000     -10.211625      -277.8724
   4   2.0000      -1.041453       -28.3394
   5   2.0000      -0.795953       -21.6590
   6   2.0000      -0.664010       -18.0686
   7   2.0000      -0.529762       -14.4156
   8   2.0000      -0.503288       -13.6952
   9   2.0000      -0.445588       -12.1251
  10   2.0000      -0.418070       -11.3763
  11   2.0000      -0.399400       -10.8682
  12   2.0000      -0.366240        -9.9659
  13   2.0000      -0.287456        -7.8221
  14   2.0000      -0.260448        -7.0871
  15   0.0000      -0.081454        -2.2165
  16   0.0000       0.049211         1.3391
  17   0.0000       0.061139         1.6637
  18   0.0000       0.086179         2.3451
  19   0.0000       0.122243         3.3264

MULLIKEN ATOMIC CHARGES
-----------------------
   0 C :    0.209116
   1 O :   -0.201644
   2 C :   -0.129489
   3 C :    0.003793
   4 H :   -0.018227
   5 H :    0.013111
   6 H :    0.055063
   7 H :    0.068276
Sum of atomic charges:   -0.0000000

LOEWDIN ATOMIC CHARGES
----------------------
   0 C :   -0.042711
   1 O :   -0.011780
   2 C :   -0.094615
   3 C :    0.015229
   4 H :   -0.002038
   5 H :    0.041014
   6 H :    0.040523
   7 H :    0.054379

  Mayer bond orders larger than 0.100000
B(  0-C ,  1-O ) :   2.1672 B(  0-C ,  2-C ) :   1.0832 B(  0-C ,  4-H ) :   0.9126
B(  1-O ,  3-C ) :   0.1011 B(  2-C ,  3-C ) :   1.9104 B(  2-C ,  5-H ) :   0.9430
B(  3-C ,  6-H ) :   0.9289 B(  3-C ,  7-H ) :   0.9427

-----------------------------------------------------------------------------
         ABSORPTION SPECTRUM VIA TRANSITION ELECTRIC DIPOLE MOMENTS
-----------------------------------------------------------------------------
State   Energy    Wavelength  fosc         T2        TX        TY        TZ
        (cm-1)      (nm)                 (au**2)    (au)      (au)      (au)
-----------------------------------------------------------------------------
   1   26707.2    374.4   0.000103599   0.00128  -0.01645  -0.01377  -0.02858

FINAL SINGLE POINT ENERGY      -191.668207635932

DIPOLE MOMENT
-------------
                                X             Y             Z
Electronic contribution:     -1.94034      -1.91813      -0.35295
Nuclear contribution   :      2.43718       2.85153       0.48748
                        -----------------------------------------
Total Dipole Moment    :      0.49684       0.93341       0.13453
                        -----------------------------------------
Magnitude (a.u.)       :      1.06593
Magnitude (Debye)      :      2.70937

Rotational constants in cm-1:     0.774403     0.201948     0.160548
Rotational constants in MHz : 23216.020706  6054.235789  4813.103865

                             ****ORCA TERMINATED NORMALLY****
TOTAL RUN TIME: 0 days 0 hours 3 minutes 22 seconds 879 msec
