                         Program Version 5.0.3 -  RELEASE  -
|  1> ! HF-3c
|  2> !TightSCF
|  3> %scf
|  4>  ConvForced true
|  5>  convergence tight
|  6>  MaxIter 500
|  7> end
|  8>
|  9> %tddft
| 10>  nroots 1
| 11> end
| 12>
| 13> # 	11959
| 14> * xyz 0 1
| 15> 		C   -1.152208  -0.429130  -0.065209
| 16> 		O   -2.264893  -0.214196  -0.610254
| 17> 		C    0.073421   0.313517  -0.475736
| 18> 		C    1.192557   0.143286   0.241653
| 19> 		H   -1.066192  -1.045040   0.842397
| 20> 		H   -0.035189   1.020098  -1.114699
| 21> 		H    1.234006  -0.626570   1.100573
| 22> 		H    2.060995   0.831142   0.090999
| 23> *
| 24>
| 25>                          ****END OF INPUT****

CARTESIAN COORDINATES (ANGSTROEM)
---------------------------------
  C     -1.152208   -0.429130   -0.065209
  O     -2.264893   -0.214196   -0.610254
  C      0.073421    0.313517   -0.475736
  C      1.192557    0.143286    0.241653
  H     -1.066192   -1.045040    0.842397
  H     -0.035189    1.020098   -1.114699
  H      1.234006   -0.626570    1.100573
  H      2.060995    0.831142    0.090999

 Total Charge           Charge          ....    0
 Multiplicity           Mult            ....    1
 Number of Electrons    NEL             ....   30
 Basis Dimension        Dim             ....   24

ORBITAL ENERGIES
----------------

  NO   OCC          E(Eh)            E(eV)
   0   2.0000     -20.351475      -553.7918
   1   2.0000     -11.285691      -307.0993
   2   2.0000     -11.199518      -304.7544
   3   2.0000     -11.195385      -304.6419
   4   2.0000      -1.365933       -37.1689
   5   2.0000      -1.090489       -29.6737
   6   2.0000      -0.872719       -23.7479
   7   2.0000      -0.798616       -21.7314
   8   2.0000      -0.661332       -17.9957
   9   2.0000      -0.643831       -17.5195
  10   2.0000      -0.571524       -15.5520
  11   2.0000      -0.546521       -14.8716
  12   2.0000      -0.522729       -14.2242
  13   2.0000      -0.415220       -11.2987
  14   2.0000      -0.392476       -10.6798
  15   0.0000       0.125036         3.4024
  16   0.0000       0.285756         7.7758
  17   0.0000       0.542193        14.7538
  18   0.0000       0.584851        15.9146
  19   0.0000       0.637248        17.3404

MULLIKEN ATOMIC CHARGES
-----------------------
   0 C :    0.157717
   1 O :   -0.343574
   2 C :   -0.199667
   3 C :   -0.199598
   4 H :    0.137484
   5 H :    0.153802
   6 H :    0.144811
   7 H :    0.149025
Sum of atomic charges:    0.0000000

LOEWDIN ATOMIC CHARGES
----------------------
   0 C :    0.149069
   1 O :   -0.263095
   2 C :   -0.141452
   3 C :   -0.107327
   4 H :    0.075772
   5 H :    0.088450
   6 H :    0.099158
   7 H :    0.099425

  Mayer bond orders larger than 0.100000
B(  0-C ,  1-O ) :   1.9006 B(  0-C ,  2-C ) :   1.0340 B(  0-C ,  4-H ) :   0.9308
B(  2-C ,  3-C ) :   1.9377 B(  2-C ,  5-H ) :   0.9607 B(  3-C ,  6-H ) :   0.9621
B(  3-C ,  7-H ) :   0.9628

-----------------------------------------------------------------------------
         ABSORPTION SPECTRUM VIA TRANSITION ELECTRIC DIPOLE MOMENTS
-----------------------------------------------------------------------------
State   Energy    Wavelength  fosc         T2        TX        TY        TZ
        (cm-1)      (nm)                 (au**2)    (au)      (au)      (au)
-----------------------------------------------------------------------------
   1   30582.4    327.0   0.000013232   0.00014   0.00260  -0.00573   0.01014

Dispersion correction           -0.025674445
FINAL SINGLE POINT ENERGY      -189.332859321301

DIPOLE MOMENT
-------------
                                X             Y             Z
Electronic contribution:     -3.06641      -0.43347      -1.08032
Nuclear contribution   :      4.21914       0.36114       1.68882
                        -----------------------------------------
Total Dipole Moment    :      1.15273      -0.07233       0.60849
                        -----------------------------------------
Magnitude (a.u.)       :      1.30548
Magnitude (Debye)      :      3.31828

Rotational constants in cm-1:     1.529602     0.153887     0.140124
Rotational constants in MHz : 45856.316602  4613.423853  4200.817878

                             ****ORCA TERMINATED NORMALLY****
TOTAL RUN TIME: 0 days 0 hours 0 minutes 10 seconds 110 msec
