                         Program Version 5.0.3 -  RELEASE  -
|  1> ! HF-3c
|  2> !TightSCF
|  3> %scf
|  4>  ConvForced true
|  5>  convergence tight
|  6>  MaxIter 500
|  7> end
|  8>
|  9> %tddft
| 10>  nroots 1
| 11> end
| 12>
| 13> # 	21047
| 14> * xyz 0 1
| 15> 		C   -0.609514  -0.387142  -0.030063
| 16> 		O   -0.558099  -1.657487   0.021353
| 17> 		C    0.582644   0.392905   0.017325
| 18> 		C    1.876168  -0.136657   0.003092
| 19> 		H   -1.521703   0.249010  -0.083485
| 20> 		H    0.454619   1.461989   0.053278
| 21> 		H    1.939632  -1.172920  -0.216771
| 22> 		H    2.886769   0.604293   0.031807
| 23> *
| 24>
| 25>                          ****END OF INPUT****

CARTESIAN COORDINATES (ANGSTROEM)
---------------------------------
  C     -0.609514   -0.387142   -0.030063
  O     -0.558099   -1.657487    0.021353
  C      0.582644    0.392905    0.017325
  C      1.876168   -0.136657    0.003092
  H     -1.521703    0.249010   -0.083485
  H      0.454619    1.461989    0.053278
  H      1.939632   -1.172920   -0.216771
  H      2.886769    0.604293    0.031807

 Total Charge           Charge          ....    0
 Multiplicity           Mult            ....    1
 Number of Electrons    NEL             ....   30
 Basis Dimension        Dim             ....   24

ORBITAL ENERGIES
----------------

  NO   OCC          E(Eh)            E(eV)
   0   2.0000     -20.336990      -553.3976
   1   2.0000     -11.279147      -306.9212
   2   2.0000     -11.192322      -304.5586
   3   2.0000     -11.175481      -304.1003
   4   2.0000      -1.351061       -36.7642
   5   2.0000      -1.059978       -28.8435
   6   2.0000      -0.895153       -24.3583
   7   2.0000      -0.733995       -19.9730
   8   2.0000      -0.684443       -18.6246
   9   2.0000      -0.597290       -16.2531
  10   2.0000      -0.558215       -15.1898
  11   2.0000      -0.521243       -14.1837
  12   2.0000      -0.514944       -14.0124
  13   2.0000      -0.412680       -11.2296
  14   2.0000      -0.363263        -9.8849
  15   0.0000       0.109480         2.9791
  16   0.0000       0.304283         8.2800
  17   0.0000       0.471739        12.8367
  18   0.0000       0.606628        16.5072
  19   0.0000       0.658730        17.9250

MULLIKEN ATOMIC CHARGES
-----------------------
   0 C :    0.136180
   1 O :   -0.349576
   2 C :   -0.191094
   3 C :   -0.182049
   4 H :    0.141183
   5 H :    0.132880
   6 H :    0.156332
   7 H :    0.156145
Sum of atomic charges:   -0.0000000

LOEWDIN ATOMIC CHARGES
----------------------
   0 C :    0.135993
   1 O :   -0.275830
   2 C :   -0.150731
   3 C :   -0.088886
   4 H :    0.080417
   5 H :    0.082557
   6 H :    0.099671
   7 H :    0.116809

  Mayer bond orders larger than 0.100000
B(  0-C ,  1-O ) :   1.8631 B(  0-C ,  2-C ) :   1.0865 B(  0-C ,  4-H ) :   0.9281
B(  2-C ,  3-C ) :   1.8871 B(  2-C ,  5-H ) :   0.9631 B(  3-C ,  6-H ) :   0.9611
B(  3-C ,  7-H ) :   0.9592

-----------------------------------------------------------------------------
         ABSORPTION SPECTRUM VIA TRANSITION ELECTRIC DIPOLE MOMENTS
-----------------------------------------------------------------------------
State   Energy    Wavelength  fosc         T2        TX        TY        TZ
        (cm-1)      (nm)                 (au**2)    (au)      (au)      (au)
-----------------------------------------------------------------------------
   1   28697.6    348.5   0.000012058   0.00014  -0.00754   0.00031  -0.00902

Dispersion correction           -0.025525116
FINAL SINGLE POINT ENERGY      -189.327140771576

DIPOLE MOMENT
-------------
                                X             Y             Z
Electronic contribution:     -1.91155      -1.82039       0.12412
Nuclear contribution   :      2.37139       2.85752      -0.20215
                        -----------------------------------------
Total Dipole Moment    :      0.45984       1.03712      -0.07803
                        -----------------------------------------
Magnitude (a.u.)       :      1.13718
Magnitude (Debye)      :      2.89047

Rotational constants in cm-1:     0.712512     0.208897     0.161785
Rotational constants in MHz : 21360.562121  6262.571461  4850.199026

                             ****ORCA TERMINATED NORMALLY****
TOTAL RUN TIME: 0 days 0 hours 0 minutes 16 seconds 59 msec
