                         Program Version 5.0.3 -  RELEASE  -
|  1> ! HF-3c
|  2> !TightSCF
|  3> %scf
|  4>  ConvForced true
|  5>  convergence tight
|  6>  MaxIter 500
|  7> end
|  8>
|  9> %tddft
| 10>  nroots 1
| 11> end
| 12>
| 13> # 	3390
| 14> * xyz 0 1
| 15> 		C   -1.190675  -0.273947  -0.007790
| 16> 		O   -1.676101  -1.063718   0.887367
| 17> 		C    0.023703   0.452979   0.285647
| 18> 		C    1.231082   0.054240  -0.200105
| 19> 		H   -1.605828  -0.323738  -1.110040
| 20> 		H   -0.074535   1.297737   0.862028
| 21> 		H    1.299782  -0.782856  -0.774165
| 22> 		H    2.000907   0.649736   0.002597
| 23> *
| 24>
| 25>                          ****END OF INPUT****

CARTESIAN COORDINATES (ANGSTROEM)
---------------------------------
  C     -1.190675   -0.273947   -0.007790
  O     -1.676101   -1.063718    0.887367
  C      0.023703    0.452979    0.285647
  C      1.231082    0.054240   -0.200105
  H     -1.605828   -0.323738   -1.110040
  H     -0.074535    1.297737    0.862028
  H      1.299782   -0.782856   -0.774165
  H      2.000907    0.649736    0.002597

 Total Charge           Charge          ....    0
 Multiplicity           Mult            ....    1
 Number of Electrons    NEL             ....   30
 Basis Dimension        Dim             ....   24

ORBITAL ENERGIES
----------------

  NO   OCC          E(Eh)            E(eV)
   0   2.0000     -20.352993      -553.8331
   1   2.0000     -11.283377      -307.0363
   2   2.0000     -11.204495      -304.8898
   3   2.0000     -11.191276      -304.5301
   4   2.0000      -1.352766       -36.8106
   5   2.0000      -1.092275       -29.7223
   6   2.0000      -0.902967       -24.5710
   7   2.0000      -0.775984       -21.1156
   8   2.0000      -0.685693       -18.6587
   9   2.0000      -0.641927       -17.4677
  10   2.0000      -0.597083       -16.2475
  11   2.0000      -0.568794       -15.4777
  12   2.0000      -0.470424       -12.8009
  13   2.0000      -0.419846       -11.4246
  14   2.0000      -0.398864       -10.8536
  15   0.0000       0.150284         4.0894
  16   0.0000       0.205146         5.5823
  17   0.0000       0.543591        14.7919
  18   0.0000       0.677006        18.4223
  19   0.0000       0.721360        19.6292

MULLIKEN ATOMIC CHARGES
-----------------------
   0 C :    0.146752
   1 O :   -0.328414
   2 C :   -0.158128
   3 C :   -0.260866
   4 H :    0.150438
   5 H :    0.155934
   6 H :    0.146298
   7 H :    0.147987
Sum of atomic charges:    0.0000000

LOEWDIN ATOMIC CHARGES
----------------------
   0 C :    0.141352
   1 O :   -0.256243
   2 C :   -0.100704
   3 C :   -0.156381
   4 H :    0.094140
   5 H :    0.096755
   6 H :    0.090804
   7 H :    0.090278

  Mayer bond orders larger than 0.100000
B(  0-C ,  1-O ) :   1.9291 B(  0-C ,  2-C ) :   1.0218 B(  0-C ,  4-H ) :   0.9186
B(  2-C ,  3-C ) :   1.9735 B(  2-C ,  5-H ) :   0.9524 B(  3-C ,  6-H ) :   0.9690
B(  3-C ,  7-H ) :   0.9674

-----------------------------------------------------------------------------
         ABSORPTION SPECTRUM VIA TRANSITION ELECTRIC DIPOLE MOMENTS
-----------------------------------------------------------------------------
State   Energy    Wavelength  fosc         T2        TX        TY        TZ
        (cm-1)      (nm)                 (au**2)    (au)      (au)      (au)
-----------------------------------------------------------------------------
   1   29524.7    338.7   0.000106800   0.00119   0.00761  -0.00620  -0.03308

Dispersion correction           -0.025456476
FINAL SINGLE POINT ENERGY      -189.317565156082

DIPOLE MOMENT
-------------
                                X             Y             Z
Electronic contribution:     -2.67438      -1.07151       1.17596
Nuclear contribution   :      3.13589       1.67156      -1.89115
                        -----------------------------------------
Total Dipole Moment    :      0.46151       0.60004      -0.71519
                        -----------------------------------------
Magnitude (a.u.)       :      1.04141
Magnitude (Debye)      :      2.64705

Rotational constants in cm-1:     0.988991     0.164176     0.161149
Rotational constants in MHz : 29649.208892  4921.868571  4831.113541

                             ****ORCA TERMINATED NORMALLY****
TOTAL RUN TIME: 0 days 0 hours 0 minutes 13 seconds 424 msec
