                         Program Version 5.0.3 -  RELEASE  -
|  1> ! B3LYP cc-pVDZ
|  2> !TightSCF
|  3> %scf
|  4>  ConvForced true
|  5>  convergence tight
|  6>  MaxIter 500
|  7> end
|  8>
|  9> %tddft
| 10>  nroots 1
| 11> end
| 12>
| 13> # 	12469
| 14> * xyz 0 1
| 15> 		C   -1.217447  -0.363989  -0.056112
| 16> 		O   -1.585414  -1.222221  -0.735114
| 17> 		C    0.012325   0.509112  -0.243852
| 18> 		C    1.213177   0.029920   0.166837
| 19> 		H   -1.612402  -0.256234   0.911920
| 20> 		H   -0.091073   1.472859  -0.650076
| 21> 		H    1.316662  -0.859341   0.649293
| 22> 		H    1.981535   0.681611  -0.015991
| 23> *
| 24>
| 25>                          ****END OF INPUT****

CARTESIAN COORDINATES (ANGSTROEM)
---------------------------------
  C     -1.217447   -0.363989   -0.056112
  O     -1.585414   -1.222221   -0.735114
  C      0.012325    0.509112   -0.243852
  C      1.213177    0.029920    0.166837
  H     -1.612402   -0.256234    0.911920
  H     -0.091073    1.472859   -0.650076
  H      1.316662   -0.859341    0.649293
  H      1.981535    0.681611   -0.015991

 Total Charge           Charge          ....    0
 Multiplicity           Mult            ....    1
 Number of Electrons    NEL             ....   30
 Basis Dimension        Dim             ....   76

ORBITAL ENERGIES
----------------

  NO   OCC          E(Eh)            E(eV)
   0   2.0000     -19.143655      -520.9253
   1   2.0000     -10.270458      -279.4734
   2   2.0000     -10.200445      -277.5682
   3   2.0000     -10.191521      -277.3254
   4   2.0000      -1.082594       -29.4589
   5   2.0000      -0.792784       -21.5728
   6   2.0000      -0.652290       -17.7497
   7   2.0000      -0.569614       -15.5000
   8   2.0000      -0.505764       -13.7625
   9   2.0000      -0.461930       -12.5698
  10   2.0000      -0.446240       -12.1428
  11   2.0000      -0.410251       -11.1635
  12   2.0000      -0.392221       -10.6729
  13   2.0000      -0.280767        -7.6401
  14   2.0000      -0.250980        -6.8295
  15   0.0000      -0.018133        -0.4934
  16   0.0000      -0.012394        -0.3373
  17   0.0000       0.088073         2.3966
  18   0.0000       0.107253         2.9185
  19   0.0000       0.115102         3.1321

MULLIKEN ATOMIC CHARGES
-----------------------
   0 C :    0.188552
   1 O :   -0.134104
   2 C :   -0.123172
   3 C :    0.113323
   4 H :   -0.034967
   5 H :   -0.004611
   6 H :   -0.009226
   7 H :    0.004204
Sum of atomic charges:    0.0000000

LOEWDIN ATOMIC CHARGES
----------------------
   0 C :   -0.052214
   1 O :    0.066430
   2 C :   -0.037183
   3 C :   -0.000579
   4 H :   -0.021066
   5 H :    0.019760
   6 H :    0.008086
   7 H :    0.016764

  Mayer bond orders larger than 0.100000
B(  0-C ,  1-O ) :   2.3012 B(  0-C ,  2-C ) :   0.9580 B(  0-C ,  4-H ) :   0.9156
B(  2-C ,  3-C ) :   2.0555 B(  2-C ,  5-H ) :   0.9418 B(  3-C ,  6-H ) :   0.9503
B(  3-C ,  7-H ) :   0.9447

-----------------------------------------------------------------------------
         ABSORPTION SPECTRUM VIA TRANSITION ELECTRIC DIPOLE MOMENTS
-----------------------------------------------------------------------------
State   Energy    Wavelength  fosc         T2        TX        TY        TZ
        (cm-1)      (nm)                 (au**2)    (au)      (au)      (au)
-----------------------------------------------------------------------------
   1   35539.3    281.4   0.000187931   0.00174   0.02277   0.02056  -0.02828

FINAL SINGLE POINT ENERGY      -191.612982914404

DIPOLE MOMENT
-------------
                                X             Y             Z
Electronic contribution:     -2.66068      -1.42397      -1.22942
Nuclear contribution   :      3.06269       2.05898       1.66609
                        -----------------------------------------
Total Dipole Moment    :      0.40200       0.63502       0.43668
                        -----------------------------------------
Magnitude (a.u.)       :      0.86922
Magnitude (Debye)      :      2.20938

Rotational constants in cm-1:     0.980778     0.172584     0.160410
Rotational constants in MHz : 29402.992267  5173.925855  4808.970981

                             ****ORCA TERMINATED NORMALLY****
TOTAL RUN TIME: 0 days 0 hours 2 minutes 58 seconds 462 msec
