                         Program Version 5.0.3 -  RELEASE  -
|  1> ! B3LYP cc-pVDZ
|  2> !TightSCF
|  3> %scf
|  4>  ConvForced true
|  5>  convergence tight
|  6>  MaxIter 500
|  7> end
|  8>
|  9> %tddft
| 10>  nroots 1
| 11> end
| 12>
| 13> # 	21735
| 14> * xyz 0 1
| 15> 		C   -0.623783  -0.436494  -0.081554
| 16> 		O   -0.572919  -1.651541   0.049379
| 17> 		C    0.680370   0.449621   0.047254
| 18> 		C    1.858816  -0.123378   0.014985
| 19> 		H   -1.676215   0.098798  -0.184384
| 20> 		H    0.316960   1.433007   0.173178
| 21> 		H    1.923009  -1.245658  -0.424501
| 22> 		H    2.650042   0.496122  -0.106256
| 23> *
| 24>
| 25>                          ****END OF INPUT****

CARTESIAN COORDINATES (ANGSTROEM)
---------------------------------
  C     -0.623783   -0.436494   -0.081554
  O     -0.572919   -1.651541    0.049379
  C      0.680370    0.449621    0.047254
  C      1.858816   -0.123378    0.014985
  H     -1.676215    0.098798   -0.184384
  H      0.316960    1.433007    0.173178
  H      1.923009   -1.245658   -0.424501
  H      2.650042    0.496122   -0.106256

 Total Charge           Charge          ....    0
 Multiplicity           Mult            ....    1
 Number of Electrons    NEL             ....   30
 Basis Dimension        Dim             ....   76

ORBITAL ENERGIES
----------------

  NO   OCC          E(Eh)            E(eV)
   0   2.0000     -19.143401      -520.9184
   1   2.0000     -10.284847      -279.8649
   2   2.0000     -10.208514      -277.7878
   3   2.0000     -10.207541      -277.7613
   4   2.0000      -1.041235       -28.3334
   5   2.0000      -0.793369       -21.5887
   6   2.0000      -0.646256       -17.5855
   7   2.0000      -0.536351       -14.5948
   8   2.0000      -0.501132       -13.6365
   9   2.0000      -0.443032       -12.0555
  10   2.0000      -0.429230       -11.6799
  11   2.0000      -0.392324       -10.6757
  12   2.0000      -0.371794       -10.1170
  13   2.0000      -0.293252        -7.9798
  14   2.0000      -0.252990        -6.8842
  15   0.0000      -0.065727        -1.7885
  16   0.0000       0.039327         1.0701
  17   0.0000       0.062652         1.7048
  18   0.0000       0.090969         2.4754
  19   0.0000       0.110612         3.0099

MULLIKEN ATOMIC CHARGES
-----------------------
   0 C :    0.125284
   1 O :   -0.190913
   2 C :   -0.076165
   3 C :    0.077618
   4 H :    0.003191
   5 H :   -0.022764
   6 H :    0.069616
   7 H :    0.014133
Sum of atomic charges:   -0.0000000

LOEWDIN ATOMIC CHARGES
----------------------
   0 C :   -0.019314
   1 O :   -0.014497
   2 C :   -0.059204
   3 C :   -0.002334
   4 H :    0.003085
   5 H :    0.015488
   6 H :    0.065234
   7 H :    0.011542

  Mayer bond orders larger than 0.100000
B(  0-C ,  1-O ) :   2.1841 B(  0-C ,  2-C ) :   0.9995 B(  0-C ,  4-H ) :   0.8973
B(  2-C ,  3-C ) :   1.9789 B(  2-C ,  5-H ) :   0.9593 B(  3-C ,  6-H ) :   0.9209
B(  3-C ,  7-H ) :   0.9337

-----------------------------------------------------------------------------
         ABSORPTION SPECTRUM VIA TRANSITION ELECTRIC DIPOLE MOMENTS
-----------------------------------------------------------------------------
State   Energy    Wavelength  fosc         T2        TX        TY        TZ
        (cm-1)      (nm)                 (au**2)    (au)      (au)      (au)
-----------------------------------------------------------------------------
   1   28134.3    355.4   0.000105917   0.00124  -0.02611   0.00954  -0.02160

FINAL SINGLE POINT ENERGY      -191.648152254170

DIPOLE MOMENT
-------------
                                X             Y             Z
Electronic contribution:     -1.61616      -1.62810       0.34024
Nuclear contribution   :      1.85891       2.52110      -0.50851
                        -----------------------------------------
Total Dipole Moment    :      0.24275       0.89300      -0.16827
                        -----------------------------------------
Magnitude (a.u.)       :      0.94058
Magnitude (Debye)      :      2.39077

Rotational constants in cm-1:     0.728094     0.203971     0.160565
Rotational constants in MHz : 21827.711919  6114.886192  4813.631256

                             ****ORCA TERMINATED NORMALLY****
TOTAL RUN TIME: 0 days 0 hours 3 minutes 21 seconds 497 msec
