                         Program Version 5.0.3 -  RELEASE  -
|  1> ! B3LYP cc-pVDZ
|  2> !TightSCF
|  3> %scf
|  4>  ConvForced true
|  5>  convergence tight
|  6>  MaxIter 500
|  7> end
|  8>
|  9> %tddft
| 10>  nroots 1
| 11> end
| 12>
| 13> # 	18054
| 14> * xyz 0 1
| 15> 		C   -1.222368  -0.380232  -0.115491
| 16> 		O   -1.741109  -0.957345  -0.934215
| 17> 		C    0.054686   0.444588  -0.224380
| 18> 		C    1.203565   0.049296   0.203720
| 19> 		H   -1.560218  -0.309235   0.894357
| 20> 		H   -0.102295   1.455701  -0.625022
| 21> 		H    1.329524  -0.949672   0.663830
| 22> 		H    2.029988   0.675091   0.120274
| 23> *
| 24>
| 25>                          ****END OF INPUT****

CARTESIAN COORDINATES (ANGSTROEM)
---------------------------------
  C     -1.222368   -0.380232   -0.115491
  O     -1.741109   -0.957345   -0.934215
  C      0.054686    0.444588   -0.224380
  C      1.203565    0.049296    0.203720
  H     -1.560218   -0.309235    0.894357
  H     -0.102295    1.455701   -0.625022
  H      1.329524   -0.949672    0.663830
  H      2.029988    0.675091    0.120274

 Total Charge           Charge          ....    0
 Multiplicity           Mult            ....    1
 Number of Electrons    NEL             ....   30
 Basis Dimension        Dim             ....   76

ORBITAL ENERGIES
----------------

  NO   OCC          E(Eh)            E(eV)
   0   2.0000     -19.147525      -521.0306
   1   2.0000     -10.272200      -279.5208
   2   2.0000     -10.193019      -277.3662
   3   2.0000     -10.190501      -277.2976
   4   2.0000      -1.101592       -29.9758
   5   2.0000      -0.798802       -21.7365
   6   2.0000      -0.648412       -17.6442
   7   2.0000      -0.559363       -15.2210
   8   2.0000      -0.497332       -13.5331
   9   2.0000      -0.473365       -12.8809
  10   2.0000      -0.454423       -12.3655
  11   2.0000      -0.411976       -11.2104
  12   2.0000      -0.383767       -10.4428
  13   2.0000      -0.290760        -7.9120
  14   2.0000      -0.251133        -6.8337
  15   0.0000      -0.019388        -0.5276
  16   0.0000       0.012862         0.3500
  17   0.0000       0.087777         2.3885
  18   0.0000       0.095946         2.6108
  19   0.0000       0.112814         3.0698

MULLIKEN ATOMIC CHARGES
-----------------------
   0 C :    0.183186
   1 O :   -0.107942
   2 C :   -0.139768
   3 C :    0.074169
   4 H :   -0.038977
   5 H :    0.009576
   6 H :    0.013323
   7 H :    0.006431
Sum of atomic charges:    0.0000000

LOEWDIN ATOMIC CHARGES
----------------------
   0 C :   -0.066957
   1 O :    0.097227
   2 C :   -0.061341
   3 C :   -0.033114
   4 H :   -0.021180
   5 H :    0.035102
   6 H :    0.030860
   7 H :    0.019401

  Mayer bond orders larger than 0.100000
B(  0-C ,  1-O ) :   2.3347 B(  0-C ,  2-C ) :   0.9552 B(  0-C ,  4-H ) :   0.9047
B(  2-C ,  3-C ) :   2.0806 B(  2-C ,  5-H ) :   0.9311 B(  3-C ,  6-H ) :   0.9394
B(  3-C ,  7-H ) :   0.9321

-----------------------------------------------------------------------------
         ABSORPTION SPECTRUM VIA TRANSITION ELECTRIC DIPOLE MOMENTS
-----------------------------------------------------------------------------
State   Energy    Wavelength  fosc         T2        TX        TY        TZ
        (cm-1)      (nm)                 (au**2)    (au)      (au)      (au)
-----------------------------------------------------------------------------
   1   36500.1    274.0   0.000048038   0.00043   0.01414   0.00279   0.01502

FINAL SINGLE POINT ENERGY      -191.612214710735

DIPOLE MOMENT
-------------
                                X             Y             Z
Electronic contribution:     -2.85656      -1.23157      -1.52422
Nuclear contribution   :      3.29434       1.68230       2.01743
                        -----------------------------------------
Total Dipole Moment    :      0.43778       0.45074       0.49322
                        -----------------------------------------
Magnitude (a.u.)       :      0.79880
Magnitude (Debye)      :      2.03038

Rotational constants in cm-1:     1.190362     0.162582     0.157525
Rotational constants in MHz : 35686.169903  4874.081164  4722.490905

                             ****ORCA TERMINATED NORMALLY****
TOTAL RUN TIME: 0 days 0 hours 3 minutes 22 seconds 862 msec
