                         Program Version 5.0.3 -  RELEASE  -
|  1> ! HF-3c
|  2> !TightSCF
|  3> %scf
|  4>  ConvForced true
|  5>  convergence tight
|  6>  MaxIter 500
|  7> end
|  8>
|  9> %tddft
| 10>  nroots 1
| 11> end
| 12>
| 13> # 	1609
| 14> * xyz 0 1
| 15> 		C   -1.208020  -0.337972   0.022832
| 16> 		O   -1.504417  -1.371625  -0.483335
| 17> 		C    0.051898   0.471020  -0.167673
| 18> 		C    1.256310   0.057442  -0.001631
| 19> 		H   -1.976699   0.225967   0.784112
| 20> 		H   -0.194861   1.411406  -0.504697
| 21> 		H    1.320073  -1.079924   0.380979
| 22> 		H    2.250956   0.618268  -0.045778
| 23> *
| 24>
| 25>                          ****END OF INPUT****

CARTESIAN COORDINATES (ANGSTROEM)
---------------------------------
  C     -1.208020   -0.337972    0.022832
  O     -1.504417   -1.371625   -0.483335
  C      0.051898    0.471020   -0.167673
  C      1.256310    0.057442   -0.001631
  H     -1.976699    0.225967    0.784112
  H     -0.194861    1.411406   -0.504697
  H      1.320073   -1.079924    0.380979
  H      2.250956    0.618268   -0.045778

 Total Charge           Charge          ....    0
 Multiplicity           Mult            ....    1
 Number of Electrons    NEL             ....   30
 Basis Dimension        Dim             ....   24

ORBITAL ENERGIES
----------------

  NO   OCC          E(Eh)            E(eV)
   0   2.0000     -20.380277      -554.5755
   1   2.0000     -11.302199      -307.5485
   2   2.0000     -11.189272      -304.4756
   3   2.0000     -11.187580      -304.4295
   4   2.0000      -1.419258       -38.6200
   5   2.0000      -1.085579       -29.5401
   6   2.0000      -0.874175       -23.7875
   7   2.0000      -0.736733       -20.0475
   8   2.0000      -0.688658       -18.7394
   9   2.0000      -0.627771       -17.0825
  10   2.0000      -0.608560       -16.5598
  11   2.0000      -0.532752       -14.4969
  12   2.0000      -0.508148       -13.8274
  13   2.0000      -0.415584       -11.3086
  14   2.0000      -0.396253       -10.7826
  15   0.0000       0.175924         4.7871
  16   0.0000       0.269388         7.3304
  17   0.0000       0.473281        12.8786
  18   0.0000       0.558620        15.2008
  19   0.0000       0.592771        16.1301

MULLIKEN ATOMIC CHARGES
-----------------------
   0 C :    0.199975
   1 O :   -0.356243
   2 C :   -0.198768
   3 C :   -0.210931
   4 H :    0.127478
   5 H :    0.142722
   6 H :    0.143877
   7 H :    0.151890
Sum of atomic charges:    0.0000000

LOEWDIN ATOMIC CHARGES
----------------------
   0 C :    0.162583
   1 O :   -0.251150
   2 C :   -0.149323
   3 C :   -0.128464
   4 H :    0.073341
   5 H :    0.087206
   6 H :    0.101559
   7 H :    0.104250

  Mayer bond orders larger than 0.100000
B(  0-C ,  1-O ) :   1.9511 B(  0-C ,  2-C ) :   0.9792 B(  0-C ,  4-H ) :   0.9018
B(  2-C ,  3-C ) :   1.9943 B(  2-C ,  5-H ) :   0.9509 B(  3-C ,  6-H ) :   0.9549
B(  3-C ,  7-H ) :   0.9580

-----------------------------------------------------------------------------
         ABSORPTION SPECTRUM VIA TRANSITION ELECTRIC DIPOLE MOMENTS
-----------------------------------------------------------------------------
State   Energy    Wavelength  fosc         T2        TX        TY        TZ
        (cm-1)      (nm)                 (au**2)    (au)      (au)      (au)
-----------------------------------------------------------------------------
   1   36072.4    277.2   0.000167823   0.00153  -0.03904   0.00274   0.00047

Dispersion correction           -0.025068433
FINAL SINGLE POINT ENERGY      -189.299462520673

DIPOLE MOMENT
-------------
                                X             Y             Z
Electronic contribution:     -2.26213      -1.54343      -0.71310
Nuclear contribution   :      2.73248       2.32403       1.16571
                        -----------------------------------------
Total Dipole Moment    :      0.47035       0.78060       0.45261
                        -----------------------------------------
Magnitude (a.u.)       :      1.01756
Magnitude (Debye)      :      2.58643

Rotational constants in cm-1:     0.921475     0.177321     0.155832
Rotational constants in MHz : 27625.117587  5315.959475  4671.731891

                             ****ORCA TERMINATED NORMALLY****
TOTAL RUN TIME: 0 days 0 hours 0 minutes 11 seconds 617 msec
