                         Program Version 5.0.3 -  RELEASE  -
|  1> ! HF-3c
|  2> !TightSCF
|  3> %scf
|  4>  ConvForced true
|  5>  convergence tight
|  6>  MaxIter 500
|  7> end
|  8>
|  9> %tddft
| 10>  nroots 1
| 11> end
| 12>
| 13> # 	23682
| 14> * xyz 0 1
| 15> 		C   -0.586493  -0.426732   0.000862
| 16> 		O   -0.479327  -1.531605   0.001282
| 17> 		C    0.581306   0.448278   0.036834
| 18> 		C    1.798741  -0.239811  -0.038298
| 19> 		H   -1.700674   0.020974  -0.160875
| 20> 		H    0.435668   1.420428  -0.016718
| 21> 		H    1.801165  -1.498370   0.152641
| 22> 		H    2.613943   0.221580   0.011930
| 23> *
| 24>
| 25>                          ****END OF INPUT****

CARTESIAN COORDINATES (ANGSTROEM)
---------------------------------
  C     -0.586493   -0.426732    0.000862
  O     -0.479327   -1.531605    0.001282
  C      0.581306    0.448278    0.036834
  C      1.798741   -0.239811   -0.038298
  H     -1.700674    0.020974   -0.160875
  H      0.435668    1.420428   -0.016718
  H      1.801165   -1.498370    0.152641
  H      2.613943    0.221580    0.011930

 Total Charge           Charge          ....    0
 Multiplicity           Mult            ....    1
 Number of Electrons    NEL             ....   30
 Basis Dimension        Dim             ....   24

ORBITAL ENERGIES
----------------

  NO   OCC          E(Eh)            E(eV)
   0   2.0000     -20.379616      -554.5575
   1   2.0000     -11.313949      -307.8682
   2   2.0000     -11.192215      -304.5557
   3   2.0000     -11.179801      -304.2178
   4   2.0000      -1.479993       -40.2727
   5   2.0000      -1.067551       -29.0496
   6   2.0000      -0.888174       -24.1684
   7   2.0000      -0.747366       -20.3369
   8   2.0000      -0.726681       -19.7740
   9   2.0000      -0.617595       -16.8056
  10   2.0000      -0.607468       -16.5300
  11   2.0000      -0.586882       -15.9699
  12   2.0000      -0.526426       -14.3248
  13   2.0000      -0.395513       -10.7625
  14   2.0000      -0.381300       -10.3757
  15   0.0000       0.135128         3.6770
  16   0.0000       0.321906         8.7595
  17   0.0000       0.468797        12.7566
  18   0.0000       0.545350        14.8397
  19   0.0000       0.725635        19.7455

MULLIKEN ATOMIC CHARGES
-----------------------
   0 C :    0.206612
   1 O :   -0.387277
   2 C :   -0.196013
   3 C :   -0.201649
   4 H :    0.122308
   5 H :    0.139937
   6 H :    0.183149
   7 H :    0.132933
Sum of atomic charges:    0.0000000

LOEWDIN ATOMIC CHARGES
----------------------
   0 C :    0.149723
   1 O :   -0.256919
   2 C :   -0.149332
   3 C :   -0.103171
   4 H :    0.065064
   5 H :    0.081084
   6 H :    0.140786
   7 H :    0.072764

  Mayer bond orders larger than 0.100000
B(  0-C ,  1-O ) :   1.9093 B(  0-C ,  2-C ) :   1.0135 B(  0-C ,  4-H ) :   0.9004
B(  2-C ,  3-C ) :   1.9300 B(  2-C ,  5-H ) :   0.9676 B(  3-C ,  6-H ) :   0.9465
B(  3-C ,  7-H ) :   0.9743

-----------------------------------------------------------------------------
         ABSORPTION SPECTRUM VIA TRANSITION ELECTRIC DIPOLE MOMENTS
-----------------------------------------------------------------------------
State   Energy    Wavelength  fosc         T2        TX        TY        TZ
        (cm-1)      (nm)                 (au**2)    (au)      (au)      (au)
-----------------------------------------------------------------------------
   1   37499.9    266.7   0.000138098   0.00121   0.02336  -0.00013  -0.02582

Dispersion correction           -0.026540083
FINAL SINGLE POINT ENERGY      -189.226013373119

DIPOLE MOMENT
-------------
                                X             Y             Z
Electronic contribution:     -1.56653      -1.31189       0.02258
Nuclear contribution   :      1.80258       1.94348      -0.01221
                        -----------------------------------------
Total Dipole Moment    :      0.23605       0.63159       0.01038
                        -----------------------------------------
Magnitude (a.u.)       :      0.67434
Magnitude (Debye)      :      1.71403

Rotational constants in cm-1:     0.712475     0.242490     0.181242
Rotational constants in MHz : 21359.448384  7269.671663  5433.502871

                             ****ORCA TERMINATED NORMALLY****
TOTAL RUN TIME: 0 days 0 hours 0 minutes 11 seconds 913 msec
