                         Program Version 5.0.3 -  RELEASE  -
|  1> ! HF-3c
|  2> !TightSCF
|  3> %scf
|  4>  ConvForced true
|  5>  convergence tight
|  6>  MaxIter 500
|  7> end
|  8>
|  9> %tddft
| 10>  nroots 1
| 11> end
| 12>
| 13> # 	2549
| 14> * xyz 0 1
| 15> 		C   -1.208028  -0.349048  -0.063562
| 16> 		O   -1.472104  -1.273256  -0.680768
| 17> 		C    0.030819   0.490241  -0.188438
| 18> 		C    1.240771  -0.032834   0.078110
| 19> 		H   -1.956676   0.009621   0.797215
| 20> 		H   -0.032942   1.550145  -0.401694
| 21> 		H    1.411075  -1.061554   0.478836
| 22> 		H    1.991904   0.664990   0.022242
| 23> *
| 24>
| 25>                          ****END OF INPUT****

CARTESIAN COORDINATES (ANGSTROEM)
---------------------------------
  C     -1.208028   -0.349048   -0.063562
  O     -1.472104   -1.273256   -0.680768
  C      0.030819    0.490241   -0.188438
  C      1.240771   -0.032834    0.078110
  H     -1.956676    0.009621    0.797215
  H     -0.032942    1.550145   -0.401694
  H      1.411075   -1.061554    0.478836
  H      1.991904    0.664990    0.022242

 Total Charge           Charge          ....    0
 Multiplicity           Mult            ....    1
 Number of Electrons    NEL             ....   30
 Basis Dimension        Dim             ....   24

ORBITAL ENERGIES
----------------

  NO   OCC          E(Eh)            E(eV)
   0   2.0000     -20.395254      -554.9831
   1   2.0000     -11.316268      -307.9313
   2   2.0000     -11.187387      -304.4243
   3   2.0000     -11.181439      -304.2624
   4   2.0000      -1.459197       -39.7068
   5   2.0000      -1.077123       -29.3100
   6   2.0000      -0.877493       -23.8778
   7   2.0000      -0.747000       -20.3269
   8   2.0000      -0.706096       -19.2139
   9   2.0000      -0.632834       -17.2203
  10   2.0000      -0.615807       -16.7570
  11   2.0000      -0.562166       -15.2973
  12   2.0000      -0.537467       -14.6252
  13   2.0000      -0.407808       -11.0970
  14   2.0000      -0.391447       -10.6518
  15   0.0000       0.178054         4.8451
  16   0.0000       0.253119         6.8877
  17   0.0000       0.533782        14.5249
  18   0.0000       0.613627        16.6977
  19   0.0000       0.637792        17.3552

MULLIKEN ATOMIC CHARGES
-----------------------
   0 C :    0.204489
   1 O :   -0.361076
   2 C :   -0.164656
   3 C :   -0.244389
   4 H :    0.124417
   5 H :    0.149228
   6 H :    0.151816
   7 H :    0.140171
Sum of atomic charges:   -0.0000000

LOEWDIN ATOMIC CHARGES
----------------------
   0 C :    0.157223
   1 O :   -0.239405
   2 C :   -0.122686
   3 C :   -0.147971
   4 H :    0.066821
   5 H :    0.096974
   6 H :    0.102664
   7 H :    0.086380

  Mayer bond orders larger than 0.100000
B(  0-C ,  1-O ) :   1.9535 B(  0-C ,  2-C ) :   0.9799 B(  0-C ,  4-H ) :   0.8978
B(  2-C ,  3-C ) :   1.9828 B(  2-C ,  5-H ) :   0.9548 B(  3-C ,  6-H ) :   0.9637
B(  3-C ,  7-H ) :   0.9668

-----------------------------------------------------------------------------
         ABSORPTION SPECTRUM VIA TRANSITION ELECTRIC DIPOLE MOMENTS
-----------------------------------------------------------------------------
State   Energy    Wavelength  fosc         T2        TX        TY        TZ
        (cm-1)      (nm)                 (au**2)    (au)      (au)      (au)
-----------------------------------------------------------------------------
   1   38604.9    259.0   0.000242273   0.00207   0.04541  -0.00137  -0.00155

Dispersion correction           -0.025190422
FINAL SINGLE POINT ENERGY      -189.293497067349

DIPOLE MOMENT
-------------
                                X             Y             Z
Electronic contribution:     -2.37322      -1.53072      -1.08126
Nuclear contribution   :      2.73987       2.27512       1.64263
                        -----------------------------------------
Total Dipole Moment    :      0.36665       0.74440       0.56137
                        -----------------------------------------
Magnitude (a.u.)       :      1.00185
Magnitude (Debye)      :      2.54649

Rotational constants in cm-1:     0.891360     0.183300     0.162170
Rotational constants in MHz : 26722.296541  5495.194145  4861.732202

                             ****ORCA TERMINATED NORMALLY****
TOTAL RUN TIME: 0 days 0 hours 0 minutes 16 seconds 58 msec
