                         Program Version 5.0.3 -  RELEASE  -
|  1> ! HF-3c
|  2> !TightSCF
|  3> %scf
|  4>  ConvForced true
|  5>  convergence tight
|  6>  MaxIter 500
|  7> end
|  8>
|  9> %tddft
| 10>  nroots 1
| 11> end
| 12>
| 13> # 	8986
| 14> * xyz 0 1
| 15> 		C   -1.227626  -0.310953  -0.021643
| 16> 		O   -1.304361  -1.433440  -0.496240
| 17> 		C    0.026346   0.519847  -0.244500
| 18> 		C    1.247864  -0.002562   0.137649
| 19> 		H   -2.090986   0.146652   0.522739
| 20> 		H   -0.240257   1.528178  -0.306327
| 21> 		H    1.539575  -1.096642   0.343602
| 22> 		H    2.061566   0.674324   0.108781
| 23> *
| 24>
| 25>                          ****END OF INPUT****

CARTESIAN COORDINATES (ANGSTROEM)
---------------------------------
  C     -1.227626   -0.310953   -0.021643
  O     -1.304361   -1.433440   -0.496240
  C      0.026346    0.519847   -0.244500
  C      1.247864   -0.002562    0.137649
  H     -2.090986    0.146652    0.522739
  H     -0.240257    1.528178   -0.306327
  H      1.539575   -1.096642    0.343602
  H      2.061566    0.674324    0.108781

 Total Charge           Charge          ....    0
 Multiplicity           Mult            ....    1
 Number of Electrons    NEL             ....   30
 Basis Dimension        Dim             ....   24

ORBITAL ENERGIES
----------------

  NO   OCC          E(Eh)            E(eV)
   0   2.0000     -20.355816      -553.9099
   1   2.0000     -11.285927      -307.1057
   2   2.0000     -11.188768      -304.4619
   3   2.0000     -11.185324      -304.3681
   4   2.0000      -1.388623       -37.7864
   5   2.0000      -1.058076       -28.7917
   6   2.0000      -0.882048       -24.0018
   7   2.0000      -0.752806       -20.4849
   8   2.0000      -0.686483       -18.6802
   9   2.0000      -0.610707       -16.6182
  10   2.0000      -0.594800       -16.1853
  11   2.0000      -0.539884       -14.6910
  12   2.0000      -0.510118       -13.8810
  13   2.0000      -0.403495       -10.9797
  14   2.0000      -0.383083       -10.4242
  15   0.0000       0.147155         4.0043
  16   0.0000       0.253883         6.9085
  17   0.0000       0.514548        14.0016
  18   0.0000       0.594181        16.1685
  19   0.0000       0.694250        18.8915

MULLIKEN ATOMIC CHARGES
-----------------------
   0 C :    0.160450
   1 O :   -0.352651
   2 C :   -0.169064
   3 C :   -0.216414
   4 H :    0.139438
   5 H :    0.141340
   6 H :    0.160102
   7 H :    0.136799
Sum of atomic charges:   -0.0000000

LOEWDIN ATOMIC CHARGES
----------------------
   0 C :    0.142979
   1 O :   -0.260877
   2 C :   -0.124405
   3 C :   -0.120343
   4 H :    0.078302
   5 H :    0.087463
   6 H :    0.111541
   7 H :    0.085341

  Mayer bond orders larger than 0.100000
B(  0-C ,  1-O ) :   1.9238 B(  0-C ,  2-C ) :   1.0046 B(  0-C ,  4-H ) :   0.9225
B(  2-C ,  3-C ) :   1.9578 B(  2-C ,  5-H ) :   0.9608 B(  3-C ,  6-H ) :   0.9602
B(  3-C ,  7-H ) :   0.9672

-----------------------------------------------------------------------------
         ABSORPTION SPECTRUM VIA TRANSITION ELECTRIC DIPOLE MOMENTS
-----------------------------------------------------------------------------
State   Energy    Wavelength  fosc         T2        TX        TY        TZ
        (cm-1)      (nm)                 (au**2)    (au)      (au)      (au)
-----------------------------------------------------------------------------
   1   32947.4    303.5   0.000061648   0.00062  -0.02144  -0.00358   0.01198

Dispersion correction           -0.024941745
FINAL SINGLE POINT ENERGY      -189.322578609502

DIPOLE MOMENT
-------------
                                X             Y             Z
Electronic contribution:     -2.12336      -1.60452      -0.73554
Nuclear contribution   :      2.45084       2.44363       1.21204
                        -----------------------------------------
Total Dipole Moment    :      0.32748       0.83911       0.47650
                        -----------------------------------------
Magnitude (a.u.)       :      1.01902
Magnitude (Debye)      :      2.59015

Rotational constants in cm-1:     0.759883     0.192210     0.160446
Rotational constants in MHz : 22780.725160  5762.306102  4810.063069

                             ****ORCA TERMINATED NORMALLY****
TOTAL RUN TIME: 0 days 0 hours 0 minutes 16 seconds 61 msec
