                         Program Version 5.0.3 -  RELEASE  -
|  1> ! B3LYP cc-pVDZ
|  2> !TightSCF
|  3> %scf
|  4>  ConvForced true
|  5>  convergence tight
|  6>  MaxIter 500
|  7> end
|  8>
|  9> %tddft
| 10>  nroots 1
| 11> end
| 12>
| 13> # 	7631
| 14> * xyz 0 1
| 15> 		C   -1.195507  -0.353898   0.057203
| 16> 		O   -1.750114  -0.970543   0.974274
| 17> 		C   -0.018016   0.470905   0.256771
| 18> 		C    1.201839   0.041421  -0.213245
| 19> 		H   -1.677955  -0.498365  -0.982625
| 20> 		H    0.065827   1.467271   0.793227
| 21> 		H    1.303428  -0.789372  -0.804912
| 22> 		H    2.041076   0.681470  -0.056518
| 23> *
| 24>
| 25>                          ****END OF INPUT****

CARTESIAN COORDINATES (ANGSTROEM)
---------------------------------
  C     -1.195507   -0.353898    0.057203
  O     -1.750114   -0.970543    0.974274
  C     -0.018016    0.470905    0.256771
  C      1.201839    0.041421   -0.213245
  H     -1.677955   -0.498365   -0.982625
  H      0.065827    1.467271    0.793227
  H      1.303428   -0.789372   -0.804912
  H      2.041076    0.681470   -0.056518

 Total Charge           Charge          ....    0
 Multiplicity           Mult            ....    1
 Number of Electrons    NEL             ....   30
 Basis Dimension        Dim             ....   76

ORBITAL ENERGIES
----------------

  NO   OCC          E(Eh)            E(eV)
   0   2.0000     -19.142383      -520.8907
   1   2.0000     -10.286184      -279.9013
   2   2.0000     -10.217012      -278.0190
   3   2.0000     -10.204425      -277.6765
   4   2.0000      -1.036741       -28.2112
   5   2.0000      -0.796904       -21.6849
   6   2.0000      -0.653692       -17.7879
   7   2.0000      -0.561391       -15.2762
   8   2.0000      -0.496409       -13.5080
   9   2.0000      -0.456937       -12.4339
  10   2.0000      -0.431598       -11.7444
  11   2.0000      -0.401937       -10.9373
  12   2.0000      -0.364432        -9.9167
  13   2.0000      -0.282646        -7.6912
  14   2.0000      -0.256268        -6.9734
  15   0.0000      -0.053029        -1.4430
  16   0.0000      -0.010911        -0.2969
  17   0.0000       0.079268         2.1570
  18   0.0000       0.089359         2.4316
  19   0.0000       0.110515         3.0073

MULLIKEN ATOMIC CHARGES
-----------------------
   0 C :    0.167682
   1 O :   -0.200325
   2 C :   -0.092534
   3 C :    0.060717
   4 H :    0.007118
   5 H :    0.034527
   6 H :   -0.000838
   7 H :    0.023654
Sum of atomic charges:    0.0000000

LOEWDIN ATOMIC CHARGES
----------------------
   0 C :   -0.020276
   1 O :   -0.015886
   2 C :   -0.056218
   3 C :   -0.000152
   4 H :    0.006791
   5 H :    0.052409
   6 H :    0.006457
   7 H :    0.026874

  Mayer bond orders larger than 0.100000
B(  0-C ,  1-O ) :   2.1844 B(  0-C ,  2-C ) :   0.9844 B(  0-C ,  4-H ) :   0.9212
B(  2-C ,  3-C ) :   2.0181 B(  2-C ,  5-H ) :   0.9370 B(  3-C ,  6-H ) :   0.9581
B(  3-C ,  7-H ) :   0.9475

-----------------------------------------------------------------------------
         ABSORPTION SPECTRUM VIA TRANSITION ELECTRIC DIPOLE MOMENTS
-----------------------------------------------------------------------------
State   Energy    Wavelength  fosc         T2        TX        TY        TZ
        (cm-1)      (nm)                 (au**2)    (au)      (au)      (au)
-----------------------------------------------------------------------------
   1   30246.2    330.6   0.000963086   0.01048   0.09863   0.01059  -0.02535

FINAL SINGLE POINT ENERGY      -191.647578128994

DIPOLE MOMENT
-------------
                                X             Y             Z
Electronic contribution:     -2.73241      -1.08841       1.40439
Nuclear contribution   :      3.37308       1.65069      -2.02905
                        -----------------------------------------
Total Dipole Moment    :      0.64067       0.56228      -0.62466
                        -----------------------------------------
Magnitude (a.u.)       :      1.05679
Magnitude (Debye)      :      2.68615

Rotational constants in cm-1:     1.057094     0.160649     0.156983
Rotational constants in MHz : 31690.894275  4816.148322  4706.243022

                             ****ORCA TERMINATED NORMALLY****
TOTAL RUN TIME: 0 days 0 hours 3 minutes 21 seconds 635 msec
