                         Program Version 5.0.3 -  RELEASE  -
|  1> ! HF-3c
|  2> !TightSCF
|  3> %scf
|  4>  ConvForced true
|  5>  convergence tight
|  6>  MaxIter 500
|  7> end
|  8>
|  9> %tddft
| 10>  nroots 1
| 11> end
| 12>
| 13> # 	17362
| 14> * xyz 0 1
| 15> 		C   -1.247830  -0.343788   0.105076
| 16> 		O   -1.299399  -1.446649  -0.222113
| 17> 		C    0.005387   0.493902  -0.033677
| 18> 		C    1.214361   0.056261   0.082871
| 19> 		H   -2.092605   0.222139   0.334514
| 20> 		H   -0.177936   1.521244  -0.305280
| 21> 		H    1.519039  -1.182005   0.261151
| 22> 		H    2.074891   0.675188  -0.170506
| 23> *
| 24>
| 25>                          ****END OF INPUT****

CARTESIAN COORDINATES (ANGSTROEM)
---------------------------------
  C     -1.247830   -0.343788    0.105076
  O     -1.299399   -1.446649   -0.222113
  C      0.005387    0.493902   -0.033677
  C      1.214361    0.056261    0.082871
  H     -2.092605    0.222139    0.334514
  H     -0.177936    1.521244   -0.305280
  H      1.519039   -1.182005    0.261151
  H      2.074891    0.675188   -0.170506

 Total Charge           Charge          ....    0
 Multiplicity           Mult            ....    1
 Number of Electrons    NEL             ....   30
 Basis Dimension        Dim             ....   24

ORBITAL ENERGIES
----------------

  NO   OCC          E(Eh)            E(eV)
   0   2.0000     -20.392853      -554.9177
   1   2.0000     -11.315589      -307.9128
   2   2.0000     -11.181399      -304.2613
   3   2.0000     -11.177971      -304.1681
   4   2.0000      -1.453627       -39.5552
   5   2.0000      -1.074509       -29.2389
   6   2.0000      -0.888258       -24.1707
   7   2.0000      -0.753646       -20.5078
   8   2.0000      -0.699274       -19.0282
   9   2.0000      -0.620094       -16.8736
  10   2.0000      -0.616257       -16.7692
  11   2.0000      -0.560386       -15.2489
  12   2.0000      -0.502665       -13.6782
  13   2.0000      -0.409640       -11.1469
  14   2.0000      -0.404544       -11.0082
  15   0.0000       0.161689         4.3998
  16   0.0000       0.306567         8.3421
  17   0.0000       0.454967        12.3803
  18   0.0000       0.588873        16.0240
  19   0.0000       0.657637        17.8952

MULLIKEN ATOMIC CHARGES
-----------------------
   0 C :    0.182006
   1 O :   -0.353039
   2 C :   -0.190904
   3 C :   -0.206496
   4 H :    0.135428
   5 H :    0.140083
   6 H :    0.154914
   7 H :    0.138008
Sum of atomic charges:    0.0000000

LOEWDIN ATOMIC CHARGES
----------------------
   0 C :    0.152647
   1 O :   -0.235872
   2 C :   -0.150107
   3 C :   -0.125452
   4 H :    0.064367
   5 H :    0.089072
   6 H :    0.116716
   7 H :    0.088628

  Mayer bond orders larger than 0.100000
B(  0-C ,  1-O ) :   1.9354 B(  0-C ,  2-C ) :   0.9822 B(  0-C ,  4-H ) :   0.9231
B(  2-C ,  3-C ) :   1.9849 B(  2-C ,  5-H ) :   0.9537 B(  3-C ,  6-H ) :   0.9501
B(  3-C ,  7-H ) :   0.9620

-----------------------------------------------------------------------------
         ABSORPTION SPECTRUM VIA TRANSITION ELECTRIC DIPOLE MOMENTS
-----------------------------------------------------------------------------
State   Energy    Wavelength  fosc         T2        TX        TY        TZ
        (cm-1)      (nm)                 (au**2)    (au)      (au)      (au)
-----------------------------------------------------------------------------
   1   36322.4    275.3   0.000113155   0.00103  -0.02894  -0.00274   0.01343

Dispersion correction           -0.025424991
FINAL SINGLE POINT ENERGY      -189.291679828225

DIPOLE MOMENT
-------------
                                X             Y             Z
Electronic contribution:     -2.22449      -1.68522      -0.04030
Nuclear contribution   :      2.55240       2.44372       0.21535
                        -----------------------------------------
Total Dipole Moment    :      0.32791       0.75851       0.17504
                        -----------------------------------------
Magnitude (a.u.)       :      0.84469
Magnitude (Debye)      :      2.14702

Rotational constants in cm-1:     0.835822     0.198251     0.163274
Rotational constants in MHz : 25057.315620  5943.425999  4894.820452

                             ****ORCA TERMINATED NORMALLY****
TOTAL RUN TIME: 0 days 0 hours 0 minutes 10 seconds 814 msec
