                         Program Version 5.0.3 -  RELEASE  -
|  1> ! B3LYP cc-pVDZ
|  2> !TightSCF
|  3> %scf
|  4>  ConvForced true
|  5>  convergence tight
|  6>  MaxIter 500
|  7> end
|  8>
|  9> %tddft
| 10>  nroots 1
| 11> end
| 12>
| 13> # 	6778
| 14> * xyz 0 1
| 15> 		C   -1.198057  -0.365087   0.137065
| 16> 		O   -2.139053  -0.440777   0.783889
| 17> 		C    0.094881   0.290017   0.458366
| 18> 		C    1.211615   0.126851  -0.286153
| 19> 		H   -1.153131  -0.751701  -0.959520
| 20> 		H   -0.117704   1.005461   1.164210
| 21> 		H    1.054543  -0.678365  -1.073142
| 22> 		H    2.178429   0.806035  -0.185448
| 23> *
| 24>
| 25>                          ****END OF INPUT****

CARTESIAN COORDINATES (ANGSTROEM)
---------------------------------
  C     -1.198057   -0.365087    0.137065
  O     -2.139053   -0.440777    0.783889
  C      0.094881    0.290017    0.458366
  C      1.211615    0.126851   -0.286153
  H     -1.153131   -0.751701   -0.959520
  H     -0.117704    1.005461    1.164210
  H      1.054543   -0.678365   -1.073142
  H      2.178429    0.806035   -0.185448

 Total Charge           Charge          ....    0
 Multiplicity           Mult            ....    1
 Number of Electrons    NEL             ....   30
 Basis Dimension        Dim             ....   76

ORBITAL ENERGIES
----------------

  NO   OCC          E(Eh)            E(eV)
   0   2.0000     -19.145675      -520.9803
   1   2.0000     -10.274814      -279.5919
   2   2.0000     -10.232584      -278.4428
   3   2.0000     -10.200757      -277.5767
   4   2.0000      -1.090081       -29.6626
   5   2.0000      -0.799268       -21.7492
   6   2.0000      -0.640928       -17.4405
   7   2.0000      -0.566595       -15.4178
   8   2.0000      -0.474650       -12.9159
   9   2.0000      -0.468665       -12.7530
  10   2.0000      -0.438103       -11.9214
  11   2.0000      -0.416678       -11.3384
  12   2.0000      -0.387941       -10.5564
  13   2.0000      -0.293681        -7.9915
  14   2.0000      -0.254008        -6.9119
  15   0.0000      -0.061193        -1.6651
  16   0.0000       0.050589         1.3766
  17   0.0000       0.059819         1.6278
  18   0.0000       0.085266         2.3202
  19   0.0000       0.128272         3.4905

MULLIKEN ATOMIC CHARGES
-----------------------
   0 C :    0.132482
   1 O :   -0.126142
   2 C :   -0.034340
   3 C :    0.000088
   4 H :   -0.055235
   5 H :   -0.029247
   6 H :    0.041120
   7 H :    0.071274
Sum of atomic charges:   -0.0000000

LOEWDIN ATOMIC CHARGES
----------------------
   0 C :   -0.084352
   1 O :    0.072513
   2 C :   -0.059359
   3 C :   -0.012765
   4 H :   -0.023645
   5 H :    0.010401
   6 H :    0.039943
   7 H :    0.057265

  Mayer bond orders larger than 0.100000
B(  0-C ,  1-O ) :   2.2684 B(  0-C ,  2-C ) :   1.0467 B(  0-C ,  4-H ) :   0.8879
B(  2-C ,  3-C ) :   1.9384 B(  2-C ,  5-H ) :   0.9534 B(  3-C ,  6-H ) :   0.9203
B(  3-C ,  7-H ) :   0.9380

-----------------------------------------------------------------------------
         ABSORPTION SPECTRUM VIA TRANSITION ELECTRIC DIPOLE MOMENTS
-----------------------------------------------------------------------------
State   Energy    Wavelength  fosc         T2        TX        TY        TZ
        (cm-1)      (nm)                 (au**2)    (au)      (au)      (au)
-----------------------------------------------------------------------------
   1   30343.1    329.6   0.000594498   0.00645   0.05364   0.05858   0.01186

FINAL SINGLE POINT ENERGY      -191.645706277377

DIPOLE MOMENT
-------------
                                X             Y             Z
Electronic contribution:     -3.00540      -0.51141       1.62321
Nuclear contribution   :      3.88852       0.75759      -1.99818
                        -----------------------------------------
Total Dipole Moment    :      0.88312       0.24618      -0.37497
                        -----------------------------------------
Magnitude (a.u.)       :      0.99051
Magnitude (Debye)      :      2.51767

Rotational constants in cm-1:     1.659822     0.153953     0.141798
Rotational constants in MHz : 49760.199098  4615.387598  4251.007433

                             ****ORCA TERMINATED NORMALLY****
TOTAL RUN TIME: 0 days 0 hours 3 minutes 11 seconds 679 msec
