                         Program Version 5.0.3 -  RELEASE  -
|  1> ! HF-3c
|  2> !TightSCF
|  3> %scf
|  4>  ConvForced true
|  5>  convergence tight
|  6>  MaxIter 500
|  7> end
|  8>
|  9> %tddft
| 10>  nroots 1
| 11> end
| 12>
| 13> # 	9901
| 14> * xyz 0 1
| 15> 		C   -1.211067  -0.359445  -0.026776
| 16> 		O   -1.276292  -1.521419  -0.188689
| 17> 		C    0.025539   0.462051  -0.084791
| 18> 		C    1.240728   0.063041  -0.000950
| 19> 		H   -2.054733   0.097173   0.254288
| 20> 		H   -0.196923   1.492267  -0.053795
| 21> 		H    1.382948  -1.017631   0.057620
| 22> 		H    2.076579   0.724473   0.019515
| 23> *
| 24>
| 25>                          ****END OF INPUT****

CARTESIAN COORDINATES (ANGSTROEM)
---------------------------------
  C     -1.211067   -0.359445   -0.026776
  O     -1.276292   -1.521419   -0.188689
  C      0.025539    0.462051   -0.084791
  C      1.240728    0.063041   -0.000950
  H     -2.054733    0.097173    0.254288
  H     -0.196923    1.492267   -0.053795
  H      1.382948   -1.017631    0.057620
  H      2.076579    0.724473    0.019515

 Total Charge           Charge          ....    0
 Multiplicity           Mult            ....    1
 Number of Electrons    NEL             ....   30
 Basis Dimension        Dim             ....   24

ORBITAL ENERGIES
----------------

  NO   OCC          E(Eh)            E(eV)
   0   2.0000     -20.384699      -554.6958
   1   2.0000     -11.312199      -307.8206
   2   2.0000     -11.197200      -304.6913
   3   2.0000     -11.193785      -304.5984
   4   2.0000      -1.437520       -39.1169
   5   2.0000      -1.099552       -29.9203
   6   2.0000      -0.911518       -24.8037
   7   2.0000      -0.773907       -21.0591
   8   2.0000      -0.722036       -19.6476
   9   2.0000      -0.635100       -17.2819
  10   2.0000      -0.621421       -16.9097
  11   2.0000      -0.561976       -15.2921
  12   2.0000      -0.534736       -14.5509
  13   2.0000      -0.423724       -11.5301
  14   2.0000      -0.416726       -11.3397
  15   0.0000       0.141489         3.8501
  16   0.0000       0.315649         8.5892
  17   0.0000       0.550965        14.9925
  18   0.0000       0.657657        17.8957
  19   0.0000       0.682553        18.5732

MULLIKEN ATOMIC CHARGES
-----------------------
   0 C :    0.159125
   1 O :   -0.344536
   2 C :   -0.176816
   3 C :   -0.230833
   4 H :    0.140102
   5 H :    0.140627
   6 H :    0.159180
   7 H :    0.153152
Sum of atomic charges:    0.0000000

LOEWDIN ATOMIC CHARGES
----------------------
   0 C :    0.141069
   1 O :   -0.238026
   2 C :   -0.130612
   3 C :   -0.129148
   4 H :    0.065648
   5 H :    0.086160
   6 H :    0.105380
   7 H :    0.099528

  Mayer bond orders larger than 0.100000
B(  0-C ,  1-O ) :   1.9184 B(  0-C ,  2-C ) :   1.0052 B(  0-C ,  4-H ) :   0.9339
B(  2-C ,  3-C ) :   1.9695 B(  2-C ,  5-H ) :   0.9572 B(  3-C ,  6-H ) :   0.9558
B(  3-C ,  7-H ) :   0.9612

-----------------------------------------------------------------------------
         ABSORPTION SPECTRUM VIA TRANSITION ELECTRIC DIPOLE MOMENTS
-----------------------------------------------------------------------------
State   Energy    Wavelength  fosc         T2        TX        TY        TZ
        (cm-1)      (nm)                 (au**2)    (au)      (au)      (au)
-----------------------------------------------------------------------------
   1   33988.7    294.2   0.000007591   0.00007   0.00782   0.00201   0.00289

Dispersion correction           -0.026001605
FINAL SINGLE POINT ENERGY      -189.322345615794

DIPOLE MOMENT
-------------
                                X             Y             Z
Electronic contribution:     -2.03465      -1.75644      -0.35524
Nuclear contribution   :      2.36013       2.60786       0.53255
                        -----------------------------------------
Total Dipole Moment    :      0.32548       0.85142       0.17731
                        -----------------------------------------
Magnitude (a.u.)       :      0.92860
Magnitude (Debye)      :      2.36031

Rotational constants in cm-1:     0.900372     0.196693     0.162210
Rotational constants in MHz : 26992.475108  5896.715382  4862.942869

                             ****ORCA TERMINATED NORMALLY****
TOTAL RUN TIME: 0 days 0 hours 0 minutes 11 seconds 597 msec
