                         Program Version 5.0.3 -  RELEASE  -
|  1> ! B3LYP cc-pVDZ
|  2> !TightSCF
|  3> %scf
|  4>  ConvForced true
|  5>  convergence tight
|  6>  MaxIter 500
|  7> end
|  8>
|  9> %tddft
| 10>  nroots 1
| 11> end
| 12>
| 13> # 	14825
| 14> * xyz 0 1
| 15> 		C   -1.159011  -0.347741  -0.039230
| 16> 		O   -1.293311  -1.269313  -0.617401
| 17> 		C    0.039772   0.516999  -0.140867
| 18> 		C    1.196226  -0.022475   0.154725
| 19> 		H   -1.892777   0.055377   0.746370
| 20> 		H   -0.145662   1.625361  -0.508342
| 21> 		H    1.084013  -1.133619   0.439963
| 22> 		H    2.186190   0.518566   0.018871
| 23> *
| 24>
| 25>                          ****END OF INPUT****

CARTESIAN COORDINATES (ANGSTROEM)
---------------------------------
  C     -1.159011   -0.347741   -0.039230
  O     -1.293311   -1.269313   -0.617401
  C      0.039772    0.516999   -0.140867
  C      1.196226   -0.022475    0.154725
  H     -1.892777    0.055377    0.746370
  H     -0.145662    1.625361   -0.508342
  H      1.084013   -1.133619    0.439963
  H      2.186190    0.518566    0.018871

 Total Charge           Charge          ....    0
 Multiplicity           Mult            ....    1
 Number of Electrons    NEL             ....   30
 Basis Dimension        Dim             ....   76

ORBITAL ENERGIES
----------------

  NO   OCC          E(Eh)            E(eV)
   0   2.0000     -19.146163      -520.9936
   1   2.0000     -10.271432      -279.4999
   2   2.0000     -10.207283      -277.7543
   3   2.0000     -10.199460      -277.5414
   4   2.0000      -1.123586       -30.5743
   5   2.0000      -0.794603       -21.6222
   6   2.0000      -0.637077       -17.3358
   7   2.0000      -0.535221       -14.5641
   8   2.0000      -0.507630       -13.8133
   9   2.0000      -0.468375       -12.7451
  10   2.0000      -0.451505       -12.2861
  11   2.0000      -0.413506       -11.2521
  12   2.0000      -0.376654       -10.2493
  13   2.0000      -0.287744        -7.8299
  14   2.0000      -0.251622        -6.8470
  15   0.0000      -0.021949        -0.5973
  16   0.0000       0.024663         0.6711
  17   0.0000       0.074717         2.0331
  18   0.0000       0.082399         2.2422
  19   0.0000       0.103736         2.8228

MULLIKEN ATOMIC CHARGES
-----------------------
   0 C :    0.146357
   1 O :   -0.076776
   2 C :   -0.133254
   3 C :    0.012769
   4 H :   -0.050929
   5 H :    0.024753
   6 H :    0.035184
   7 H :    0.041896
Sum of atomic charges:    0.0000000

LOEWDIN ATOMIC CHARGES
----------------------
   0 C :   -0.108888
   1 O :    0.127685
   2 C :   -0.079097
   3 C :   -0.041853
   4 H :   -0.023862
   5 H :    0.043329
   6 H :    0.042587
   7 H :    0.040099

  Mayer bond orders larger than 0.100000
B(  0-C ,  1-O ) :   2.3531 B(  0-C ,  2-C ) :   0.9766 B(  0-C ,  4-H ) :   0.8833
B(  2-C ,  3-C ) :   2.0251 B(  2-C ,  5-H ) :   0.9294 B(  3-C ,  6-H ) :   0.9246
B(  3-C ,  7-H ) :   0.9436

-----------------------------------------------------------------------------
         ABSORPTION SPECTRUM VIA TRANSITION ELECTRIC DIPOLE MOMENTS
-----------------------------------------------------------------------------
State   Energy    Wavelength  fosc         T2        TX        TY        TZ
        (cm-1)      (nm)                 (au**2)    (au)      (au)      (au)
-----------------------------------------------------------------------------
   1   37371.0    267.6   0.000106203   0.00094   0.02515   0.01479   0.00919

FINAL SINGLE POINT ENERGY      -191.593277472247

DIPOLE MOMENT
-------------
                                X             Y             Z
Electronic contribution:     -2.10467      -1.57589      -1.03362
Nuclear contribution   :      2.38139       2.15505       1.28171
                        -----------------------------------------
Total Dipole Moment    :      0.27672       0.57915       0.24810
                        -----------------------------------------
Magnitude (a.u.)       :      0.68814
Magnitude (Debye)      :      1.74912

Rotational constants in cm-1:     0.854677     0.204245     0.176423
Rotational constants in MHz : 25622.560881  6123.114588  5289.033373

                             ****ORCA TERMINATED NORMALLY****
TOTAL RUN TIME: 0 days 0 hours 3 minutes 27 seconds 839 msec
