                         Program Version 5.0.3 -  RELEASE  -
|  1> ! B3LYP cc-pVDZ
|  2> !TightSCF
|  3> %scf
|  4>  ConvForced true
|  5>  convergence tight
|  6>  MaxIter 500
|  7> end
|  8>
|  9> %tddft
| 10>  nroots 1
| 11> end
| 12>
| 13> # 	13290
| 14> * xyz 0 1
| 15> 		C   -1.192345  -0.334944   0.064884
| 16> 		O   -1.844169  -0.840436   0.847210
| 17> 		C    0.006203   0.443516   0.236956
| 18> 		C    1.216341   0.065887  -0.096346
| 19> 		H   -1.413716  -0.580557  -0.984814
| 20> 		H   -0.198831   1.453702   0.749826
| 21> 		H    1.341420  -0.899785  -0.835670
| 22> 		H    2.073695   0.591638  -0.023570
| 23> *
| 24>
| 25>                          ****END OF INPUT****

CARTESIAN COORDINATES (ANGSTROEM)
---------------------------------
  C     -1.192345   -0.334944    0.064884
  O     -1.844169   -0.840436    0.847210
  C      0.006203    0.443516    0.236956
  C      1.216341    0.065887   -0.096346
  H     -1.413716   -0.580557   -0.984814
  H     -0.198831    1.453702    0.749826
  H      1.341420   -0.899785   -0.835670
  H      2.073695    0.591638   -0.023570

 Total Charge           Charge          ....    0
 Multiplicity           Mult            ....    1
 Number of Electrons    NEL             ....   30
 Basis Dimension        Dim             ....   76

ORBITAL ENERGIES
----------------

  NO   OCC          E(Eh)            E(eV)
   0   2.0000     -19.141772      -520.8741
   1   2.0000     -10.269699      -279.4527
   2   2.0000     -10.210411      -277.8394
   3   2.0000     -10.207152      -277.7507
   4   2.0000      -1.094524       -29.7835
   5   2.0000      -0.804834       -21.9007
   6   2.0000      -0.657775       -17.8990
   7   2.0000      -0.557689       -15.1755
   8   2.0000      -0.490051       -13.3350
   9   2.0000      -0.483561       -13.1584
  10   2.0000      -0.453049       -12.3281
  11   2.0000      -0.409056       -11.1310
  12   2.0000      -0.367140        -9.9904
  13   2.0000      -0.293396        -7.9837
  14   2.0000      -0.251396        -6.8408
  15   0.0000      -0.037699        -1.0259
  16   0.0000       0.014752         0.4014
  17   0.0000       0.068495         1.8638
  18   0.0000       0.090457         2.4615
  19   0.0000       0.114275         3.1096

MULLIKEN ATOMIC CHARGES
-----------------------
   0 C :    0.165384
   1 O :   -0.117980
   2 C :   -0.105860
   3 C :    0.041634
   4 H :   -0.053337
   5 H :    0.028871
   6 H :    0.035288
   7 H :    0.006001
Sum of atomic charges:    0.0000000

LOEWDIN ATOMIC CHARGES
----------------------
   0 C :   -0.084193
   1 O :    0.084769
   2 C :   -0.065067
   3 C :   -0.016314
   4 H :   -0.021005
   5 H :    0.048333
   6 H :    0.046931
   7 H :    0.006547

  Mayer bond orders larger than 0.100000
B(  0-C ,  1-O ) :   2.3101 B(  0-C ,  2-C ) :   0.9982 B(  0-C ,  4-H ) :   0.9096
B(  2-C ,  3-C ) :   2.0313 B(  2-C ,  5-H ) :   0.9241 B(  3-C ,  6-H ) :   0.9378
B(  3-C ,  7-H ) :   0.9422

-----------------------------------------------------------------------------
         ABSORPTION SPECTRUM VIA TRANSITION ELECTRIC DIPOLE MOMENTS
-----------------------------------------------------------------------------
State   Energy    Wavelength  fosc         T2        TX        TY        TZ
        (cm-1)      (nm)                 (au**2)    (au)      (au)      (au)
-----------------------------------------------------------------------------
   1   34075.2    293.5   0.000314287   0.00304   0.00577   0.01004   0.05387

FINAL SINGLE POINT ENERGY      -191.611358770223

DIPOLE MOMENT
-------------
                                X             Y             Z
Electronic contribution:     -2.87148      -0.76457       1.55623
Nuclear contribution   :      3.50010       1.24213      -2.01665
                        -----------------------------------------
Total Dipole Moment    :      0.62862       0.47756      -0.46042
                        -----------------------------------------
Magnitude (a.u.)       :      0.91390
Magnitude (Debye)      :      2.32295

Rotational constants in cm-1:     1.240951     0.164034     0.158457
Rotational constants in MHz : 37202.777124  4917.601652  4750.427730

                             ****ORCA TERMINATED NORMALLY****
TOTAL RUN TIME: 0 days 0 hours 2 minutes 44 seconds 159 msec
