                         Program Version 5.0.3 -  RELEASE  -
|  1> ! HF-3c
|  2> !TightSCF
|  3> %scf
|  4>  ConvForced true
|  5>  convergence tight
|  6>  MaxIter 500
|  7> end
|  8>
|  9> %tddft
| 10>  nroots 1
| 11> end
| 12>
| 13> # 	7855
| 14> * xyz 0 1
| 15> 		C   -1.133283  -0.359409   0.052086
| 16> 		O   -1.880576  -0.604936   1.027283
| 17> 		C    0.043064   0.457448   0.166937
| 18> 		C    1.199964   0.096926  -0.300324
| 19> 		H   -1.416965  -0.738606  -0.909471
| 20> 		H   -0.024444   1.306437   0.946598
| 21> 		H    1.286093  -0.847307  -0.886113
| 22> 		H    1.970192   0.653171  -0.118411
| 23> *
| 24>
| 25>                          ****END OF INPUT****

CARTESIAN COORDINATES (ANGSTROEM)
---------------------------------
  C     -1.133283   -0.359409    0.052086
  O     -1.880576   -0.604936    1.027283
  C      0.043064    0.457448    0.166937
  C      1.199964    0.096926   -0.300324
  H     -1.416965   -0.738606   -0.909471
  H     -0.024444    1.306437    0.946598
  H      1.286093   -0.847307   -0.886113
  H      1.970192    0.653171   -0.118411

 Total Charge           Charge          ....    0
 Multiplicity           Mult            ....    1
 Number of Electrons    NEL             ....   30
 Basis Dimension        Dim             ....   24

ORBITAL ENERGIES
----------------

  NO   OCC          E(Eh)            E(eV)
   0   2.0000     -20.358919      -553.9944
   1   2.0000     -11.291065      -307.2455
   2   2.0000     -11.201776      -304.8158
   3   2.0000     -11.196413      -304.6699
   4   2.0000      -1.376295       -37.4509
   5   2.0000      -1.107315       -30.1316
   6   2.0000      -0.904523       -24.6133
   7   2.0000      -0.777211       -21.1490
   8   2.0000      -0.679665       -18.4946
   9   2.0000      -0.664252       -18.0752
  10   2.0000      -0.586423       -15.9574
  11   2.0000      -0.547315       -14.8932
  12   2.0000      -0.506886       -13.7931
  13   2.0000      -0.422845       -11.5062
  14   2.0000      -0.406835       -11.0705
  15   0.0000       0.134908         3.6710
  16   0.0000       0.273228         7.4349
  17   0.0000       0.550659        14.9842
  18   0.0000       0.606560        16.5053
  19   0.0000       0.690588        18.7918

MULLIKEN ATOMIC CHARGES
-----------------------
   0 C :    0.142938
   1 O :   -0.335906
   2 C :   -0.155199
   3 C :   -0.256763
   4 H :    0.143584
   5 H :    0.164500
   6 H :    0.150847
   7 H :    0.145999
Sum of atomic charges:    0.0000000

LOEWDIN ATOMIC CHARGES
----------------------
   0 C :    0.139395
   1 O :   -0.255267
   2 C :   -0.109729
   3 C :   -0.153554
   4 H :    0.077706
   5 H :    0.113789
   6 H :    0.101892
   7 H :    0.085768

  Mayer bond orders larger than 0.100000
B(  0-C ,  1-O ) :   1.9076 B(  0-C ,  2-C ) :   1.0356 B(  0-C ,  4-H ) :   0.9316
B(  2-C ,  3-C ) :   1.9626 B(  2-C ,  5-H ) :   0.9420 B(  3-C ,  6-H ) :   0.9603
B(  3-C ,  7-H ) :   0.9660

-----------------------------------------------------------------------------
         ABSORPTION SPECTRUM VIA TRANSITION ELECTRIC DIPOLE MOMENTS
-----------------------------------------------------------------------------
State   Energy    Wavelength  fosc         T2        TX        TY        TZ
        (cm-1)      (nm)                 (au**2)    (au)      (au)      (au)
-----------------------------------------------------------------------------
   1   30747.4    325.2   0.000241129   0.00258   0.04950   0.00833  -0.00788

Dispersion correction           -0.025790029
FINAL SINGLE POINT ENERGY      -189.324401093081

DIPOLE MOMENT
-------------
                                X             Y             Z
Electronic contribution:     -2.76846      -0.59099       1.19483
Nuclear contribution   :      3.48521       0.80935      -1.86571
                        -----------------------------------------
Total Dipole Moment    :      0.71675       0.21836      -0.67088
                        -----------------------------------------
Magnitude (a.u.)       :      1.00573
Magnitude (Debye)      :      2.55637

Rotational constants in cm-1:     1.307213     0.161593     0.152964
Rotational constants in MHz : 39189.258434  4844.440947  4585.752223

                             ****ORCA TERMINATED NORMALLY****
TOTAL RUN TIME: 0 days 0 hours 0 minutes 16 seconds 120 msec
