                         Program Version 5.0.3 -  RELEASE  -
|  1> ! HF-3c
|  2> !TightSCF
|  3> %scf
|  4>  ConvForced true
|  5>  convergence tight
|  6>  MaxIter 500
|  7> end
|  8>
|  9> %tddft
| 10>  nroots 1
| 11> end
| 12>
| 13> # 	10700
| 14> * xyz 0 1
| 15> 		C   -1.081966  -0.315706  -0.027552
| 16> 		O   -1.179339  -1.540506  -0.009142
| 17> 		C    0.048591   0.471665  -0.006545
| 18> 		C    1.260807  -0.037411   0.000143
| 19> 		H   -2.100723   0.417811   0.029972
| 20> 		H   -0.129040   1.641369   0.120271
| 21> 		H    1.190136  -1.247566  -0.180212
| 22> 		H    2.030299   0.639431   0.157133
| 23> *
| 24>
| 25>                          ****END OF INPUT****

CARTESIAN COORDINATES (ANGSTROEM)
---------------------------------
  C     -1.081966   -0.315706   -0.027552
  O     -1.179339   -1.540506   -0.009142
  C      0.048591    0.471665   -0.006545
  C      1.260807   -0.037411    0.000143
  H     -2.100723    0.417811    0.029972
  H     -0.129040    1.641369    0.120271
  H      1.190136   -1.247566   -0.180212
  H      2.030299    0.639431    0.157133

 Total Charge           Charge          ....    0
 Multiplicity           Mult            ....    1
 Number of Electrons    NEL             ....   30
 Basis Dimension        Dim             ....   24

ORBITAL ENERGIES
----------------

  NO   OCC          E(Eh)            E(eV)
   0   2.0000     -20.345335      -553.6247
   1   2.0000     -11.283929      -307.0513
   2   2.0000     -11.194705      -304.6234
   3   2.0000     -11.183396      -304.3157
   4   2.0000      -1.380097       -37.5544
   5   2.0000      -1.098311       -29.8866
   6   2.0000      -0.900232       -24.4966
   7   2.0000      -0.704287       -19.1646
   8   2.0000      -0.691073       -18.8051
   9   2.0000      -0.601647       -16.3716
  10   2.0000      -0.582717       -15.8565
  11   2.0000      -0.540940       -14.7197
  12   2.0000      -0.500173       -13.6104
  13   2.0000      -0.396849       -10.7988
  14   2.0000      -0.390355       -10.6221
  15   0.0000       0.122698         3.3388
  16   0.0000       0.340569         9.2674
  17   0.0000       0.468436        12.7468
  18   0.0000       0.498233        13.5576
  19   0.0000       0.580414        15.7939

MULLIKEN ATOMIC CHARGES
-----------------------
   0 C :    0.171395
   1 O :   -0.369499
   2 C :   -0.188911
   3 C :   -0.209665
   4 H :    0.117948
   5 H :    0.140177
   6 H :    0.185815
   7 H :    0.152739
Sum of atomic charges:    0.0000000

LOEWDIN ATOMIC CHARGES
----------------------
   0 C :    0.147268
   1 O :   -0.282564
   2 C :   -0.153358
   3 C :   -0.111589
   4 H :    0.068333
   5 H :    0.095667
   6 H :    0.139533
   7 H :    0.096709

  Mayer bond orders larger than 0.100000
B(  0-C ,  1-O ) :   1.8700 B(  0-C ,  2-C ) :   1.0823 B(  0-C ,  4-H ) :   0.9084
B(  2-C ,  3-C ) :   1.9044 B(  2-C ,  5-H ) :   0.9512 B(  3-C ,  6-H ) :   0.9411
B(  3-C ,  7-H ) :   0.9638

-----------------------------------------------------------------------------
         ABSORPTION SPECTRUM VIA TRANSITION ELECTRIC DIPOLE MOMENTS
-----------------------------------------------------------------------------
State   Energy    Wavelength  fosc         T2        TX        TY        TZ
        (cm-1)      (nm)                 (au**2)    (au)      (au)      (au)
-----------------------------------------------------------------------------
   1   31076.5    321.8   0.000089526   0.00095  -0.00881  -0.00140  -0.02948

Dispersion correction           -0.026406183
FINAL SINGLE POINT ENERGY      -189.292626730705

DIPOLE MOMENT
-------------
                                X             Y             Z
Electronic contribution:     -1.47690      -1.83098      -0.13252
Nuclear contribution   :      1.92925       2.80082       0.14779
                        -----------------------------------------
Total Dipole Moment    :      0.45235       0.96984       0.01527
                        -----------------------------------------
Magnitude (a.u.)       :      1.07026
Magnitude (Debye)      :      2.72038

Rotational constants in cm-1:     0.776205     0.215825     0.169105
Rotational constants in MHz : 23270.030550  6470.276457  5069.637655

                             ****ORCA TERMINATED NORMALLY****
TOTAL RUN TIME: 0 days 0 hours 0 minutes 15 seconds 851 msec
