                         Program Version 5.0.3 -  RELEASE  -
|  1> ! HF-3c
|  2> !TightSCF
|  3> %scf
|  4>  ConvForced true
|  5>  convergence tight
|  6>  MaxIter 500
|  7> end
|  8>
|  9> %tddft
| 10>  nroots 1
| 11> end
| 12>
| 13> # 	24399
| 14> * xyz 0 1
| 15> 		C   -0.541821  -0.467217   0.022079
| 16> 		O   -0.594423  -1.644686  -0.013807
| 17> 		C    0.628550   0.442284  -0.010540
| 18> 		C    1.810944  -0.120466  -0.009673
| 19> 		H   -1.514813   0.237801   0.119437
| 20> 		H    0.589632   1.626156  -0.153386
| 21> 		H    1.975582  -1.235630   0.057299
| 22> 		H    2.778566   0.475093   0.173428
| 23> *
| 24>
| 25>                          ****END OF INPUT****

CARTESIAN COORDINATES (ANGSTROEM)
---------------------------------
  C     -0.541821   -0.467217    0.022079
  O     -0.594423   -1.644686   -0.013807
  C      0.628550    0.442284   -0.010540
  C      1.810944   -0.120466   -0.009673
  H     -1.514813    0.237801    0.119437
  H      0.589632    1.626156   -0.153386
  H      1.975582   -1.235630    0.057299
  H      2.778566    0.475093    0.173428

 Total Charge           Charge          ....    0
 Multiplicity           Mult            ....    1
 Number of Electrons    NEL             ....   30
 Basis Dimension        Dim             ....   24

ORBITAL ENERGIES
----------------

  NO   OCC          E(Eh)            E(eV)
   0   2.0000     -20.374272      -554.4121
   1   2.0000     -11.301259      -307.5229
   2   2.0000     -11.184459      -304.3446
   3   2.0000     -11.180527      -304.2376
   4   2.0000      -1.421890       -38.6916
   5   2.0000      -1.078743       -29.3541
   6   2.0000      -0.869964       -23.6729
   7   2.0000      -0.719154       -19.5692
   8   2.0000      -0.691049       -18.8044
   9   2.0000      -0.614612       -16.7244
  10   2.0000      -0.577568       -15.7164
  11   2.0000      -0.554306       -15.0834
  12   2.0000      -0.510684       -13.8964
  13   2.0000      -0.400194       -10.8898
  14   2.0000      -0.391636       -10.6569
  15   0.0000       0.145263         3.9528
  16   0.0000       0.320360         8.7174
  17   0.0000       0.496347        13.5063
  18   0.0000       0.540887        14.7183
  19   0.0000       0.604902        16.4602

MULLIKEN ATOMIC CHARGES
-----------------------
   0 C :    0.199506
   1 O :   -0.369275
   2 C :   -0.187552
   3 C :   -0.203401
   4 H :    0.116529
   5 H :    0.152021
   6 H :    0.153009
   7 H :    0.139163
Sum of atomic charges:    0.0000000

LOEWDIN ATOMIC CHARGES
----------------------
   0 C :    0.163606
   1 O :   -0.262804
   2 C :   -0.154821
   3 C :   -0.110690
   4 H :    0.061070
   5 H :    0.107729
   6 H :    0.102266
   7 H :    0.093643

  Mayer bond orders larger than 0.100000
B(  0-C ,  1-O ) :   1.9212 B(  0-C ,  2-C ) :   1.0102 B(  0-C ,  4-H ) :   0.9056
B(  2-C ,  3-C ) :   1.9492 B(  2-C ,  5-H ) :   0.9523 B(  3-C ,  6-H ) :   0.9568
B(  3-C ,  7-H ) :   0.9623

-----------------------------------------------------------------------------
         ABSORPTION SPECTRUM VIA TRANSITION ELECTRIC DIPOLE MOMENTS
-----------------------------------------------------------------------------
State   Energy    Wavelength  fosc         T2        TX        TY        TZ
        (cm-1)      (nm)                 (au**2)    (au)      (au)      (au)
-----------------------------------------------------------------------------
   1   35017.0    285.6   0.000018503   0.00017   0.00319   0.00101  -0.01276

Dispersion correction           -0.025489695
FINAL SINGLE POINT ENERGY      -189.306367427285

DIPOLE MOMENT
-------------
                                X             Y             Z
Electronic contribution:     -1.99860      -1.83415      -0.13329
Nuclear contribution   :      2.43149       2.82175       0.18442
                        -----------------------------------------
Total Dipole Moment    :      0.43289       0.98760       0.05113
                        -----------------------------------------
Magnitude (a.u.)       :      1.07952
Magnitude (Debye)      :      2.74392

Rotational constants in cm-1:     0.768502     0.209041     0.164605
Rotational constants in MHz : 23039.107116  6266.882963  4934.744531

                             ****ORCA TERMINATED NORMALLY****
TOTAL RUN TIME: 0 days 0 hours 0 minutes 11 seconds 61 msec
