                         Program Version 5.0.3 -  RELEASE  -
|  1> ! HF-3c
|  2> !TightSCF
|  3> %scf
|  4>  ConvForced true
|  5>  convergence tight
|  6>  MaxIter 500
|  7> end
|  8>
|  9> %tddft
| 10>  nroots 1
| 11> end
| 12>
| 13> # 	8228
| 14> * xyz 0 1
| 15> 		C   -1.227561  -0.355409  -0.002386
| 16> 		O   -1.551066  -1.276506   0.679027
| 17> 		C   -0.020287   0.504202   0.173042
| 18> 		C    1.187511   0.003842  -0.173032
| 19> 		H   -1.785123   0.047131  -0.910314
| 20> 		H   -0.078989   1.464009   0.753994
| 21> 		H    1.340609  -0.877453  -0.534834
| 22> 		H    2.039692   0.484834   0.010005
| 23> *
| 24>
| 25>                          ****END OF INPUT****

CARTESIAN COORDINATES (ANGSTROEM)
---------------------------------
  C     -1.227561   -0.355409   -0.002386
  O     -1.551066   -1.276506    0.679027
  C     -0.020287    0.504202    0.173042
  C      1.187511    0.003842   -0.173032
  H     -1.785123    0.047131   -0.910314
  H     -0.078989    1.464009    0.753994
  H      1.340609   -0.877453   -0.534834
  H      2.039692    0.484834    0.010005

 Total Charge           Charge          ....    0
 Multiplicity           Mult            ....    1
 Number of Electrons    NEL             ....   30
 Basis Dimension        Dim             ....   24

ORBITAL ENERGIES
----------------

  NO   OCC          E(Eh)            E(eV)
   0   2.0000     -20.395134      -554.9798
   1   2.0000     -11.313043      -307.8435
   2   2.0000     -11.197171      -304.6905
   3   2.0000     -11.181960      -304.2766
   4   2.0000      -1.427704       -38.8498
   5   2.0000      -1.084087       -29.4995
   6   2.0000      -0.905107       -24.6292
   7   2.0000      -0.771996       -21.0071
   8   2.0000      -0.694995       -18.9118
   9   2.0000      -0.644882       -17.5481
  10   2.0000      -0.624778       -17.0011
  11   2.0000      -0.572171       -15.5696
  12   2.0000      -0.518967       -14.1218
  13   2.0000      -0.416772       -11.3409
  14   2.0000      -0.398933       -10.8555
  15   0.0000       0.180422         4.9095
  16   0.0000       0.207841         5.6556
  17   0.0000       0.566058        15.4032
  18   0.0000       0.623380        16.9630
  19   0.0000       0.644388        17.5347

MULLIKEN ATOMIC CHARGES
-----------------------
   0 C :    0.188406
   1 O :   -0.341551
   2 C :   -0.143683
   3 C :   -0.282042
   4 H :    0.136711
   5 H :    0.159741
   6 H :    0.140612
   7 H :    0.141806
Sum of atomic charges:   -0.0000000

LOEWDIN ATOMIC CHARGES
----------------------
   0 C :    0.161867
   1 O :   -0.237789
   2 C :   -0.100022
   3 C :   -0.175199
   4 H :    0.074617
   5 H :    0.109087
   6 H :    0.081886
   7 H :    0.085552

  Mayer bond orders larger than 0.100000
B(  0-C ,  1-O ) :   1.9600 B(  0-C ,  2-C ) :   0.9828 B(  0-C ,  4-H ) :   0.9084
B(  2-C ,  3-C ) :   1.9914 B(  2-C ,  5-H ) :   0.9483 B(  3-C ,  6-H ) :   0.9700
B(  3-C ,  7-H ) :   0.9676

-----------------------------------------------------------------------------
         ABSORPTION SPECTRUM VIA TRANSITION ELECTRIC DIPOLE MOMENTS
-----------------------------------------------------------------------------
State   Energy    Wavelength  fosc         T2        TX        TY        TZ
        (cm-1)      (nm)                 (au**2)    (au)      (au)      (au)
-----------------------------------------------------------------------------
   1   35924.4    278.4   0.000073979   0.00068  -0.02418  -0.00477  -0.00840

Dispersion correction           -0.025343053
FINAL SINGLE POINT ENERGY      -189.293680739358

DIPOLE MOMENT
-------------
                                X             Y             Z
Electronic contribution:     -2.71606      -1.42377       0.86048
Nuclear contribution   :      3.01311       2.20394      -1.31098
                        -----------------------------------------
Total Dipole Moment    :      0.29705       0.78017      -0.45050
                        -----------------------------------------
Magnitude (a.u.)       :      0.94861
Magnitude (Debye)      :      2.41117

Rotational constants in cm-1:     0.898823     0.178027     0.161837
Rotational constants in MHz : 26946.028628  5337.120862  4851.755656

                             ****ORCA TERMINATED NORMALLY****
TOTAL RUN TIME: 0 days 0 hours 0 minutes 10 seconds 652 msec
