                         Program Version 5.0.3 -  RELEASE  -
|  1> ! HF-3c
|  2> !TightSCF
|  3> %scf
|  4>  ConvForced true
|  5>  convergence tight
|  6>  MaxIter 500
|  7> end
|  8>
|  9> %tddft
| 10>  nroots 1
| 11> end
| 12>
| 13> # 	24340
| 14> * xyz 0 1
| 15> 		C   -0.579725  -0.458902   0.019118
| 16> 		O   -0.578915  -1.580122  -0.014982
| 17> 		C    0.615550   0.394388   0.016012
| 18> 		C    1.862753  -0.139591  -0.017034
| 19> 		H   -1.562965  -0.077867   0.052126
| 20> 		H    0.495056   1.542571  -0.224693
| 21> 		H    1.892620  -1.231919   0.089833
| 22> 		H    2.699619   0.502436   0.098222
| 23> *
| 24>
| 25>                          ****END OF INPUT****

CARTESIAN COORDINATES (ANGSTROEM)
---------------------------------
  C     -0.579725   -0.458902    0.019118
  O     -0.578915   -1.580122   -0.014982
  C      0.615550    0.394388    0.016012
  C      1.862753   -0.139591   -0.017034
  H     -1.562965   -0.077867    0.052126
  H      0.495056    1.542571   -0.224693
  H      1.892620   -1.231919    0.089833
  H      2.699619    0.502436    0.098222

 Total Charge           Charge          ....    0
 Multiplicity           Mult            ....    1
 Number of Electrons    NEL             ....   30
 Basis Dimension        Dim             ....   24

ORBITAL ENERGIES
----------------

  NO   OCC          E(Eh)            E(eV)
   0   2.0000     -20.385683      -554.7226
   1   2.0000     -11.318499      -307.9920
   2   2.0000     -11.185666      -304.3774
   3   2.0000     -11.180956      -304.2493
   4   2.0000      -1.476742       -40.1842
   5   2.0000      -1.069693       -29.1078
   6   2.0000      -0.887386       -24.1470
   7   2.0000      -0.768743       -20.9186
   8   2.0000      -0.703739       -19.1497
   9   2.0000      -0.622873       -16.9492
  10   2.0000      -0.607792       -16.5389
  11   2.0000      -0.586099       -15.9486
  12   2.0000      -0.521928       -14.2024
  13   2.0000      -0.411989       -11.2108
  14   2.0000      -0.389533       -10.5997
  15   0.0000       0.140167         3.8141
  16   0.0000       0.322453         8.7744
  17   0.0000       0.548456        14.9242
  18   0.0000       0.596433        16.2298
  19   0.0000       0.641325        17.4514

MULLIKEN ATOMIC CHARGES
-----------------------
   0 C :    0.167804
   1 O :   -0.366677
   2 C :   -0.158076
   3 C :   -0.229583
   4 H :    0.135943
   5 H :    0.141939
   6 H :    0.160338
   7 H :    0.148313
Sum of atomic charges:   -0.0000000

LOEWDIN ATOMIC CHARGES
----------------------
   0 C :    0.133285
   1 O :   -0.242712
   2 C :   -0.127483
   3 C :   -0.128022
   4 H :    0.064567
   5 H :    0.097420
   6 H :    0.107153
   7 H :    0.095791

  Mayer bond orders larger than 0.100000
B(  0-C ,  1-O ) :   1.9071 B(  0-C ,  2-C ) :   1.0108 B(  0-C ,  4-H ) :   0.9245
B(  2-C ,  3-C ) :   1.9471 B(  2-C ,  5-H ) :   0.9583 B(  3-C ,  6-H ) :   0.9575
B(  3-C ,  7-H ) :   0.9659

-----------------------------------------------------------------------------
         ABSORPTION SPECTRUM VIA TRANSITION ELECTRIC DIPOLE MOMENTS
-----------------------------------------------------------------------------
State   Energy    Wavelength  fosc         T2        TX        TY        TZ
        (cm-1)      (nm)                 (au**2)    (au)      (au)      (au)
-----------------------------------------------------------------------------
   1   36366.6    275.0   0.000207393   0.00188   0.03991   0.00137  -0.01682

Dispersion correction           -0.025912282
FINAL SINGLE POINT ENERGY      -189.289485482351

DIPOLE MOMENT
-------------
                                X             Y             Z
Electronic contribution:     -1.85215      -1.62675      -0.00227
Nuclear contribution   :      2.14915       2.48018       0.01476
                        -----------------------------------------
Total Dipole Moment    :      0.29699       0.85343       0.01249
                        -----------------------------------------
Magnitude (a.u.)       :      0.90371
Magnitude (Debye)      :      2.29705

Rotational constants in cm-1:     0.817620     0.212295     0.168825
Rotational constants in MHz : 24511.642541  6364.439237  5061.248294

                             ****ORCA TERMINATED NORMALLY****
TOTAL RUN TIME: 0 days 0 hours 0 minutes 16 seconds 109 msec
