                         Program Version 5.0.3 -  RELEASE  -
|  1> ! B3LYP cc-pVDZ
|  2> !TightSCF
|  3> %scf
|  4>  ConvForced true
|  5>  convergence tight
|  6>  MaxIter 500
|  7> end
|  8>
|  9> %tddft
| 10>  nroots 1
| 11> end
| 12>
| 13> # 	15346
| 14> * xyz 0 1
| 15> 		C   -1.220042  -0.227665   0.004760
| 16> 		O   -1.242246  -1.316469  -0.590393
| 17> 		C    0.023293   0.490391  -0.115819
| 18> 		C    1.198195  -0.067334   0.121695
| 19> 		H   -1.949447   0.150551   0.701714
| 20> 		H   -0.107530   1.598373  -0.334166
| 21> 		H    1.227927  -1.159047   0.278054
| 22> 		H    2.041462   0.498681  -0.040772
| 23> *
| 24>
| 25>                          ****END OF INPUT****

CARTESIAN COORDINATES (ANGSTROEM)
---------------------------------
  C     -1.220042   -0.227665    0.004760
  O     -1.242246   -1.316469   -0.590393
  C      0.023293    0.490391   -0.115819
  C      1.198195   -0.067334    0.121695
  H     -1.949447    0.150551    0.701714
  H     -0.107530    1.598373   -0.334166
  H      1.227927   -1.159047    0.278054
  H      2.041462    0.498681   -0.040772

 Total Charge           Charge          ....    0
 Multiplicity           Mult            ....    1
 Number of Electrons    NEL             ....   30
 Basis Dimension        Dim             ....   76

ORBITAL ENERGIES
----------------

  NO   OCC          E(Eh)            E(eV)
   0   2.0000     -19.138232      -520.7778
   1   2.0000     -10.273488      -279.5558
   2   2.0000     -10.201387      -277.5939
   3   2.0000     -10.198549      -277.5166
   4   2.0000      -1.033579       -28.1251
   5   2.0000      -0.796965       -21.6865
   6   2.0000      -0.666306       -18.1311
   7   2.0000      -0.549341       -14.9483
   8   2.0000      -0.506342       -13.7783
   9   2.0000      -0.448724       -12.2104
  10   2.0000      -0.438700       -11.9376
  11   2.0000      -0.385236       -10.4828
  12   2.0000      -0.367186        -9.9917
  13   2.0000      -0.289925        -7.8893
  14   2.0000      -0.250498        -6.8164
  15   0.0000      -0.055960        -1.5227
  16   0.0000       0.020582         0.5601
  17   0.0000       0.075935         2.0663
  18   0.0000       0.096331         2.6213
  19   0.0000       0.109490         2.9794

MULLIKEN ATOMIC CHARGES
-----------------------
   0 C :    0.189996
   1 O :   -0.218591
   2 C :   -0.113272
   3 C :    0.101279
   4 H :   -0.004137
   5 H :    0.004638
   6 H :    0.031344
   7 H :    0.008745
Sum of atomic charges:   -0.0000000

LOEWDIN ATOMIC CHARGES
----------------------
   0 C :   -0.007628
   1 O :   -0.023424
   2 C :   -0.063435
   3 C :    0.004740
   4 H :   -0.000631
   5 H :    0.035738
   6 H :    0.037983
   7 H :    0.016656

  Mayer bond orders larger than 0.100000
B(  0-C ,  1-O ) :   2.1498 B(  0-C ,  2-C ) :   1.0549 B(  0-C ,  4-H ) :   0.9257
B(  2-C ,  3-C ) :   2.0180 B(  2-C ,  5-H ) :   0.9252 B(  3-C ,  6-H ) :   0.9333
B(  3-C ,  7-H ) :   0.9375

-----------------------------------------------------------------------------
         ABSORPTION SPECTRUM VIA TRANSITION ELECTRIC DIPOLE MOMENTS
-----------------------------------------------------------------------------
State   Energy    Wavelength  fosc         T2        TX        TY        TZ
        (cm-1)      (nm)                 (au**2)    (au)      (au)      (au)
-----------------------------------------------------------------------------
   1   28834.3    346.8   0.001685518   0.01924   0.13818  -0.00999  -0.00718

FINAL SINGLE POINT ENERGY      -191.656846743589

DIPOLE MOMENT
-------------
                                X             Y             Z
Electronic contribution:     -2.10594      -1.37466      -0.72569
Nuclear contribution   :      2.37137       2.18572       1.14390
                        -----------------------------------------
Total Dipole Moment    :      0.26542       0.81106       0.41821
                        -----------------------------------------
Magnitude (a.u.)       :      0.95035
Magnitude (Debye)      :      2.41560

Rotational constants in cm-1:     0.757358     0.213982     0.176045
Rotational constants in MHz : 22705.012451  6415.030250  5277.684314

                             ****ORCA TERMINATED NORMALLY****
TOTAL RUN TIME: 0 days 0 hours 3 minutes 21 seconds 220 msec
