                         Program Version 5.0.3 -  RELEASE  -
|  1> ! B3LYP cc-pVDZ
|  2> !TightSCF
|  3> %scf
|  4>  ConvForced true
|  5>  convergence tight
|  6>  MaxIter 500
|  7> end
|  8>
|  9> %tddft
| 10>  nroots 1
| 11> end
| 12>
| 13> # 	3170
| 14> * xyz 0 1
| 15> 		C   -1.235454  -0.258397  -0.024741
| 16> 		O   -1.750868  -0.952011  -0.889704
| 17> 		C    0.025978   0.501465  -0.247431
| 18> 		C    1.198140   0.036424   0.128276
| 19> 		H   -1.649602  -0.423938   1.056379
| 20> 		H    0.060758   1.324767  -0.964631
| 21> 		H    1.215253  -0.830541   0.839117
| 22> 		H    2.117963   0.662330   0.074693
| 23> *
| 24>
| 25>                          ****END OF INPUT****

CARTESIAN COORDINATES (ANGSTROEM)
---------------------------------
  C     -1.235454   -0.258397   -0.024741
  O     -1.750868   -0.952011   -0.889704
  C      0.025978    0.501465   -0.247431
  C      1.198140    0.036424    0.128276
  H     -1.649602   -0.423938    1.056379
  H      0.060758    1.324767   -0.964631
  H      1.215253   -0.830541    0.839117
  H      2.117963    0.662330    0.074693

 Total Charge           Charge          ....    0
 Multiplicity           Mult            ....    1
 Number of Electrons    NEL             ....   30
 Basis Dimension        Dim             ....   76

ORBITAL ENERGIES
----------------

  NO   OCC          E(Eh)            E(eV)
   0   2.0000     -19.146904      -521.0138
   1   2.0000     -10.288937      -279.9762
   2   2.0000     -10.209059      -277.8026
   3   2.0000     -10.207820      -277.7689
   4   2.0000      -1.047096       -28.4929
   5   2.0000      -0.801600       -21.8126
   6   2.0000      -0.641922       -17.4676
   7   2.0000      -0.558261       -15.1911
   8   2.0000      -0.488190       -13.2843
   9   2.0000      -0.461402       -12.5554
  10   2.0000      -0.435946       -11.8627
  11   2.0000      -0.387104       -10.5336
  12   2.0000      -0.371897       -10.1198
  13   2.0000      -0.293125        -7.9763
  14   2.0000      -0.256518        -6.9802
  15   0.0000      -0.051701        -1.4069
  16   0.0000       0.000713         0.0194
  17   0.0000       0.078960         2.1486
  18   0.0000       0.084046         2.2870
  19   0.0000       0.100474         2.7340

MULLIKEN ATOMIC CHARGES
-----------------------
   0 C :    0.142999
   1 O :   -0.183686
   2 C :   -0.056288
   3 C :    0.003409
   4 H :    0.003615
   5 H :    0.021855
   6 H :    0.026211
   7 H :    0.041884
Sum of atomic charges:    0.0000000

LOEWDIN ATOMIC CHARGES
----------------------
   0 C :   -0.017257
   1 O :   -0.000573
   2 C :   -0.065160
   3 C :   -0.030885
   4 H :    0.004040
   5 H :    0.039539
   6 H :    0.030922
   7 H :    0.039374

  Mayer bond orders larger than 0.100000
B(  0-C ,  1-O ) :   2.2055 B(  0-C ,  2-C ) :   0.9741 B(  0-C ,  4-H ) :   0.9110
B(  2-C ,  3-C ) :   2.0327 B(  2-C ,  5-H ) :   0.9314 B(  3-C ,  6-H ) :   0.9453
B(  3-C ,  7-H ) :   0.9398

-----------------------------------------------------------------------------
         ABSORPTION SPECTRUM VIA TRANSITION ELECTRIC DIPOLE MOMENTS
-----------------------------------------------------------------------------
State   Energy    Wavelength  fosc         T2        TX        TY        TZ
        (cm-1)      (nm)                 (au**2)    (au)      (au)      (au)
-----------------------------------------------------------------------------
   1   30737.1    325.3   0.000886097   0.00949   0.07250  -0.01410   0.06353

FINAL SINGLE POINT ENERGY      -191.648268707717

DIPOLE MOMENT
-------------
                                X             Y             Z
Electronic contribution:     -2.80812      -0.86521      -1.39239
Nuclear contribution   :      3.38404       1.42157       1.93481
                        -----------------------------------------
Total Dipole Moment    :      0.57592       0.55635       0.54242
                        -----------------------------------------
Magnitude (a.u.)       :      0.96717
Magnitude (Debye)      :      2.45836

Rotational constants in cm-1:     1.031176     0.162915     0.160051
Rotational constants in MHz : 30913.890447  4884.055122  4798.207173

                             ****ORCA TERMINATED NORMALLY****
TOTAL RUN TIME: 0 days 0 hours 3 minutes 27 seconds 445 msec
