                         Program Version 5.0.3 -  RELEASE  -
|  1> ! HF-3c
|  2> !TightSCF
|  3> %scf
|  4>  ConvForced true
|  5>  convergence tight
|  6>  MaxIter 500
|  7> end
|  8>
|  9> %tddft
| 10>  nroots 1
| 11> end
| 12>
| 13> # 	23151
| 14> * xyz 0 1
| 15> 		C   -0.597993  -0.403795   0.003820
| 16> 		O   -0.573010  -1.647832  -0.008116
| 17> 		C    0.662170   0.422880   0.033687
| 18> 		C    1.823738  -0.129552  -0.012369
| 19> 		H   -1.522729   0.086773  -0.040660
| 20> 		H    0.457889   1.347602  -0.158386
| 21> 		H    1.958092  -1.227953   0.086735
| 22> 		H    2.662510   0.517524  -0.069687
| 23> *
| 24>
| 25>                          ****END OF INPUT****

CARTESIAN COORDINATES (ANGSTROEM)
---------------------------------
  C     -0.597993   -0.403795    0.003820
  O     -0.573010   -1.647832   -0.008116
  C      0.662170    0.422880    0.033687
  C      1.823738   -0.129552   -0.012369
  H     -1.522729    0.086773   -0.040660
  H      0.457889    1.347602   -0.158386
  H      1.958092   -1.227953    0.086735
  H      2.662510    0.517524   -0.069687

 Total Charge           Charge          ....    0
 Multiplicity           Mult            ....    1
 Number of Electrons    NEL             ....   30
 Basis Dimension        Dim             ....   24

ORBITAL ENERGIES
----------------

  NO   OCC          E(Eh)            E(eV)
   0   2.0000     -20.357280      -553.9498
   1   2.0000     -11.287324      -307.1437
   2   2.0000     -11.200802      -304.7893
   3   2.0000     -11.196698      -304.6776
   4   2.0000      -1.378762       -37.5180
   5   2.0000      -1.101390       -29.9704
   6   2.0000      -0.903764       -24.5927
   7   2.0000      -0.769222       -20.9316
   8   2.0000      -0.718544       -19.5526
   9   2.0000      -0.626723       -17.0540
  10   2.0000      -0.596785       -16.2393
  11   2.0000      -0.542702       -14.7677
  12   2.0000      -0.529305       -14.4031
  13   2.0000      -0.419500       -11.4152
  14   2.0000      -0.408013       -11.1026
  15   0.0000       0.131916         3.5896
  16   0.0000       0.299653         8.1540
  17   0.0000       0.538127        14.6432
  18   0.0000       0.646354        17.5882
  19   0.0000       0.719062        19.5667

MULLIKEN ATOMIC CHARGES
-----------------------
   0 C :    0.154273
   1 O :   -0.344628
   2 C :   -0.197421
   3 C :   -0.216022
   4 H :    0.140627
   5 H :    0.142583
   6 H :    0.170420
   7 H :    0.150167
Sum of atomic charges:    0.0000000

LOEWDIN ATOMIC CHARGES
----------------------
   0 C :    0.146908
   1 O :   -0.259976
   2 C :   -0.140371
   3 C :   -0.113257
   4 H :    0.073204
   5 H :    0.081144
   6 H :    0.115837
   7 H :    0.096511

  Mayer bond orders larger than 0.100000
B(  0-C ,  1-O ) :   1.9126 B(  0-C ,  2-C ) :   1.0119 B(  0-C ,  4-H ) :   0.9379
B(  2-C ,  3-C ) :   1.9603 B(  2-C ,  5-H ) :   0.9620 B(  3-C ,  6-H ) :   0.9533
B(  3-C ,  7-H ) :   0.9617

-----------------------------------------------------------------------------
         ABSORPTION SPECTRUM VIA TRANSITION ELECTRIC DIPOLE MOMENTS
-----------------------------------------------------------------------------
State   Energy    Wavelength  fosc         T2        TX        TY        TZ
        (cm-1)      (nm)                 (au**2)    (au)      (au)      (au)
-----------------------------------------------------------------------------
   1   30832.3    324.3   0.000064937   0.00069  -0.02510  -0.00181   0.00775

Dispersion correction           -0.026200768
FINAL SINGLE POINT ENERGY      -189.333508923661

DIPOLE MOMENT
-------------
                                X             Y             Z
Electronic contribution:     -1.88254      -1.61337       0.13030
Nuclear contribution   :      2.17885       2.46658      -0.17010
                        -----------------------------------------
Total Dipole Moment    :      0.29632       0.85321      -0.03980
                        -----------------------------------------
Magnitude (a.u.)       :      0.90408
Magnitude (Debye)      :      2.29798

Rotational constants in cm-1:     0.771558     0.211279     0.166044
Rotational constants in MHz : 23130.716945  6333.984102  4977.873495

                             ****ORCA TERMINATED NORMALLY****
TOTAL RUN TIME: 0 days 0 hours 0 minutes 13 seconds 564 msec
