                         Program Version 5.0.3 -  RELEASE  -
|  1> ! B3LYP cc-pVDZ
|  2> !TightSCF
|  3> %scf
|  4>  ConvForced true
|  5>  convergence tight
|  6>  MaxIter 500
|  7> end
|  8>
|  9> %tddft
| 10>  nroots 1
| 11> end
| 12>
| 13> # 	7993
| 14> * xyz 0 1
| 15> 		C   -1.083772  -0.197937   0.051170
| 16> 		O   -2.013114  -0.480776   0.940784
| 17> 		C    0.089299   0.477954   0.257649
| 18> 		C    1.188272   0.090894  -0.286742
| 19> 		H   -1.422737  -0.785607  -0.971030
| 20> 		H   -0.073710   1.144469   1.029493
| 21> 		H    1.241223  -0.743227  -0.935481
| 22> 		H    2.087413   0.545446  -0.027120
| 23> *
| 24>
| 25>                          ****END OF INPUT****

CARTESIAN COORDINATES (ANGSTROEM)
---------------------------------
  C     -1.083772   -0.197937    0.051170
  O     -2.013114   -0.480776    0.940784
  C      0.089299    0.477954    0.257649
  C      1.188272    0.090894   -0.286742
  H     -1.422737   -0.785607   -0.971030
  H     -0.073710    1.144469    1.029493
  H      1.241223   -0.743227   -0.935481
  H      2.087413    0.545446   -0.027120

 Total Charge           Charge          ....    0
 Multiplicity           Mult            ....    1
 Number of Electrons    NEL             ....   30
 Basis Dimension        Dim             ....   76

ORBITAL ENERGIES
----------------

  NO   OCC          E(Eh)            E(eV)
   0   2.0000     -19.131331      -520.5900
   1   2.0000     -10.278179      -279.6835
   2   2.0000     -10.216071      -277.9934
   3   2.0000     -10.204781      -277.6862
   4   2.0000      -0.988752       -26.9053
   5   2.0000      -0.837810       -22.7980
   6   2.0000      -0.677392       -18.4328
   7   2.0000      -0.568628       -15.4731
   8   2.0000      -0.496504       -13.5106
   9   2.0000      -0.479587       -13.0502
  10   2.0000      -0.406452       -11.0601
  11   2.0000      -0.398650       -10.8478
  12   2.0000      -0.366529        -9.9737
  13   2.0000      -0.296297        -8.0627
  14   2.0000      -0.243891        -6.6366
  15   0.0000      -0.077628        -2.1124
  16   0.0000       0.031848         0.8666
  17   0.0000       0.074374         2.0238
  18   0.0000       0.086591         2.3563
  19   0.0000       0.107772         2.9326

MULLIKEN ATOMIC CHARGES
-----------------------
   0 C :    0.084079
   1 O :   -0.274679
   2 C :    0.033737
   3 C :    0.135974
   4 H :    0.003933
   5 H :   -0.021333
   6 H :    0.018134
   7 H :    0.020155
Sum of atomic charges:    0.0000000

LOEWDIN ATOMIC CHARGES
----------------------
   0 C :    0.010589
   1 O :   -0.103870
   2 C :   -0.059646
   3 C :    0.044507
   4 H :    0.015873
   5 H :    0.033676
   6 H :    0.031206
   7 H :    0.027666

  Mayer bond orders larger than 0.100000
B(  0-C ,  1-O ) :   2.0346 B(  0-C ,  2-C ) :   1.1236 B(  0-C ,  4-H ) :   0.9339
B(  1-O ,  3-C ) :   0.1121 B(  2-C ,  3-C ) :   1.9318 B(  2-C ,  5-H ) :   0.9257
B(  3-C ,  6-H ) :   0.9364 B(  3-C ,  7-H ) :   0.9319

-----------------------------------------------------------------------------
         ABSORPTION SPECTRUM VIA TRANSITION ELECTRIC DIPOLE MOMENTS
-----------------------------------------------------------------------------
State   Energy    Wavelength  fosc         T2        TX        TY        TZ
        (cm-1)      (nm)                 (au**2)    (au)      (au)      (au)
-----------------------------------------------------------------------------
   1   23340.4    428.4   0.000324152   0.00457   0.05457  -0.03413  -0.02073

FINAL SINGLE POINT ENERGY      -191.656635941381

DIPOLE MOMENT
-------------
                                X             Y             Z
Electronic contribution:     -2.40597      -0.04149       1.21256
Nuclear contribution   :      3.57298       0.35062      -1.80237
                        -----------------------------------------
Total Dipole Moment    :      1.16701       0.30913      -0.58981
                        -----------------------------------------
Magnitude (a.u.)       :      1.34363
Magnitude (Debye)      :      3.41524

Rotational constants in cm-1:     1.436475     0.159784     0.150047
Rotational constants in MHz : 43064.444515  4790.193278  4498.302992

                             ****ORCA TERMINATED NORMALLY****
TOTAL RUN TIME: 0 days 0 hours 3 minutes 14 seconds 563 msec
