                         Program Version 5.0.3 -  RELEASE  -
|  1> ! HF-3c
|  2> !TightSCF
|  3> %scf
|  4>  ConvForced true
|  5>  convergence tight
|  6>  MaxIter 500
|  7> end
|  8>
|  9> %tddft
| 10>  nroots 1
| 11> end
| 12>
| 13> # 	10273
| 14> * xyz 0 1
| 15> 		C   -1.206049  -0.337986   0.014359
| 16> 		O   -1.819661  -0.944543   0.851648
| 17> 		C   -0.014708   0.457671   0.265234
| 18> 		C    1.185553   0.055214  -0.171977
| 19> 		H   -1.319808  -0.329178  -1.166250
| 20> 		H   -0.112912   1.357155   1.098709
| 21> 		H    1.228178  -0.910907  -0.866548
| 22> 		H    2.029333   0.719849   0.015382
| 23> *
| 24>
| 25>                          ****END OF INPUT****

CARTESIAN COORDINATES (ANGSTROEM)
---------------------------------
  C     -1.206049   -0.337986    0.014359
  O     -1.819661   -0.944543    0.851648
  C     -0.014708    0.457671    0.265234
  C      1.185553    0.055214   -0.171977
  H     -1.319808   -0.329178   -1.166250
  H     -0.112912    1.357155    1.098709
  H      1.228178   -0.910907   -0.866548
  H      2.029333    0.719849    0.015382

 Total Charge           Charge          ....    0
 Multiplicity           Mult            ....    1
 Number of Electrons    NEL             ....   30
 Basis Dimension        Dim             ....   24

ORBITAL ENERGIES
----------------

  NO   OCC          E(Eh)            E(eV)
   0   2.0000     -20.377215      -554.4922
   1   2.0000     -11.299588      -307.4774
   2   2.0000     -11.177381      -304.1520
   3   2.0000     -11.173469      -304.0455
   4   2.0000      -1.409796       -38.3625
   5   2.0000      -1.073376       -29.2081
   6   2.0000      -0.874400       -23.7936
   7   2.0000      -0.733117       -19.9491
   8   2.0000      -0.647031       -17.6066
   9   2.0000      -0.637163       -17.3381
  10   2.0000      -0.594504       -16.1773
  11   2.0000      -0.533838       -14.5265
  12   2.0000      -0.498514       -13.5653
  13   2.0000      -0.400895       -10.9089
  14   2.0000      -0.387860       -10.5542
  15   0.0000       0.162459         4.4207
  16   0.0000       0.256778         6.9873
  17   0.0000       0.499458        13.5909
  18   0.0000       0.538750        14.6601
  19   0.0000       0.586226        15.9520

MULLIKEN ATOMIC CHARGES
-----------------------
   0 C :    0.179444
   1 O :   -0.350331
   2 C :   -0.160011
   3 C :   -0.240809
   4 H :    0.134841
   5 H :    0.153348
   6 H :    0.140448
   7 H :    0.143070
Sum of atomic charges:    0.0000000

LOEWDIN ATOMIC CHARGES
----------------------
   0 C :    0.154401
   1 O :   -0.251561
   2 C :   -0.127867
   3 C :   -0.157521
   4 H :    0.077836
   5 H :    0.111632
   6 H :    0.099354
   7 H :    0.093725

  Mayer bond orders larger than 0.100000
B(  0-C ,  1-O ) :   1.9384 B(  0-C ,  2-C ) :   1.0054 B(  0-C ,  4-H ) :   0.9041
B(  2-C ,  3-C ) :   1.9807 B(  2-C ,  5-H ) :   0.9398 B(  3-C ,  6-H ) :   0.9597
B(  3-C ,  7-H ) :   0.9628

-----------------------------------------------------------------------------
         ABSORPTION SPECTRUM VIA TRANSITION ELECTRIC DIPOLE MOMENTS
-----------------------------------------------------------------------------
State   Energy    Wavelength  fosc         T2        TX        TY        TZ
        (cm-1)      (nm)                 (au**2)    (au)      (au)      (au)
-----------------------------------------------------------------------------
   1   34622.8    288.8   0.000016214   0.00015  -0.00043   0.01031  -0.00690

Dispersion correction           -0.025283024
FINAL SINGLE POINT ENERGY      -189.292230662110

DIPOLE MOMENT
-------------
                                X             Y             Z
Electronic contribution:     -2.89893      -1.06286       1.14495
Nuclear contribution   :      3.54625       1.58886      -1.78958
                        -----------------------------------------
Total Dipole Moment    :      0.64732       0.52599      -0.64463
                        -----------------------------------------
Magnitude (a.u.)       :      1.05415
Magnitude (Debye)      :      2.67944

Rotational constants in cm-1:     1.069317     0.163636     0.158322
Rotational constants in MHz : 32057.328094  4905.686154  4746.372995

                             ****ORCA TERMINATED NORMALLY****
TOTAL RUN TIME: 0 days 0 hours 0 minutes 11 seconds 177 msec
