                         Program Version 5.0.3 -  RELEASE  -
|  1> ! HF-3c
|  2> !TightSCF
|  3> %scf
|  4>  ConvForced true
|  5>  convergence tight
|  6>  MaxIter 500
|  7> end
|  8>
|  9> %tddft
| 10>  nroots 1
| 11> end
| 12>
| 13> # 	885
| 14> * xyz 0 1
| 15> 		C   -1.222062  -0.378698   0.044477
| 16> 		O   -1.337816  -1.473628   0.522785
| 17> 		C   -0.026532   0.494401   0.182126
| 18> 		C    1.225142   0.011278  -0.103001
| 19> 		H   -1.971678   0.169615  -0.689073
| 20> 		H   -0.164537   1.539442   0.350542
| 21> 		H    1.444753  -1.044405  -0.475277
| 22> 		H    2.084809   0.731141   0.088017
| 23> *
| 24>
| 25>                          ****END OF INPUT****

CARTESIAN COORDINATES (ANGSTROEM)
---------------------------------
  C     -1.222062   -0.378698    0.044477
  O     -1.337816   -1.473628    0.522785
  C     -0.026532    0.494401    0.182126
  C      1.225142    0.011278   -0.103001
  H     -1.971678    0.169615   -0.689073
  H     -0.164537    1.539442    0.350542
  H      1.444753   -1.044405   -0.475277
  H      2.084809    0.731141    0.088017

 Total Charge           Charge          ....    0
 Multiplicity           Mult            ....    1
 Number of Electrons    NEL             ....   30
 Basis Dimension        Dim             ....   24

ORBITAL ENERGIES
----------------

  NO   OCC          E(Eh)            E(eV)
   0   2.0000     -20.374417      -554.4161
   1   2.0000     -11.298297      -307.4423
   2   2.0000     -11.180615      -304.2400
   3   2.0000     -11.177323      -304.1504
   4   2.0000      -1.408309       -38.3220
   5   2.0000      -1.061307       -28.8796
   6   2.0000      -0.875382       -23.8204
   7   2.0000      -0.735897       -20.0248
   8   2.0000      -0.685320       -18.6485
   9   2.0000      -0.609619       -16.5886
  10   2.0000      -0.598125       -16.2758
  11   2.0000      -0.539162       -14.6713
  12   2.0000      -0.515714       -14.0333
  13   2.0000      -0.405816       -11.0428
  14   2.0000      -0.379031       -10.3140
  15   0.0000       0.152789         4.1576
  16   0.0000       0.264354         7.1934
  17   0.0000       0.542170        14.7532
  18   0.0000       0.587172        15.9778
  19   0.0000       0.610445        16.6110

MULLIKEN ATOMIC CHARGES
-----------------------
   0 C :    0.185019
   1 O :   -0.353895
   2 C :   -0.184241
   3 C :   -0.209628
   4 H :    0.130535
   5 H :    0.142618
   6 H :    0.150019
   7 H :    0.139574
Sum of atomic charges:    0.0000000

LOEWDIN ATOMIC CHARGES
----------------------
   0 C :    0.157902
   1 O :   -0.254136
   2 C :   -0.143066
   3 C :   -0.121584
   4 H :    0.073884
   5 H :    0.090822
   6 H :    0.102271
   7 H :    0.093907

  Mayer bond orders larger than 0.100000
B(  0-C ,  1-O ) :   1.9350 B(  0-C ,  2-C ) :   1.0060 B(  0-C ,  4-H ) :   0.9061
B(  2-C ,  3-C ) :   1.9598 B(  2-C ,  5-H ) :   0.9577 B(  3-C ,  6-H ) :   0.9627
B(  3-C ,  7-H ) :   0.9643

-----------------------------------------------------------------------------
         ABSORPTION SPECTRUM VIA TRANSITION ELECTRIC DIPOLE MOMENTS
-----------------------------------------------------------------------------
State   Energy    Wavelength  fosc         T2        TX        TY        TZ
        (cm-1)      (nm)                 (au**2)    (au)      (au)      (au)
-----------------------------------------------------------------------------
   1   34623.3    288.8   0.000119673   0.00114  -0.03158  -0.00237   0.01163

Dispersion correction           -0.025028620
FINAL SINGLE POINT ENERGY      -189.317891669143

DIPOLE MOMENT
-------------
                                X             Y             Z
Electronic contribution:     -2.27243      -1.79314       0.81109
Nuclear contribution   :      2.65029       2.67501      -1.28585
                        -----------------------------------------
Total Dipole Moment    :      0.37787       0.88188      -0.47476
                        -----------------------------------------
Magnitude (a.u.)       :      1.07046
Magnitude (Debye)      :      2.72090

Rotational constants in cm-1:     0.792477     0.189235     0.160060
Rotational constants in MHz : 23757.870533  5673.123229  4798.476548

                             ****ORCA TERMINATED NORMALLY****
TOTAL RUN TIME: 0 days 0 hours 0 minutes 8 seconds 930 msec
