                         Program Version 5.0.3 -  RELEASE  -
|  1> ! B3LYP cc-pVDZ
|  2> !TightSCF
|  3> %scf
|  4>  ConvForced true
|  5>  convergence tight
|  6>  MaxIter 500
|  7> end
|  8>
|  9> %tddft
| 10>  nroots 1
| 11> end
| 12>
| 13> # 	20720
| 14> * xyz 0 1
| 15> 		C   -0.584732  -0.394625  -0.021927
| 16> 		O   -0.582490  -1.668247   0.005445
| 17> 		C    0.647969   0.421458   0.039926
| 18> 		C    1.845480  -0.111251  -0.024682
| 19> 		H   -1.697702   0.043424  -0.008146
| 20> 		H    0.385775   1.376978  -0.085863
| 21> 		H    1.891242  -1.270643   0.070724
| 22> 		H    2.874841   0.575949   0.012833
| 23> *
| 24>
| 25>                          ****END OF INPUT****

CARTESIAN COORDINATES (ANGSTROEM)
---------------------------------
  C     -0.584732   -0.394625   -0.021927
  O     -0.582490   -1.668247    0.005445
  C      0.647969    0.421458    0.039926
  C      1.845480   -0.111251   -0.024682
  H     -1.697702    0.043424   -0.008146
  H      0.385775    1.376978   -0.085863
  H      1.891242   -1.270643    0.070724
  H      2.874841    0.575949    0.012833

 Total Charge           Charge          ....    0
 Multiplicity           Mult            ....    1
 Number of Electrons    NEL             ....   30
 Basis Dimension        Dim             ....   76

ORBITAL ENERGIES
----------------

  NO   OCC          E(Eh)            E(eV)
   0   2.0000     -19.135300      -520.6980
   1   2.0000     -10.283228      -279.8209
   2   2.0000     -10.233119      -278.4573
   3   2.0000     -10.202153      -277.6147
   4   2.0000      -1.010998       -27.5106
   5   2.0000      -0.804256       -21.8849
   6   2.0000      -0.652793       -17.7634
   7   2.0000      -0.537443       -14.6246
   8   2.0000      -0.499139       -13.5823
   9   2.0000      -0.445929       -12.1343
  10   2.0000      -0.410179       -11.1615
  11   2.0000      -0.383561       -10.4372
  12   2.0000      -0.369530       -10.0554
  13   2.0000      -0.292001        -7.9458
  14   2.0000      -0.251934        -6.8555
  15   0.0000      -0.077389        -2.1059
  16   0.0000       0.047202         1.2844
  17   0.0000       0.055747         1.5170
  18   0.0000       0.074817         2.0359
  19   0.0000       0.113762         3.0956

MULLIKEN ATOMIC CHARGES
-----------------------
   0 C :    0.120064
   1 O :   -0.240999
   2 C :    0.021191
   3 C :   -0.006499
   4 H :    0.014408
   5 H :   -0.046531
   6 H :    0.068854
   7 H :    0.069511
Sum of atomic charges:   -0.0000000

LOEWDIN ATOMIC CHARGES
----------------------
   0 C :   -0.000199
   1 O :   -0.069524
   2 C :   -0.080409
   3 C :    0.012684
   4 H :    0.016729
   5 H :    0.005391
   6 H :    0.054087
   7 H :    0.061241

  Mayer bond orders larger than 0.100000
B(  0-C ,  1-O ) :   2.1029 B(  0-C ,  2-C ) :   1.0586 B(  0-C ,  4-H ) :   0.9185
B(  2-C ,  3-C ) :   1.9429 B(  2-C ,  5-H ) :   0.9528 B(  3-C ,  6-H ) :   0.9099
B(  3-C ,  7-H ) :   0.9341

-----------------------------------------------------------------------------
         ABSORPTION SPECTRUM VIA TRANSITION ELECTRIC DIPOLE MOMENTS
-----------------------------------------------------------------------------
State   Energy    Wavelength  fosc         T2        TX        TY        TZ
        (cm-1)      (nm)                 (au**2)    (au)      (au)      (au)
-----------------------------------------------------------------------------
   1   25049.5    399.2   0.000331631   0.00436  -0.04632  -0.00148   0.04702

FINAL SINGLE POINT ENERGY      -191.659222743369

DIPOLE MOMENT
-------------
                                X             Y             Z
Electronic contribution:     -1.67452      -1.50055      -0.00558
Nuclear contribution   :      2.08367       2.46873      -0.00948
                        -----------------------------------------
Total Dipole Moment    :      0.40915       0.96818      -0.01506
                        -----------------------------------------
Magnitude (a.u.)       :      1.05119
Magnitude (Debye)      :      2.67191

Rotational constants in cm-1:     0.748818     0.204525     0.160786
Rotational constants in MHz : 22449.002843  6131.500215  4820.253525

                             ****ORCA TERMINATED NORMALLY****
TOTAL RUN TIME: 0 days 0 hours 3 minutes 15 seconds 304 msec
