                         Program Version 5.0.3 -  RELEASE  -
|  1> ! HF-3c
|  2> !TightSCF
|  3> %scf
|  4>  ConvForced true
|  5>  convergence tight
|  6>  MaxIter 500
|  7> end
|  8>
|  9> %tddft
| 10>  nroots 1
| 11> end
| 12>
| 13> # 	574
| 14> * xyz 0 1
| 15> 		C   -1.209013  -0.315799  -0.023134
| 16> 		O   -1.937085  -0.789988  -0.875099
| 17> 		C    0.044459   0.479162  -0.292070
| 18> 		C    1.190097   0.140614   0.274450
| 19> 		H   -1.448391  -0.595559   1.020572
| 20> 		H   -0.133879   1.135464  -1.005808
| 21> 		H    1.313567  -0.590870   0.941231
| 22> 		H    2.221610   0.597726  -0.008467
| 23> *
| 24>
| 25>                          ****END OF INPUT****

CARTESIAN COORDINATES (ANGSTROEM)
---------------------------------
  C     -1.209013   -0.315799   -0.023134
  O     -1.937085   -0.789988   -0.875099
  C      0.044459    0.479162   -0.292070
  C      1.190097    0.140614    0.274450
  H     -1.448391   -0.595559    1.020572
  H     -0.133879    1.135464   -1.005808
  H      1.313567   -0.590870    0.941231
  H      2.221610    0.597726   -0.008467

 Total Charge           Charge          ....    0
 Multiplicity           Mult            ....    1
 Number of Electrons    NEL             ....   30
 Basis Dimension        Dim             ....   24

ORBITAL ENERGIES
----------------

  NO   OCC          E(Eh)            E(eV)
   0   2.0000     -20.368196      -554.2468
   1   2.0000     -11.294817      -307.3476
   2   2.0000     -11.205373      -304.9137
   3   2.0000     -11.201205      -304.8003
   4   2.0000      -1.399807       -38.0907
   5   2.0000      -1.093039       -29.7431
   6   2.0000      -0.887235       -24.1429
   7   2.0000      -0.796954       -21.6862
   8   2.0000      -0.679541       -18.4913
   9   2.0000      -0.657154       -17.8821
  10   2.0000      -0.602183       -16.3862
  11   2.0000      -0.550055       -14.9678
  12   2.0000      -0.522041       -14.2055
  13   2.0000      -0.413900       -11.2628
  14   2.0000      -0.406780       -11.0690
  15   0.0000       0.149724         4.0742
  16   0.0000       0.257678         7.0118
  17   0.0000       0.509697        13.8696
  18   0.0000       0.628550        17.1037
  19   0.0000       0.703359        19.1394

MULLIKEN ATOMIC CHARGES
-----------------------
   0 C :    0.171213
   1 O :   -0.347830
   2 C :   -0.181105
   3 C :   -0.230276
   4 H :    0.136716
   5 H :    0.156815
   6 H :    0.141029
   7 H :    0.153439
Sum of atomic charges:   -0.0000000

LOEWDIN ATOMIC CHARGES
----------------------
   0 C :    0.152378
   1 O :   -0.254576
   2 C :   -0.122616
   3 C :   -0.132121
   4 H :    0.073117
   5 H :    0.093393
   6 H :    0.083500
   7 H :    0.106925

  Mayer bond orders larger than 0.100000
B(  0-C ,  1-O ) :   1.9328 B(  0-C ,  2-C ) :   0.9934 B(  0-C ,  4-H ) :   0.9260
B(  2-C ,  3-C ) :   1.9789 B(  2-C ,  5-H ) :   0.9569 B(  3-C ,  6-H ) :   0.9677
B(  3-C ,  7-H ) :   0.9584

-----------------------------------------------------------------------------
         ABSORPTION SPECTRUM VIA TRANSITION ELECTRIC DIPOLE MOMENTS
-----------------------------------------------------------------------------
State   Energy    Wavelength  fosc         T2        TX        TY        TZ
        (cm-1)      (nm)                 (au**2)    (au)      (au)      (au)
-----------------------------------------------------------------------------
   1   33441.7    299.0   0.000058166   0.00057   0.00877   0.01387  -0.01741

Dispersion correction           -0.025276514
FINAL SINGLE POINT ENERGY      -189.315267883479

DIPOLE MOMENT
-------------
                                X             Y             Z
Electronic contribution:     -2.90257      -0.71913      -1.14579
Nuclear contribution   :      3.73324       1.06823       1.78556
                        -----------------------------------------
Total Dipole Moment    :      0.83067       0.34910       0.63977
                        -----------------------------------------
Magnitude (a.u.)       :      1.10508
Magnitude (Debye)      :      2.80888

Rotational constants in cm-1:     1.311319     0.154738     0.147811
Rotational constants in MHz : 39312.356470  4638.929310  4431.272721

                             ****ORCA TERMINATED NORMALLY****
TOTAL RUN TIME: 0 days 0 hours 0 minutes 10 seconds 953 msec
