                         Program Version 5.0.3 -  RELEASE  -
|  1> ! HF-3c
|  2> !TightSCF
|  3> %scf
|  4>  ConvForced true
|  5>  convergence tight
|  6>  MaxIter 500
|  7> end
|  8>
|  9> %tddft
| 10>  nroots 1
| 11> end
| 12>
| 13> # 	13847
| 14> * xyz 0 1
| 15> 		C   -1.216293  -0.266289   0.080507
| 16> 		O   -1.438559  -1.221577   0.803255
| 17> 		C    0.026540   0.503592   0.177999
| 18> 		C    1.198052  -0.000739  -0.106491
| 19> 		H   -1.838153  -0.070209  -0.856175
| 20> 		H   -0.023449   1.461036   0.602616
| 21> 		H    1.237035  -0.968981  -0.672386
| 22> 		H    2.066909   0.555881  -0.052144
| 23> *
| 24>
| 25>                          ****END OF INPUT****

CARTESIAN COORDINATES (ANGSTROEM)
---------------------------------
  C     -1.216293   -0.266289    0.080507
  O     -1.438559   -1.221577    0.803255
  C      0.026540    0.503592    0.177999
  C      1.198052   -0.000739   -0.106491
  H     -1.838153   -0.070209   -0.856175
  H     -0.023449    1.461036    0.602616
  H      1.237035   -0.968981   -0.672386
  H      2.066909    0.555881   -0.052144

 Total Charge           Charge          ....    0
 Multiplicity           Mult            ....    1
 Number of Electrons    NEL             ....   30
 Basis Dimension        Dim             ....   24

ORBITAL ENERGIES
----------------

  NO   OCC          E(Eh)            E(eV)
   0   2.0000     -20.376240      -554.4657
   1   2.0000     -11.300100      -307.4914
   2   2.0000     -11.194133      -304.6079
   3   2.0000     -11.186239      -304.3930
   4   2.0000      -1.403482       -38.1907
   5   2.0000      -1.093596       -29.7583
   6   2.0000      -0.892548       -24.2875
   7   2.0000      -0.762758       -20.7557
   8   2.0000      -0.697432       -18.9781
   9   2.0000      -0.641278       -17.4501
  10   2.0000      -0.609459       -16.5842
  11   2.0000      -0.547704       -14.9038
  12   2.0000      -0.501145       -13.6369
  13   2.0000      -0.417225       -11.3533
  14   2.0000      -0.411483       -11.1970
  15   0.0000       0.175560         4.7772
  16   0.0000       0.224679         6.1138
  17   0.0000       0.560989        15.2653
  18   0.0000       0.628122        17.0921
  19   0.0000       0.694169        18.8893

MULLIKEN ATOMIC CHARGES
-----------------------
   0 C :    0.170677
   1 O :   -0.337362
   2 C :   -0.177678
   3 C :   -0.236950
   4 H :    0.141491
   5 H :    0.150808
   6 H :    0.145216
   7 H :    0.143798
Sum of atomic charges:   -0.0000000

LOEWDIN ATOMIC CHARGES
----------------------
   0 C :    0.151811
   1 O :   -0.244506
   2 C :   -0.125735
   3 C :   -0.143904
   4 H :    0.080685
   5 H :    0.095140
   6 H :    0.097292
   7 H :    0.089216

  Mayer bond orders larger than 0.100000
B(  0-C ,  1-O ) :   1.9453 B(  0-C ,  2-C ) :   0.9970 B(  0-C ,  4-H ) :   0.9156
B(  2-C ,  3-C ) :   1.9919 B(  2-C ,  5-H ) :   0.9494 B(  3-C ,  6-H ) :   0.9626
B(  3-C ,  7-H ) :   0.9648

-----------------------------------------------------------------------------
         ABSORPTION SPECTRUM VIA TRANSITION ELECTRIC DIPOLE MOMENTS
-----------------------------------------------------------------------------
State   Energy    Wavelength  fosc         T2        TX        TY        TZ
        (cm-1)      (nm)                 (au**2)    (au)      (au)      (au)
-----------------------------------------------------------------------------
   1   33610.8    297.5   0.000151465   0.00148  -0.03541  -0.00042  -0.01514

Dispersion correction           -0.025657047
FINAL SINGLE POINT ENERGY      -189.323911763225

DIPOLE MOMENT
-------------
                                X             Y             Z
Electronic contribution:     -2.45122      -1.25715       1.18685
Nuclear contribution   :      2.77414       1.95540      -1.82579
                        -----------------------------------------
Total Dipole Moment    :      0.32292       0.69825      -0.63894
                        -----------------------------------------
Magnitude (a.u.)       :      1.00004
Magnitude (Debye)      :      2.54189

Rotational constants in cm-1:     0.875168     0.186436     0.167764
Rotational constants in MHz : 26236.886640  5589.214935  5029.442464

                             ****ORCA TERMINATED NORMALLY****
TOTAL RUN TIME: 0 days 0 hours 0 minutes 12 seconds 513 msec
