                         Program Version 5.0.3 -  RELEASE  -
|  1> ! B3LYP cc-pVDZ
|  2> !TightSCF
|  3> %scf
|  4>  ConvForced true
|  5>  convergence tight
|  6>  MaxIter 500
|  7> end
|  8>
|  9> %tddft
| 10>  nroots 1
| 11> end
| 12>
| 13> # 	30740
| 14> * xyz 0 1
| 15> 		C   -0.557330  -0.424003   0.026658
| 16> 		O   -0.616135  -1.667732  -0.009626
| 17> 		C    0.599144   0.387699  -0.032270
| 18> 		C    1.873077  -0.094193   0.025456
| 19> 		H   -1.470752   0.198383  -0.060723
| 20> 		H    0.718512   1.549856   0.113773
| 21> 		H    2.073873  -1.152203   0.015414
| 22> 		H    2.655376   0.688751  -0.155220
| 23> *
| 24>
| 25>                          ****END OF INPUT****

CARTESIAN COORDINATES (ANGSTROEM)
---------------------------------
  C     -0.557330   -0.424003    0.026658
  O     -0.616135   -1.667732   -0.009626
  C      0.599144    0.387699   -0.032270
  C      1.873077   -0.094193    0.025456
  H     -1.470752    0.198383   -0.060723
  H      0.718512    1.549856    0.113773
  H      2.073873   -1.152203    0.015414
  H      2.655376    0.688751   -0.155220

 Total Charge           Charge          ....    0
 Multiplicity           Mult            ....    1
 Number of Electrons    NEL             ....   30
 Basis Dimension        Dim             ....   76

ORBITAL ENERGIES
----------------

  NO   OCC          E(Eh)            E(eV)
   0   2.0000     -19.138736      -520.7915
   1   2.0000     -10.274418      -279.5811
   2   2.0000     -10.223056      -278.1835
   3   2.0000     -10.212447      -277.8948
   4   2.0000      -1.026771       -27.9399
   5   2.0000      -0.801336       -21.8055
   6   2.0000      -0.670845       -18.2546
   7   2.0000      -0.537902       -14.6371
   8   2.0000      -0.510965       -13.9041
   9   2.0000      -0.441958       -12.0263
  10   2.0000      -0.412981       -11.2378
  11   2.0000      -0.394449       -10.7335
  12   2.0000      -0.372384       -10.1331
  13   2.0000      -0.286977        -7.8091
  14   2.0000      -0.257003        -6.9934
  15   0.0000      -0.085001        -2.3130
  16   0.0000       0.043605         1.1865
  17   0.0000       0.064350         1.7511
  18   0.0000       0.094238         2.5644
  19   0.0000       0.118478         3.2239

MULLIKEN ATOMIC CHARGES
-----------------------
   0 C :    0.213581
   1 O :   -0.220422
   2 C :   -0.138036
   3 C :    0.059665
   4 H :   -0.017043
   5 H :    0.020834
   6 H :    0.037556
   7 H :    0.043865
Sum of atomic charges:    0.0000000

LOEWDIN ATOMIC CHARGES
----------------------
   0 C :   -0.034349
   1 O :   -0.035272
   2 C :   -0.097377
   3 C :    0.045801
   4 H :   -0.001778
   5 H :    0.054041
   6 H :    0.026512
   7 H :    0.042423

  Mayer bond orders larger than 0.100000
B(  0-C ,  1-O ) :   2.1420 B(  0-C ,  2-C ) :   1.0894 B(  0-C ,  4-H ) :   0.9197
B(  1-O ,  3-C ) :   0.1134 B(  2-C ,  3-C ) :   1.9218 B(  2-C ,  5-H ) :   0.9358
B(  3-C ,  6-H ) :   0.9479 B(  3-C ,  7-H ) :   0.9403

-----------------------------------------------------------------------------
         ABSORPTION SPECTRUM VIA TRANSITION ELECTRIC DIPOLE MOMENTS
-----------------------------------------------------------------------------
State   Energy    Wavelength  fosc         T2        TX        TY        TZ
        (cm-1)      (nm)                 (au**2)    (au)      (au)      (au)
-----------------------------------------------------------------------------
   1   25049.3    399.2   0.000217979   0.00286  -0.04062  -0.00324  -0.03470

FINAL SINGLE POINT ENERGY      -191.673067052359

DIPOLE MOMENT
-------------
                                X             Y             Z
Electronic contribution:     -1.99535      -2.02688       0.09875
Nuclear contribution   :      2.56948       2.99202      -0.08133
                        -----------------------------------------
Total Dipole Moment    :      0.57413       0.96514       0.01742
                        -----------------------------------------
Magnitude (a.u.)       :      1.12313
Magnitude (Debye)      :      2.85477

Rotational constants in cm-1:     0.785684     0.201340     0.160487
Rotational constants in MHz : 23554.202530  6036.006593  4811.283680

                             ****ORCA TERMINATED NORMALLY****
TOTAL RUN TIME: 0 days 0 hours 3 minutes 23 seconds 602 msec
