                         Program Version 5.0.3 -  RELEASE  -
|  1> ! HF-3c
|  2> !TightSCF
|  3> %scf
|  4>  ConvForced true
|  5>  convergence tight
|  6>  MaxIter 500
|  7> end
|  8>
|  9> %tddft
| 10>  nroots 1
| 11> end
| 12>
| 13> # 	24630
| 14> * xyz 0 1
| 15> 		C   -0.560322  -0.412831   0.040497
| 16> 		O   -0.548655  -1.614756  -0.033206
| 17> 		C    0.617973   0.447364  -0.031680
| 18> 		C    1.814225  -0.167963   0.016664
| 19> 		H   -1.670998  -0.062722   0.196973
| 20> 		H    0.366751   1.535791  -0.123703
| 21> 		H    1.858761  -1.271549   0.238149
| 22> 		H    2.787411   0.260330  -0.106007
| 23> *
| 24>
| 25>                          ****END OF INPUT****

CARTESIAN COORDINATES (ANGSTROEM)
---------------------------------
  C     -0.560322   -0.412831    0.040497
  O     -0.548655   -1.614756   -0.033206
  C      0.617973    0.447364   -0.031680
  C      1.814225   -0.167963    0.016664
  H     -1.670998   -0.062722    0.196973
  H      0.366751    1.535791   -0.123703
  H      1.858761   -1.271549    0.238149
  H      2.787411    0.260330   -0.106007

 Total Charge           Charge          ....    0
 Multiplicity           Mult            ....    1
 Number of Electrons    NEL             ....   30
 Basis Dimension        Dim             ....   24

ORBITAL ENERGIES
----------------

  NO   OCC          E(Eh)            E(eV)
   0   2.0000     -20.344997      -553.6155
   1   2.0000     -11.282495      -307.0123
   2   2.0000     -11.195192      -304.6367
   3   2.0000     -11.193030      -304.5778
   4   2.0000      -1.398150       -38.0456
   5   2.0000      -1.074594       -29.2412
   6   2.0000      -0.880245       -23.9527
   7   2.0000      -0.735452       -20.0127
   8   2.0000      -0.695626       -18.9290
   9   2.0000      -0.620407       -16.8821
  10   2.0000      -0.583103       -15.8670
  11   2.0000      -0.535834       -14.5808
  12   2.0000      -0.521539       -14.1918
  13   2.0000      -0.400274       -10.8920
  14   2.0000      -0.388721       -10.5776
  15   0.0000       0.134389         3.6569
  16   0.0000       0.313657         8.5350
  17   0.0000       0.493778        13.4364
  18   0.0000       0.596462        16.2306
  19   0.0000       0.649945        17.6859

MULLIKEN ATOMIC CHARGES
-----------------------
   0 C :    0.159762
   1 O :   -0.367064
   2 C :   -0.180532
   3 C :   -0.207731
   4 H :    0.136216
   5 H :    0.150514
   6 H :    0.163111
   7 H :    0.145723
Sum of atomic charges:    0.0000000

LOEWDIN ATOMIC CHARGES
----------------------
   0 C :    0.134583
   1 O :   -0.273149
   2 C :   -0.136018
   3 C :   -0.108086
   4 H :    0.078629
   5 H :    0.100129
   6 H :    0.110894
   7 H :    0.093018

  Mayer bond orders larger than 0.100000
B(  0-C ,  1-O ) :   1.8913 B(  0-C ,  2-C ) :   1.0349 B(  0-C ,  4-H ) :   0.9261
B(  2-C ,  3-C ) :   1.9381 B(  2-C ,  5-H ) :   0.9562 B(  3-C ,  6-H ) :   0.9549
B(  3-C ,  7-H ) :   0.9659

-----------------------------------------------------------------------------
         ABSORPTION SPECTRUM VIA TRANSITION ELECTRIC DIPOLE MOMENTS
-----------------------------------------------------------------------------
State   Energy    Wavelength  fosc         T2        TX        TY        TZ
        (cm-1)      (nm)                 (au**2)    (au)      (au)      (au)
-----------------------------------------------------------------------------
   1   31853.3    313.9   0.000058107   0.00060  -0.00720  -0.00156   0.02337

Dispersion correction           -0.025732179
FINAL SINGLE POINT ENERGY      -189.333001280838

DIPOLE MOMENT
-------------
                                X             Y             Z
Electronic contribution:     -1.65278      -1.34554      -0.11560
Nuclear contribution   :      1.97984       2.22190       0.19344
                        -----------------------------------------
Total Dipole Moment    :      0.32706       0.87636       0.07784
                        -----------------------------------------
Magnitude (a.u.)       :      0.93864
Magnitude (Debye)      :      2.38582

Rotational constants in cm-1:     0.728765     0.220069     0.169624
Rotational constants in MHz : 21847.831417  6597.514411  5085.208482

                             ****ORCA TERMINATED NORMALLY****
TOTAL RUN TIME: 0 days 0 hours 0 minutes 10 seconds 554 msec
