                         Program Version 5.0.3 -  RELEASE  -
|  1> ! B3LYP cc-pVDZ
|  2> !TightSCF
|  3> %scf
|  4>  ConvForced true
|  5>  convergence tight
|  6>  MaxIter 500
|  7> end
|  8>
|  9> %tddft
| 10>  nroots 1
| 11> end
| 12>
| 13> # 	14348
| 14> * xyz 0 1
| 15> 		C   -1.163721  -0.300248   0.036699
| 16> 		O   -1.427270  -1.256456   0.733756
| 17> 		C   -0.014071   0.487234   0.219393
| 18> 		C    1.206516   0.043883  -0.224108
| 19> 		H   -1.904589  -0.037688  -0.798654
| 20> 		H   -0.229239   1.548492   0.533544
| 21> 		H    1.446068  -1.027187  -0.527546
| 22> 		H    2.133469   0.570527   0.048994
| 23> *
| 24>
| 25>                          ****END OF INPUT****

CARTESIAN COORDINATES (ANGSTROEM)
---------------------------------
  C     -1.163721   -0.300248    0.036699
  O     -1.427270   -1.256456    0.733756
  C     -0.014071    0.487234    0.219393
  C      1.206516    0.043883   -0.224108
  H     -1.904589   -0.037688   -0.798654
  H     -0.229239    1.548492    0.533544
  H      1.446068   -1.027187   -0.527546
  H      2.133469    0.570527    0.048994

 Total Charge           Charge          ....    0
 Multiplicity           Mult            ....    1
 Number of Electrons    NEL             ....   30
 Basis Dimension        Dim             ....   76

ORBITAL ENERGIES
----------------

  NO   OCC          E(Eh)            E(eV)
   0   2.0000     -19.138798      -520.7932
   1   2.0000     -10.275577      -279.6127
   2   2.0000     -10.218906      -278.0706
   3   2.0000     -10.215668      -277.9825
   4   2.0000      -1.048454       -28.5299
   5   2.0000      -0.798278       -21.7223
   6   2.0000      -0.659512       -17.9462
   7   2.0000      -0.545301       -14.8384
   8   2.0000      -0.498436       -13.5631
   9   2.0000      -0.461115       -12.5476
  10   2.0000      -0.439715       -11.9653
  11   2.0000      -0.383477       -10.4349
  12   2.0000      -0.370390       -10.0788
  13   2.0000      -0.283713        -7.7202
  14   2.0000      -0.253567        -6.8999
  15   0.0000      -0.045296        -1.2326
  16   0.0000      -0.010534        -0.2867
  17   0.0000       0.073469         1.9992
  18   0.0000       0.085423         2.3245
  19   0.0000       0.101783         2.7696

MULLIKEN ATOMIC CHARGES
-----------------------
   0 C :    0.153677
   1 O :   -0.189180
   2 C :   -0.055098
   3 C :   -0.019886
   4 H :   -0.013258
   5 H :    0.034310
   6 H :    0.049382
   7 H :    0.040054
Sum of atomic charges:    0.0000000

LOEWDIN ATOMIC CHARGES
----------------------
   0 C :   -0.042225
   1 O :    0.003454
   2 C :   -0.057586
   3 C :   -0.025299
   4 H :   -0.001254
   5 H :    0.049957
   6 H :    0.041269
   7 H :    0.031685

  Mayer bond orders larger than 0.100000
B(  0-C ,  1-O ) :   2.2101 B(  0-C ,  2-C ) :   1.0322 B(  0-C ,  4-H ) :   0.9139
B(  2-C ,  3-C ) :   1.9888 B(  2-C ,  5-H ) :   0.9245 B(  3-C ,  6-H ) :   0.9510
B(  3-C ,  7-H ) :   0.9514

-----------------------------------------------------------------------------
         ABSORPTION SPECTRUM VIA TRANSITION ELECTRIC DIPOLE MOMENTS
-----------------------------------------------------------------------------
State   Energy    Wavelength  fosc         T2        TX        TY        TZ
        (cm-1)      (nm)                 (au**2)    (au)      (au)      (au)
-----------------------------------------------------------------------------
   1   32015.8    312.3   0.000069288   0.00071   0.02041  -0.01616   0.00590

FINAL SINGLE POINT ENERGY      -191.639388706964

DIPOLE MOMENT
-------------
                                X             Y             Z
Electronic contribution:     -2.30258      -1.32704       1.04555
Nuclear contribution   :      2.74861       2.06350      -1.45116
                        -----------------------------------------
Total Dipole Moment    :      0.44603       0.73646      -0.40561
                        -----------------------------------------
Magnitude (a.u.)       :      0.95175
Magnitude (Debye)      :      2.41916

Rotational constants in cm-1:     0.861402     0.185700     0.166228
Rotational constants in MHz : 25824.190507  5567.139141  4983.401566

                             ****ORCA TERMINATED NORMALLY****
TOTAL RUN TIME: 0 days 0 hours 3 minutes 9 seconds 872 msec
