                         Program Version 5.0.3 -  RELEASE  -
|  1> ! B3LYP cc-pVDZ
|  2> !TightSCF
|  3> %scf
|  4>  ConvForced true
|  5>  convergence tight
|  6>  MaxIter 500
|  7> end
|  8>
|  9> %tddft
| 10>  nroots 1
| 11> end
| 12>
| 13> # 	6217
| 14> * xyz 0 1
| 15> 		C   -1.209316  -0.346413   0.042541
| 16> 		O   -2.075864  -0.641679   0.757368
| 17> 		C   -0.039078   0.388935   0.320998
| 18> 		C    1.183946   0.075311  -0.236912
| 19> 		H   -1.201365  -0.725155  -0.916970
| 20> 		H   -0.086392   1.213351   1.179584
| 21> 		H    1.337066  -0.661681  -1.063968
| 22> 		H    2.081832   0.671136  -0.062715
| 23> *
| 24>
| 25>                          ****END OF INPUT****

CARTESIAN COORDINATES (ANGSTROEM)
---------------------------------
  C     -1.209316   -0.346413    0.042541
  O     -2.075864   -0.641679    0.757368
  C     -0.039078    0.388935    0.320998
  C      1.183946    0.075311   -0.236912
  H     -1.201365   -0.725155   -0.916970
  H     -0.086392    1.213351    1.179584
  H      1.337066   -0.661681   -1.063968
  H      2.081832    0.671136   -0.062715

 Total Charge           Charge          ....    0
 Multiplicity           Mult            ....    1
 Number of Electrons    NEL             ....   30
 Basis Dimension        Dim             ....   76

ORBITAL ENERGIES
----------------

  NO   OCC          E(Eh)            E(eV)
   0   2.0000     -19.133218      -520.6413
   1   2.0000     -10.258270      -279.1417
   2   2.0000     -10.227068      -278.2927
   3   2.0000     -10.216600      -278.0078
   4   2.0000      -1.072288       -29.1784
   5   2.0000      -0.799949       -21.7677
   6   2.0000      -0.659951       -17.9582
   7   2.0000      -0.569477       -15.4963
   8   2.0000      -0.485512       -13.2115
   9   2.0000      -0.468248       -12.7417
  10   2.0000      -0.433754       -11.8031
  11   2.0000      -0.405048       -11.0219
  12   2.0000      -0.379609       -10.3297
  13   2.0000      -0.288454        -7.8492
  14   2.0000      -0.252425        -6.8688
  15   0.0000      -0.066515        -1.8100
  16   0.0000       0.042660         1.1608
  17   0.0000       0.072899         1.9837
  18   0.0000       0.080752         2.1974
  19   0.0000       0.128303         3.4913

MULLIKEN ATOMIC CHARGES
-----------------------
   0 C :    0.225279
   1 O :   -0.157108
   2 C :   -0.125355
   3 C :    0.010597
   4 H :   -0.070027
   5 H :    0.032679
   6 H :    0.040254
   7 H :    0.043681
Sum of atomic charges:    0.0000000

LOEWDIN ATOMIC CHARGES
----------------------
   0 C :   -0.090289
   1 O :    0.053334
   2 C :   -0.060828
   3 C :    0.002880
   4 H :   -0.022372
   5 H :    0.050350
   6 H :    0.033972
   7 H :    0.032953

  Mayer bond orders larger than 0.100000
B(  0-C ,  1-O ) :   2.2371 B(  0-C ,  2-C ) :   1.0805 B(  0-C ,  4-H ) :   0.9234
B(  2-C ,  3-C ) :   1.9309 B(  2-C ,  5-H ) :   0.9272 B(  3-C ,  6-H ) :   0.9495
B(  3-C ,  7-H ) :   0.9480

-----------------------------------------------------------------------------
         ABSORPTION SPECTRUM VIA TRANSITION ELECTRIC DIPOLE MOMENTS
-----------------------------------------------------------------------------
State   Energy    Wavelength  fosc         T2        TX        TY        TZ
        (cm-1)      (nm)                 (au**2)    (au)      (au)      (au)
-----------------------------------------------------------------------------
   1   28680.1    348.7   0.000193756   0.00222  -0.04606  -0.00745   0.00687

FINAL SINGLE POINT ENERGY      -191.653626641481

DIPOLE MOMENT
-------------
                                X             Y             Z
Electronic contribution:     -3.16217      -0.70083       1.16358
Nuclear contribution   :      4.10817       1.01847      -1.65739
                        -----------------------------------------
Total Dipole Moment    :      0.94600       0.31764      -0.49381
                        -----------------------------------------
Magnitude (a.u.)       :      1.11340
Magnitude (Debye)      :      2.83003

Rotational constants in cm-1:     1.482362     0.158308     0.147447
Rotational constants in MHz : 44440.102762  4745.948986  4420.341531

                             ****ORCA TERMINATED NORMALLY****
TOTAL RUN TIME: 0 days 0 hours 3 minutes 2 seconds 154 msec
