                         Program Version 5.0.3 -  RELEASE  -
|  1> ! B3LYP cc-pVDZ
|  2> !TightSCF
|  3> %scf
|  4>  ConvForced true
|  5>  convergence tight
|  6>  MaxIter 500
|  7> end
|  8>
|  9> %tddft
| 10>  nroots 1
| 11> end
| 12>
| 13> # 	12817
| 14> * xyz 0 1
| 15> 		C   -1.179638  -0.319582  -0.041720
| 16> 		O   -2.102487  -0.474903  -0.796616
| 17> 		C    0.043820   0.346112  -0.460161
| 18> 		C    1.266583   0.131768   0.198142
| 19> 		H   -1.279353  -0.757451   1.093851
| 20> 		H   -0.020140   1.056358  -1.182481
| 21> 		H    1.278213  -0.763926   0.952430
| 22> 		H    1.993644   0.780402   0.253263
| 23> *
| 24>
| 25>                          ****END OF INPUT****

CARTESIAN COORDINATES (ANGSTROEM)
---------------------------------
  C     -1.179638   -0.319582   -0.041720
  O     -2.102487   -0.474903   -0.796616
  C      0.043820    0.346112   -0.460161
  C      1.266583    0.131768    0.198142
  H     -1.279353   -0.757451    1.093851
  H     -0.020140    1.056358   -1.182481
  H      1.278213   -0.763926    0.952430
  H      1.993644    0.780402    0.253263

 Total Charge           Charge          ....    0
 Multiplicity           Mult            ....    1
 Number of Electrons    NEL             ....   30
 Basis Dimension        Dim             ....   76

ORBITAL ENERGIES
----------------

  NO   OCC          E(Eh)            E(eV)
   0   2.0000     -19.139713      -520.8181
   1   2.0000     -10.281941      -279.7858
   2   2.0000     -10.222071      -278.1567
   3   2.0000     -10.210774      -277.8493
   4   2.0000      -1.053533       -28.6681
   5   2.0000      -0.794601       -21.6222
   6   2.0000      -0.655726       -17.8432
   7   2.0000      -0.565309       -15.3828
   8   2.0000      -0.485133       -13.2011
   9   2.0000      -0.470456       -12.8018
  10   2.0000      -0.426694       -11.6109
  11   2.0000      -0.400222       -10.8906
  12   2.0000      -0.389019       -10.5858
  13   2.0000      -0.280729        -7.6390
  14   2.0000      -0.255233        -6.9452
  15   0.0000      -0.078064        -2.1242
  16   0.0000       0.033514         0.9120
  17   0.0000       0.070300         1.9130
  18   0.0000       0.090304         2.4573
  19   0.0000       0.112428         3.0593

MULLIKEN ATOMIC CHARGES
-----------------------
   0 C :    0.127984
   1 O :   -0.179675
   2 C :   -0.023464
   3 C :    0.059569
   4 H :   -0.011298
   5 H :   -0.018660
   6 H :    0.044088
   7 H :    0.001455
Sum of atomic charges:    0.0000000

LOEWDIN ATOMIC CHARGES
----------------------
   0 C :   -0.056149
   1 O :    0.009723
   2 C :   -0.033851
   3 C :    0.030899
   4 H :    0.000402
   5 H :    0.012588
   6 H :    0.044498
   7 H :   -0.008111

  Mayer bond orders larger than 0.100000
B(  0-C ,  1-O ) :   2.1635 B(  0-C ,  2-C ) :   1.0691 B(  0-C ,  4-H ) :   0.9010
B(  2-C ,  3-C ) :   1.9207 B(  2-C ,  5-H ) :   0.9557 B(  3-C ,  6-H ) :   0.9503
B(  3-C ,  7-H ) :   0.9502

-----------------------------------------------------------------------------
         ABSORPTION SPECTRUM VIA TRANSITION ELECTRIC DIPOLE MOMENTS
-----------------------------------------------------------------------------
State   Energy    Wavelength  fosc         T2        TX        TY        TZ
        (cm-1)      (nm)                 (au**2)    (au)      (au)      (au)
-----------------------------------------------------------------------------
   1   26942.3    371.2   0.000856120   0.01046  -0.06915   0.03887  -0.06456

FINAL SINGLE POINT ENERGY      -191.649524434640

DIPOLE MOMENT
-------------
                                X             Y             Z
Electronic contribution:     -2.89313      -0.34882      -1.59029
Nuclear contribution   :      3.84063       0.65031       2.06218
                        -----------------------------------------
Total Dipole Moment    :      0.94750       0.30150       0.47189
                        -----------------------------------------
Magnitude (a.u.)       :      1.10061
Magnitude (Debye)      :      2.79753

Rotational constants in cm-1:     1.452625     0.154792     0.142532
Rotational constants in MHz : 43548.615463  4640.561844  4272.989029

                             ****ORCA TERMINATED NORMALLY****
TOTAL RUN TIME: 0 days 0 hours 3 minutes 27 seconds 591 msec
