                         Program Version 5.0.3 -  RELEASE  -
|  1> ! B3LYP cc-pVDZ
|  2> !TightSCF
|  3> %scf
|  4>  ConvForced true
|  5>  convergence tight
|  6>  MaxIter 500
|  7> end
|  8>
|  9> %tddft
| 10>  nroots 1
| 11> end
| 12>
| 13> # 	14929
| 14> * xyz 0 1
| 15> 		C   -1.139264  -0.299006  -0.065331
| 16> 		O   -1.477979  -1.296313  -0.647670
| 17> 		C    0.022833   0.491563  -0.265183
| 18> 		C    1.194169   0.012072   0.126850
| 19> 		H   -1.848111   0.086704   0.796249
| 20> 		H   -0.136257   1.579489  -0.548127
| 21> 		H    1.234045  -1.160647   0.510627
| 22> 		H    2.194424   0.534008   0.091864
| 23> *
| 24>
| 25>                          ****END OF INPUT****

CARTESIAN COORDINATES (ANGSTROEM)
---------------------------------
  C     -1.139264   -0.299006   -0.065331
  O     -1.477979   -1.296313   -0.647670
  C      0.022833    0.491563   -0.265183
  C      1.194169    0.012072    0.126850
  H     -1.848111    0.086704    0.796249
  H     -0.136257    1.579489   -0.548127
  H      1.234045   -1.160647    0.510627
  H      2.194424    0.534008    0.091864

 Total Charge           Charge          ....    0
 Multiplicity           Mult            ....    1
 Number of Electrons    NEL             ....   30
 Basis Dimension        Dim             ....   76

ORBITAL ENERGIES
----------------

  NO   OCC          E(Eh)            E(eV)
   0   2.0000     -19.142304      -520.8886
   1   2.0000     -10.280347      -279.7425
   2   2.0000     -10.225705      -278.2556
   3   2.0000     -10.211746      -277.8757
   4   2.0000      -1.053800       -28.6754
   5   2.0000      -0.807952       -21.9855
   6   2.0000      -0.651746       -17.7349
   7   2.0000      -0.535323       -14.5669
   8   2.0000      -0.500841       -13.6286
   9   2.0000      -0.457089       -12.4380
  10   2.0000      -0.443095       -12.0572
  11   2.0000      -0.379372       -10.3233
  12   2.0000      -0.371906       -10.1201
  13   2.0000      -0.292448        -7.9579
  14   2.0000      -0.254588        -6.9277
  15   0.0000      -0.040441        -1.1004
  16   0.0000      -0.000556        -0.0151
  17   0.0000       0.064184         1.7465
  18   0.0000       0.074489         2.0269
  19   0.0000       0.101424         2.7599

MULLIKEN ATOMIC CHARGES
-----------------------
   0 C :    0.144637
   1 O :   -0.176237
   2 C :   -0.044285
   3 C :   -0.040567
   4 H :   -0.018151
   5 H :    0.029832
   6 H :    0.057042
   7 H :    0.047730
Sum of atomic charges:    0.0000000

LOEWDIN ATOMIC CHARGES
----------------------
   0 C :   -0.044003
   1 O :    0.011520
   2 C :   -0.077009
   3 C :   -0.028166
   4 H :   -0.003722
   5 H :    0.050324
   6 H :    0.053606
   7 H :    0.037450

  Mayer bond orders larger than 0.100000
B(  0-C ,  1-O ) :   2.2317 B(  0-C ,  2-C ) :   1.0207 B(  0-C ,  4-H ) :   0.8960
B(  2-C ,  3-C ) :   1.9882 B(  2-C ,  5-H ) :   0.9269 B(  3-C ,  6-H ) :   0.9347
B(  3-C ,  7-H ) :   0.9458

-----------------------------------------------------------------------------
         ABSORPTION SPECTRUM VIA TRANSITION ELECTRIC DIPOLE MOMENTS
-----------------------------------------------------------------------------
State   Energy    Wavelength  fosc         T2        TX        TY        TZ
        (cm-1)      (nm)                 (au**2)    (au)      (au)      (au)
-----------------------------------------------------------------------------
   1   32966.2    303.3   0.000866107   0.00865   0.09298  -0.00043   0.00208

FINAL SINGLE POINT ENERGY      -191.632699982992

DIPOLE MOMENT
-------------
                                X             Y             Z
Electronic contribution:     -2.21912      -1.32531      -1.22591
Nuclear contribution   :      2.76142       2.11424       1.59154
                        -----------------------------------------
Total Dipole Moment    :      0.54230       0.78893       0.36563
                        -----------------------------------------
Magnitude (a.u.)       :      1.02478
Magnitude (Debye)      :      2.60479

Rotational constants in cm-1:     0.880640     0.186725     0.165430
Rotational constants in MHz : 26400.910923  5597.870382  4959.479949

                             ****ORCA TERMINATED NORMALLY****
TOTAL RUN TIME: 0 days 0 hours 3 minutes 24 seconds 456 msec
