                         Program Version 5.0.3 -  RELEASE  -
|  1> ! B3LYP cc-pVDZ
|  2> !TightSCF
|  3> %scf
|  4>  ConvForced true
|  5>  convergence tight
|  6>  MaxIter 500
|  7> end
|  8>
|  9> %tddft
| 10>  nroots 1
| 11> end
| 12>
| 13> # 	32334
| 14> * xyz 0 1
| 15> 		C   -0.637163  -0.435090   0.024430
| 16> 		O   -0.532184  -1.634380  -0.027860
| 17> 		C    0.622633   0.447195   0.014836
| 18> 		C    1.841690  -0.143315  -0.011880
| 19> 		H   -1.654015   0.086383   0.153225
| 20> 		H    0.682077   1.585843  -0.278998
| 21> 		H    1.877443  -1.380394   0.244431
| 22> 		H    2.757861   0.459141  -0.022183
| 23> *
| 24>
| 25>                          ****END OF INPUT****

CARTESIAN COORDINATES (ANGSTROEM)
---------------------------------
  C     -0.637163   -0.435090    0.024430
  O     -0.532184   -1.634380   -0.027860
  C      0.622633    0.447195    0.014836
  C      1.841690   -0.143315   -0.011880
  H     -1.654015    0.086383    0.153225
  H      0.682077    1.585843   -0.278998
  H      1.877443   -1.380394    0.244431
  H      2.757861    0.459141   -0.022183

 Total Charge           Charge          ....    0
 Multiplicity           Mult            ....    1
 Number of Electrons    NEL             ....   30
 Basis Dimension        Dim             ....   76

ORBITAL ENERGIES
----------------

  NO   OCC          E(Eh)            E(eV)
   0   2.0000     -19.145783      -520.9832
   1   2.0000     -10.288420      -279.9621
   2   2.0000     -10.222108      -278.1577
   3   2.0000     -10.213371      -277.9199
   4   2.0000      -1.055841       -28.7309
   5   2.0000      -0.778128       -21.1739
   6   2.0000      -0.637115       -17.3368
   7   2.0000      -0.530882       -14.4460
   8   2.0000      -0.495262       -13.4768
   9   2.0000      -0.442792       -12.0490
  10   2.0000      -0.420379       -11.4391
  11   2.0000      -0.400628       -10.9016
  12   2.0000      -0.356044        -9.6885
  13   2.0000      -0.284541        -7.7428
  14   2.0000      -0.261782        -7.1235
  15   0.0000      -0.067231        -1.8295
  16   0.0000       0.043295         1.1781
  17   0.0000       0.066116         1.7991
  18   0.0000       0.073318         1.9951
  19   0.0000       0.098760         2.6874

MULLIKEN ATOMIC CHARGES
-----------------------
   0 C :    0.183370
   1 O :   -0.178214
   2 C :   -0.146839
   3 C :    0.000195
   4 H :    0.004005
   5 H :    0.023242
   6 H :    0.074979
   7 H :    0.039262
Sum of atomic charges:   -0.0000000

LOEWDIN ATOMIC CHARGES
----------------------
   0 C :   -0.028525
   1 O :    0.006911
   2 C :   -0.108102
   3 C :   -0.004693
   4 H :    0.002478
   5 H :    0.042663
   6 H :    0.059784
   7 H :    0.029484

  Mayer bond orders larger than 0.100000
B(  0-C ,  1-O ) :   2.1939 B(  0-C ,  2-C ) :   0.9846 B(  0-C ,  4-H ) :   0.9140
B(  2-C ,  3-C ) :   1.9672 B(  2-C ,  5-H ) :   0.9335 B(  3-C ,  6-H ) :   0.9234
B(  3-C ,  7-H ) :   0.9375

-----------------------------------------------------------------------------
         ABSORPTION SPECTRUM VIA TRANSITION ELECTRIC DIPOLE MOMENTS
-----------------------------------------------------------------------------
State   Energy    Wavelength  fosc         T2        TX        TY        TZ
        (cm-1)      (nm)                 (au**2)    (au)      (au)      (au)
-----------------------------------------------------------------------------
   1   29813.0    335.4   0.001173729   0.01296  -0.10817  -0.00828   0.03451

FINAL SINGLE POINT ENERGY      -191.648195536227

DIPOLE MOMENT
-------------
                                X             Y             Z
Electronic contribution:     -2.02102      -1.66917      -0.07353
Nuclear contribution   :      2.27826       2.49258       0.09141
                        -----------------------------------------
Total Dipole Moment    :      0.25724       0.82341       0.01788
                        -----------------------------------------
Magnitude (a.u.)       :      0.86284
Magnitude (Debye)      :      2.19317

Rotational constants in cm-1:     0.709397     0.210743     0.163062
Rotational constants in MHz : 21267.192929  6317.909359  4888.462690

                             ****ORCA TERMINATED NORMALLY****
TOTAL RUN TIME: 0 days 0 hours 3 minutes 17 seconds 130 msec
