                         Program Version 5.0.3 -  RELEASE  -
|  1> ! HF-3c
|  2> !TightSCF
|  3> %scf
|  4>  ConvForced true
|  5>  convergence tight
|  6>  MaxIter 500
|  7> end
|  8>
|  9> %tddft
| 10>  nroots 1
| 11> end
| 12>
| 13> # 	30021
| 14> * xyz 0 1
| 15> 		C   -0.603112  -0.431855   0.002185
| 16> 		O   -0.583406  -1.663722   0.003806
| 17> 		C    0.629979   0.422981   0.015348
| 18> 		C    1.870448  -0.108652   0.017142
| 19> 		H   -1.472108   0.153716  -0.120404
| 20> 		H    0.487306   1.563024  -0.086887
| 21> 		H    1.837657  -1.169075  -0.216962
| 22> 		H    2.763430   0.503080  -0.050843
| 23> *
| 24>
| 25>                          ****END OF INPUT****

CARTESIAN COORDINATES (ANGSTROEM)
---------------------------------
  C     -0.603112   -0.431855    0.002185
  O     -0.583406   -1.663722    0.003806
  C      0.629979    0.422981    0.015348
  C      1.870448   -0.108652    0.017142
  H     -1.472108    0.153716   -0.120404
  H      0.487306    1.563024   -0.086887
  H      1.837657   -1.169075   -0.216962
  H      2.763430    0.503080   -0.050843

 Total Charge           Charge          ....    0
 Multiplicity           Mult            ....    1
 Number of Electrons    NEL             ....   30
 Basis Dimension        Dim             ....   24

ORBITAL ENERGIES
----------------

  NO   OCC          E(Eh)            E(eV)
   0   2.0000     -20.366047      -554.1883
   1   2.0000     -11.295082      -307.3548
   2   2.0000     -11.184237      -304.3386
   3   2.0000     -11.180196      -304.2286
   4   2.0000      -1.388958       -37.7955
   5   2.0000      -1.068514       -29.0757
   6   2.0000      -0.897188       -24.4137
   7   2.0000      -0.743434       -20.2299
   8   2.0000      -0.694739       -18.9048
   9   2.0000      -0.606688       -16.5088
  10   2.0000      -0.596493       -16.2314
  11   2.0000      -0.534739       -14.5510
  12   2.0000      -0.519369       -14.1327
  13   2.0000      -0.419380       -11.4119
  14   2.0000      -0.384370       -10.4592
  15   0.0000       0.123292         3.3549
  16   0.0000       0.297582         8.0976
  17   0.0000       0.564414        15.3585
  18   0.0000       0.577686        15.7196
  19   0.0000       0.646856        17.6019

MULLIKEN ATOMIC CHARGES
-----------------------
   0 C :    0.151659
   1 O :   -0.346828
   2 C :   -0.160468
   3 C :   -0.231233
   4 H :    0.138794
   5 H :    0.136869
   6 H :    0.162504
   7 H :    0.148703
Sum of atomic charges:   -0.0000000

LOEWDIN ATOMIC CHARGES
----------------------
   0 C :    0.144882
   1 O :   -0.258409
   2 C :   -0.124977
   3 C :   -0.130309
   4 H :    0.071483
   5 H :    0.090974
   6 H :    0.108385
   7 H :    0.097970

  Mayer bond orders larger than 0.100000
B(  0-C ,  1-O ) :   1.9065 B(  0-C ,  2-C ) :   1.0246 B(  0-C ,  4-H ) :   0.9314
B(  2-C ,  3-C ) :   1.9418 B(  2-C ,  5-H ) :   0.9598 B(  3-C ,  6-H ) :   0.9562
B(  3-C ,  7-H ) :   0.9646

-----------------------------------------------------------------------------
         ABSORPTION SPECTRUM VIA TRANSITION ELECTRIC DIPOLE MOMENTS
-----------------------------------------------------------------------------
State   Energy    Wavelength  fosc         T2        TX        TY        TZ
        (cm-1)      (nm)                 (au**2)    (au)      (au)      (au)
-----------------------------------------------------------------------------
   1   31492.3    317.5   0.000003530   0.00004  -0.00153   0.00244  -0.00535

Dispersion correction           -0.025713955
FINAL SINGLE POINT ENERGY      -189.339129238315

DIPOLE MOMENT
-------------
                                X             Y             Z
Electronic contribution:     -1.96664      -1.79911       0.32382
Nuclear contribution   :      2.23497       2.77358      -0.44557
                        -----------------------------------------
Total Dipole Moment    :      0.26833       0.97448      -0.12175
                        -----------------------------------------
Magnitude (a.u.)       :      1.01805
Magnitude (Debye)      :      2.58768

Rotational constants in cm-1:     0.752855     0.203992     0.160744
Rotational constants in MHz : 22570.015375  6115.514830  4818.978138

                             ****ORCA TERMINATED NORMALLY****
TOTAL RUN TIME: 0 days 0 hours 0 minutes 10 seconds 692 msec
