                         Program Version 5.0.3 -  RELEASE  -
|  1> ! HF-3c
|  2> !TightSCF
|  3> %scf
|  4>  ConvForced true
|  5>  convergence tight
|  6>  MaxIter 500
|  7> end
|  8>
|  9> %tddft
| 10>  nroots 1
| 11> end
| 12>
| 13> # 	27608
| 14> * xyz 0 1
| 15> 		C   -0.588624  -0.420949   0.049866
| 16> 		O   -0.595702  -1.660278  -0.029520
| 17> 		C    0.656788   0.378791  -0.022037
| 18> 		C    1.843378  -0.073066   0.053169
| 19> 		H   -1.442119   0.198088  -0.016241
| 20> 		H    0.624405   1.420733  -0.159255
| 21> 		H    1.777800  -1.191279  -0.054530
| 22> 		H    2.691862   0.527133  -0.288577
| 23> *
| 24>
| 25>                          ****END OF INPUT****

CARTESIAN COORDINATES (ANGSTROEM)
---------------------------------
  C     -0.588624   -0.420949    0.049866
  O     -0.595702   -1.660278   -0.029520
  C      0.656788    0.378791   -0.022037
  C      1.843378   -0.073066    0.053169
  H     -1.442119    0.198088   -0.016241
  H      0.624405    1.420733   -0.159255
  H      1.777800   -1.191279   -0.054530
  H      2.691862    0.527133   -0.288577

 Total Charge           Charge          ....    0
 Multiplicity           Mult            ....    1
 Number of Electrons    NEL             ....   30
 Basis Dimension        Dim             ....   24

ORBITAL ENERGIES
----------------

  NO   OCC          E(Eh)            E(eV)
   0   2.0000     -20.371164      -554.3275
   1   2.0000     -11.299288      -307.4693
   2   2.0000     -11.186117      -304.3897
   3   2.0000     -11.184361      -304.3419
   4   2.0000      -1.388133       -37.7730
   5   2.0000      -1.104216       -30.0473
   6   2.0000      -0.905199       -24.6317
   7   2.0000      -0.743845       -20.2411
   8   2.0000      -0.720527       -19.6065
   9   2.0000      -0.610433       -16.6107
  10   2.0000      -0.604927       -16.4609
  11   2.0000      -0.538200       -14.6452
  12   2.0000      -0.510583       -13.8937
  13   2.0000      -0.427720       -11.6388
  14   2.0000      -0.408078       -11.1044
  15   0.0000       0.124266         3.3814
  16   0.0000       0.306519         8.3408
  17   0.0000       0.570184        15.5155
  18   0.0000       0.610775        16.6200
  19   0.0000       0.655432        17.8352

MULLIKEN ATOMIC CHARGES
-----------------------
   0 C :    0.155360
   1 O :   -0.339535
   2 C :   -0.187541
   3 C :   -0.230405
   4 H :    0.143944
   5 H :    0.139333
   6 H :    0.165369
   7 H :    0.153476
Sum of atomic charges:   -0.0000000

LOEWDIN ATOMIC CHARGES
----------------------
   0 C :    0.150624
   1 O :   -0.253836
   2 C :   -0.138389
   3 C :   -0.135682
   4 H :    0.075981
   5 H :    0.084651
   6 H :    0.113865
   7 H :    0.102786

  Mayer bond orders larger than 0.100000
B(  0-C ,  1-O ) :   1.9113 B(  0-C ,  2-C ) :   1.0213 B(  0-C ,  4-H ) :   0.9318
B(  2-C ,  3-C ) :   1.9557 B(  2-C ,  5-H ) :   0.9574 B(  3-C ,  6-H ) :   0.9483
B(  3-C ,  7-H ) :   0.9597

-----------------------------------------------------------------------------
         ABSORPTION SPECTRUM VIA TRANSITION ELECTRIC DIPOLE MOMENTS
-----------------------------------------------------------------------------
State   Energy    Wavelength  fosc         T2        TX        TY        TZ
        (cm-1)      (nm)                 (au**2)    (au)      (au)      (au)
-----------------------------------------------------------------------------
   1   31163.1    320.9   0.000043158   0.00046   0.01906  -0.00163   0.00949

Dispersion correction           -0.026449999
FINAL SINGLE POINT ENERGY      -189.324813240642

DIPOLE MOMENT
-------------
                                X             Y             Z
Electronic contribution:     -2.01913      -1.76524       0.38642
Nuclear contribution   :      2.26757       2.68445      -0.48549
                        -----------------------------------------
Total Dipole Moment    :      0.24844       0.91921      -0.09907
                        -----------------------------------------
Magnitude (a.u.)       :      0.95733
Magnitude (Debye)      :      2.43335

Rotational constants in cm-1:     0.822331     0.204835     0.164616
Rotational constants in MHz : 24652.851970  6140.812290  4935.061352

                             ****ORCA TERMINATED NORMALLY****
TOTAL RUN TIME: 0 days 0 hours 0 minutes 10 seconds 389 msec
