                         Program Version 5.0.3 -  RELEASE  -
|  1> ! HF-3c
|  2> !TightSCF
|  3> %scf
|  4>  ConvForced true
|  5>  convergence tight
|  6>  MaxIter 500
|  7> end
|  8>
|  9> %tddft
| 10>  nroots 1
| 11> end
| 12>
| 13> # 	25453
| 14> * xyz 0 1
| 15> 		C   -0.577435  -0.391426   0.005404
| 16> 		O   -0.511800  -1.608304  -0.015062
| 17> 		C    0.611034   0.462006  -0.021750
| 18> 		C    1.782553  -0.217449   0.020582
| 19> 		H   -1.631963   0.009550   0.295069
| 20> 		H    0.388556   1.520052  -0.176125
| 21> 		H    1.879222  -1.316028   0.006923
| 22> 		H    2.790113   0.329607   0.053355
| 23> *
| 24>
| 25>                          ****END OF INPUT****

CARTESIAN COORDINATES (ANGSTROEM)
---------------------------------
  C     -0.577435   -0.391426    0.005404
  O     -0.511800   -1.608304   -0.015062
  C      0.611034    0.462006   -0.021750
  C      1.782553   -0.217449    0.020582
  H     -1.631963    0.009550    0.295069
  H      0.388556    1.520052   -0.176125
  H      1.879222   -1.316028    0.006923
  H      2.790113    0.329607    0.053355

 Total Charge           Charge          ....    0
 Multiplicity           Mult            ....    1
 Number of Electrons    NEL             ....   30
 Basis Dimension        Dim             ....   24

ORBITAL ENERGIES
----------------

  NO   OCC          E(Eh)            E(eV)
   0   2.0000     -20.339600      -553.4687
   1   2.0000     -11.278084      -306.8923
   2   2.0000     -11.193104      -304.5798
   3   2.0000     -11.187215      -304.4196
   4   2.0000      -1.386132       -37.7186
   5   2.0000      -1.069383       -29.0994
   6   2.0000      -0.876209       -23.8429
   7   2.0000      -0.732747       -19.9391
   8   2.0000      -0.692586       -18.8462
   9   2.0000      -0.615826       -16.7575
  10   2.0000      -0.572269       -15.5722
  11   2.0000      -0.530841       -14.4449
  12   2.0000      -0.519593       -14.1388
  13   2.0000      -0.400990       -10.9115
  14   2.0000      -0.382527       -10.4091
  15   0.0000       0.134176         3.6511
  16   0.0000       0.300915         8.1883
  17   0.0000       0.515411        14.0250
  18   0.0000       0.602550        16.3962
  19   0.0000       0.637744        17.3539

MULLIKEN ATOMIC CHARGES
-----------------------
   0 C :    0.159277
   1 O :   -0.367844
   2 C :   -0.190113
   3 C :   -0.193465
   4 H :    0.133987
   5 H :    0.149551
   6 H :    0.166437
   7 H :    0.142170
Sum of atomic charges:   -0.0000000

LOEWDIN ATOMIC CHARGES
----------------------
   0 C :    0.138523
   1 O :   -0.278205
   2 C :   -0.144230
   3 C :   -0.097352
   4 H :    0.076526
   5 H :    0.097440
   6 H :    0.111311
   7 H :    0.095987

  Mayer bond orders larger than 0.100000
B(  0-C ,  1-O ) :   1.8904 B(  0-C ,  2-C ) :   1.0364 B(  0-C ,  4-H ) :   0.9251
B(  2-C ,  3-C ) :   1.9317 B(  2-C ,  5-H ) :   0.9592 B(  3-C ,  6-H ) :   0.9562
B(  3-C ,  7-H ) :   0.9642

-----------------------------------------------------------------------------
         ABSORPTION SPECTRUM VIA TRANSITION ELECTRIC DIPOLE MOMENTS
-----------------------------------------------------------------------------
State   Energy    Wavelength  fosc         T2        TX        TY        TZ
        (cm-1)      (nm)                 (au**2)    (au)      (au)      (au)
-----------------------------------------------------------------------------
   1   31570.3    316.8   0.000187804   0.00196   0.03558   0.00494  -0.02584

Dispersion correction           -0.025874674
FINAL SINGLE POINT ENERGY      -189.334921533141

DIPOLE MOMENT
-------------
                                X             Y             Z
Electronic contribution:     -1.71224      -1.40543      -0.13356
Nuclear contribution   :      2.05886       2.29670       0.16855
                        -----------------------------------------
Total Dipole Moment    :      0.34662       0.89127       0.03500
                        -----------------------------------------
Magnitude (a.u.)       :      0.95694
Magnitude (Debye)      :      2.43236

Rotational constants in cm-1:     0.692301     0.229680     0.172946
Rotational constants in MHz : 20754.657258  6885.645297  5184.804541

                             ****ORCA TERMINATED NORMALLY****
TOTAL RUN TIME: 0 days 0 hours 0 minutes 10 seconds 171 msec
