                         Program Version 5.0.3 -  RELEASE  -
|  1> ! B3LYP cc-pVDZ
|  2> !TightSCF
|  3> %scf
|  4>  ConvForced true
|  5>  convergence tight
|  6>  MaxIter 500
|  7> end
|  8>
|  9> %tddft
| 10>  nroots 1
| 11> end
| 12>
| 13> # 	2985
| 14> * xyz 0 1
| 15> 		C   -1.250225  -0.313553   0.027580
| 16> 		O   -1.307113  -1.331313   0.549852
| 17> 		C    0.014768   0.577807   0.056076
| 18> 		C    1.264543   0.025895  -0.154331
| 19> 		H   -2.118681  -0.124244  -0.595598
| 20> 		H   -0.196460   1.598961   0.528767
| 21> 		H    1.268421  -1.027706  -0.309720
| 22> 		H    2.314745   0.571086  -0.118221
| 23> *
| 24>
| 25>                          ****END OF INPUT****

CARTESIAN COORDINATES (ANGSTROEM)
---------------------------------
  C     -1.250225   -0.313553    0.027580
  O     -1.307113   -1.331313    0.549852
  C      0.014768    0.577807    0.056076
  C      1.264543    0.025895   -0.154331
  H     -2.118681   -0.124244   -0.595598
  H     -0.196460    1.598961    0.528767
  H      1.268421   -1.027706   -0.309720
  H      2.314745    0.571086   -0.118221

 Total Charge           Charge          ....    0
 Multiplicity           Mult            ....    1
 Number of Electrons    NEL             ....   30
 Basis Dimension        Dim             ....   76

ORBITAL ENERGIES
----------------

  NO   OCC          E(Eh)            E(eV)
   0   2.0000     -19.138685      -520.7901
   1   2.0000     -10.272553      -279.5304
   2   2.0000     -10.218074      -278.0479
   3   2.0000     -10.215936      -277.9898
   4   2.0000      -1.088132       -29.6096
   5   2.0000      -0.772708       -21.0264
   6   2.0000      -0.636306       -17.3148
   7   2.0000      -0.552861       -15.0441
   8   2.0000      -0.494822       -13.4648
   9   2.0000      -0.449146       -12.2219
  10   2.0000      -0.444877       -12.1057
  11   2.0000      -0.401649       -10.9294
  12   2.0000      -0.379896       -10.3375
  13   2.0000      -0.280670        -7.6374
  14   2.0000      -0.246968        -6.7203
  15   0.0000      -0.042493        -1.1563
  16   0.0000       0.012063         0.3282
  17   0.0000       0.073602         2.0028
  18   0.0000       0.095018         2.5856
  19   0.0000       0.101971         2.7748

MULLIKEN ATOMIC CHARGES
-----------------------
   0 C :    0.157012
   1 O :   -0.129039
   2 C :   -0.136855
   3 C :    0.016397
   4 H :   -0.028059
   5 H :    0.031295
   6 H :    0.028359
   7 H :    0.060890
Sum of atomic charges:    0.0000000

LOEWDIN ATOMIC CHARGES
----------------------
   0 C :   -0.063932
   1 O :    0.064434
   2 C :   -0.075636
   3 C :   -0.019606
   4 H :   -0.012960
   5 H :    0.037064
   6 H :    0.021087
   7 H :    0.049550

  Mayer bond orders larger than 0.100000
B(  0-C ,  1-O ) :   2.2758 B(  0-C ,  2-C ) :   0.9488 B(  0-C ,  4-H ) :   0.9256
B(  2-C ,  3-C ) :   1.9918 B(  2-C ,  5-H ) :   0.9416 B(  3-C ,  6-H ) :   0.9377
B(  3-C ,  7-H ) :   0.9526

-----------------------------------------------------------------------------
         ABSORPTION SPECTRUM VIA TRANSITION ELECTRIC DIPOLE MOMENTS
-----------------------------------------------------------------------------
State   Energy    Wavelength  fosc         T2        TX        TY        TZ
        (cm-1)      (nm)                 (au**2)    (au)      (au)      (au)
-----------------------------------------------------------------------------
   1   32589.2    306.9   0.001512094   0.01527  -0.12012  -0.02909   0.00003

FINAL SINGLE POINT ENERGY      -191.625152700044

DIPOLE MOMENT
-------------
                                X             Y             Z
Electronic contribution:     -2.21091      -1.44079       0.69333
Nuclear contribution   :      2.46625       2.06365      -0.95666
                        -----------------------------------------
Total Dipole Moment    :      0.25534       0.62286      -0.26333
                        -----------------------------------------
Magnitude (a.u.)       :      0.72284
Magnitude (Debye)      :      1.83732

Rotational constants in cm-1:     0.806414     0.188924     0.160098
Rotational constants in MHz : 24175.669803  5663.784456  4799.608552

                             ****ORCA TERMINATED NORMALLY****
TOTAL RUN TIME: 0 days 0 hours 3 minutes 18 seconds 772 msec
