                         Program Version 5.0.3 -  RELEASE  -
|  1> ! HF-3c
|  2> !TightSCF
|  3> %scf
|  4>  ConvForced true
|  5>  convergence tight
|  6>  MaxIter 500
|  7> end
|  8>
|  9> %tddft
| 10>  nroots 1
| 11> end
| 12>
| 13> # 	14679
| 14> * xyz 0 1
| 15> 		C   -1.159411  -0.328161  -0.118040
| 16> 		O   -2.275911  -0.136456  -0.610505
| 17> 		C    0.044247   0.356219  -0.434425
| 18> 		C    1.137773   0.130797   0.303496
| 19> 		H   -0.844273  -1.178694   0.592351
| 20> 		H   -0.148705   1.094134  -1.077166
| 21> 		H    1.115462  -0.513404   1.203795
| 22> 		H    2.086631   0.610747   0.113851
| 23> *
| 24>
| 25>                          ****END OF INPUT****

CARTESIAN COORDINATES (ANGSTROEM)
---------------------------------
  C     -1.159411   -0.328161   -0.118040
  O     -2.275911   -0.136456   -0.610505
  C      0.044247    0.356219   -0.434425
  C      1.137773    0.130797    0.303496
  H     -0.844273   -1.178694    0.592351
  H     -0.148705    1.094134   -1.077166
  H      1.115462   -0.513404    1.203795
  H      2.086631    0.610747    0.113851

 Total Charge           Charge          ....    0
 Multiplicity           Mult            ....    1
 Number of Electrons    NEL             ....   30
 Basis Dimension        Dim             ....   24

ORBITAL ENERGIES
----------------

  NO   OCC          E(Eh)            E(eV)
   0   2.0000     -20.357799      -553.9639
   1   2.0000     -11.287342      -307.1442
   2   2.0000     -11.210077      -305.0417
   3   2.0000     -11.198408      -304.7242
   4   2.0000      -1.380593       -37.5678
   5   2.0000      -1.107922       -30.1481
   6   2.0000      -0.897800       -24.4304
   7   2.0000      -0.790222       -21.5030
   8   2.0000      -0.667644       -18.1675
   9   2.0000      -0.647688       -17.6245
  10   2.0000      -0.577441       -15.7130
  11   2.0000      -0.561902       -15.2901
  12   2.0000      -0.536556       -14.6004
  13   2.0000      -0.408394       -11.1130
  14   2.0000      -0.395792       -10.7700
  15   0.0000       0.113412         3.0861
  16   0.0000       0.304114         8.2754
  17   0.0000       0.564738        15.3673
  18   0.0000       0.587300        15.9812
  19   0.0000       0.645817        17.5736

MULLIKEN ATOMIC CHARGES
-----------------------
   0 C :    0.172792
   1 O :   -0.351709
   2 C :   -0.198683
   3 C :   -0.204936
   4 H :    0.123955
   5 H :    0.159845
   6 H :    0.147285
   7 H :    0.151451
Sum of atomic charges:   -0.0000000

LOEWDIN ATOMIC CHARGES
----------------------
   0 C :    0.153525
   1 O :   -0.265459
   2 C :   -0.142454
   3 C :   -0.104288
   4 H :    0.066753
   5 H :    0.096230
   6 H :    0.097682
   7 H :    0.098012

  Mayer bond orders larger than 0.100000
B(  0-C ,  1-O ) :   1.8890 B(  0-C ,  2-C ) :   1.0582 B(  0-C ,  4-H ) :   0.9174
B(  2-C ,  3-C ) :   1.9192 B(  2-C ,  5-H ) :   0.9555 B(  3-C ,  6-H ) :   0.9619
B(  3-C ,  7-H ) :   0.9645

-----------------------------------------------------------------------------
         ABSORPTION SPECTRUM VIA TRANSITION ELECTRIC DIPOLE MOMENTS
-----------------------------------------------------------------------------
State   Energy    Wavelength  fosc         T2        TX        TY        TZ
        (cm-1)      (nm)                 (au**2)    (au)      (au)      (au)
-----------------------------------------------------------------------------
   1   31073.5    321.8   0.000042268   0.00045   0.01226   0.01692   0.00333

Dispersion correction           -0.026356175
FINAL SINGLE POINT ENERGY      -189.328903675718

DIPOLE MOMENT
-------------
                                X             Y             Z
Electronic contribution:     -3.10081      -0.11363      -1.04709
Nuclear contribution   :      4.31789       0.02760       1.57322
                        -----------------------------------------
Total Dipole Moment    :      1.21709      -0.08603       0.52613
                        -----------------------------------------
Magnitude (a.u.)       :      1.32873
Magnitude (Debye)      :      3.37736

Rotational constants in cm-1:     1.672692     0.157429     0.144296
Rotational constants in MHz : 50146.039055  4719.588071  4325.886490

                             ****ORCA TERMINATED NORMALLY****
TOTAL RUN TIME: 0 days 0 hours 0 minutes 10 seconds 249 msec
