                         Program Version 5.0.3 -  RELEASE  -
|  1> ! HF-3c
|  2> !TightSCF
|  3> %scf
|  4>  ConvForced true
|  5>  convergence tight
|  6>  MaxIter 500
|  7> end
|  8>
|  9> %tddft
| 10>  nroots 1
| 11> end
| 12>
| 13> # 	1021
| 14> * xyz 0 1
| 15> 		C   -1.215398  -0.264095   0.009307
| 16> 		O   -1.175637  -1.447984  -0.171796
| 17> 		C    0.009854   0.632220  -0.074313
| 18> 		C    1.231842   0.075786   0.046269
| 19> 		H   -2.007587   0.215273   0.196795
| 20> 		H   -0.130981   1.634323  -0.022678
| 21> 		H    1.008685  -1.113921   0.134412
| 22> 		H    2.213028   0.270557  -0.132997
| 23> *
| 24>
| 25>                          ****END OF INPUT****

CARTESIAN COORDINATES (ANGSTROEM)
---------------------------------
  C     -1.215398   -0.264095    0.009307
  O     -1.175637   -1.447984   -0.171796
  C      0.009854    0.632220   -0.074313
  C      1.231842    0.075786    0.046269
  H     -2.007587    0.215273    0.196795
  H     -0.130981    1.634323   -0.022678
  H      1.008685   -1.113921    0.134412
  H      2.213028    0.270557   -0.132997

 Total Charge           Charge          ....    0
 Multiplicity           Mult            ....    1
 Number of Electrons    NEL             ....   30
 Basis Dimension        Dim             ....   24

ORBITAL ENERGIES
----------------

  NO   OCC          E(Eh)            E(eV)
   0   2.0000     -20.385916      -554.7290
   1   2.0000     -11.313187      -307.8475
   2   2.0000     -11.186030      -304.3873
   3   2.0000     -11.184227      -304.3383
   4   2.0000      -1.424231       -38.7553
   5   2.0000      -1.073085       -29.2001
   6   2.0000      -0.913782       -24.8653
   7   2.0000      -0.786403       -21.3991
   8   2.0000      -0.715466       -19.4688
   9   2.0000      -0.634208       -17.2577
  10   2.0000      -0.616595       -16.7784
  11   2.0000      -0.552669       -15.0389
  12   2.0000      -0.496542       -13.5116
  13   2.0000      -0.431850       -11.7512
  14   2.0000      -0.391685       -10.6583
  15   0.0000       0.128490         3.4964
  16   0.0000       0.286450         7.7947
  17   0.0000       0.499753        13.5990
  18   0.0000       0.628863        17.1122
  19   0.0000       0.688101        18.7242

MULLIKEN ATOMIC CHARGES
-----------------------
   0 C :    0.154654
   1 O :   -0.344770
   2 C :   -0.182280
   3 C :   -0.214025
   4 H :    0.140812
   5 H :    0.136429
   6 H :    0.157524
   7 H :    0.151655
Sum of atomic charges:    0.0000000

LOEWDIN ATOMIC CHARGES
----------------------
   0 C :    0.148803
   1 O :   -0.245284
   2 C :   -0.139133
   3 C :   -0.114219
   4 H :    0.062452
   5 H :    0.079615
   6 H :    0.113951
   7 H :    0.093813

  Mayer bond orders larger than 0.100000
B(  0-C ,  1-O ) :   1.9168 B(  0-C ,  2-C ) :   1.0033 B(  0-C ,  4-H ) :   0.9383
B(  2-C ,  3-C ) :   1.9512 B(  2-C ,  5-H ) :   0.9635 B(  3-C ,  6-H ) :   0.9467
B(  3-C ,  7-H ) :   0.9677

-----------------------------------------------------------------------------
         ABSORPTION SPECTRUM VIA TRANSITION ELECTRIC DIPOLE MOMENTS
-----------------------------------------------------------------------------
State   Energy    Wavelength  fosc         T2        TX        TY        TZ
        (cm-1)      (nm)                 (au**2)    (au)      (au)      (au)
-----------------------------------------------------------------------------
   1   34108.4    293.2   0.000034926   0.00034  -0.01773   0.00253  -0.00404

Dispersion correction           -0.026492564
FINAL SINGLE POINT ENERGY      -189.278456501044

DIPOLE MOMENT
-------------
                                X             Y             Z
Electronic contribution:     -1.88799      -1.34447      -0.19531
Nuclear contribution   :      2.16816       2.05292       0.35008
                        -----------------------------------------
Total Dipole Moment    :      0.28017       0.70846       0.15476
                        -----------------------------------------
Magnitude (a.u.)       :      0.77741
Magnitude (Debye)      :      1.97601

Rotational constants in cm-1:     0.758198     0.211786     0.166649
Rotational constants in MHz : 22730.204145  6349.184029  4996.019302

                             ****ORCA TERMINATED NORMALLY****
TOTAL RUN TIME: 0 days 0 hours 0 minutes 12 seconds 685 msec
