                         Program Version 5.0.3 -  RELEASE  -
|  1> ! HF-3c
|  2> !TightSCF
|  3> %scf
|  4>  ConvForced true
|  5>  convergence tight
|  6>  MaxIter 500
|  7> end
|  8>
|  9> %tddft
| 10>  nroots 1
| 11> end
| 12>
| 13> # 	18367
| 14> * xyz 0 1
| 15> 		C   -1.224484  -0.319923   0.051063
| 16> 		O   -1.735982  -1.035606   0.814078
| 17> 		C   -0.044588   0.474383   0.260271
| 18> 		C    1.229727   0.058838  -0.109499
| 19> 		H   -1.536795  -0.307849  -1.066576
| 20> 		H   -0.106522   1.374012   0.871721
| 21> 		H    1.298464  -0.827265  -0.795155
| 22> 		H    2.077337   0.545011  -0.008346
| 23> *
| 24>
| 25>                          ****END OF INPUT****

CARTESIAN COORDINATES (ANGSTROEM)
---------------------------------
  C     -1.224484   -0.319923    0.051063
  O     -1.735982   -1.035606    0.814078
  C     -0.044588    0.474383    0.260271
  C      1.229727    0.058838   -0.109499
  H     -1.536795   -0.307849   -1.066576
  H     -0.106522    1.374012    0.871721
  H      1.298464   -0.827265   -0.795155
  H      2.077337    0.545011   -0.008346

 Total Charge           Charge          ....    0
 Multiplicity           Mult            ....    1
 Number of Electrons    NEL             ....   30
 Basis Dimension        Dim             ....   24

ORBITAL ENERGIES
----------------

  NO   OCC          E(Eh)            E(eV)
   0   2.0000     -20.396514      -555.0174
   1   2.0000     -11.318753      -307.9989
   2   2.0000     -11.193222      -304.5831
   3   2.0000     -11.183488      -304.3182
   4   2.0000      -1.447379       -39.3852
   5   2.0000      -1.074683       -29.2436
   6   2.0000      -0.899473       -24.4759
   7   2.0000      -0.767756       -20.8917
   8   2.0000      -0.683459       -18.5979
   9   2.0000      -0.662210       -18.0196
  10   2.0000      -0.619976       -16.8704
  11   2.0000      -0.560548       -15.2533
  12   2.0000      -0.517469       -14.0811
  13   2.0000      -0.416588       -11.3359
  14   2.0000      -0.385624       -10.4934
  15   0.0000       0.168070         4.5734
  16   0.0000       0.217768         5.9258
  17   0.0000       0.576312        15.6822
  18   0.0000       0.608889        16.5687
  19   0.0000       0.680951        18.5296

MULLIKEN ATOMIC CHARGES
-----------------------
   0 C :    0.187054
   1 O :   -0.346372
   2 C :   -0.161249
   3 C :   -0.242259
   4 H :    0.131883
   5 H :    0.154628
   6 H :    0.136736
   7 H :    0.139579
Sum of atomic charges:   -0.0000000

LOEWDIN ATOMIC CHARGES
----------------------
   0 C :    0.154279
   1 O :   -0.234907
   2 C :   -0.117902
   3 C :   -0.146815
   4 H :    0.070868
   5 H :    0.101862
   6 H :    0.090750
   7 H :    0.081864

  Mayer bond orders larger than 0.100000
B(  0-C ,  1-O ) :   1.9472 B(  0-C ,  2-C ) :   1.0028 B(  0-C ,  4-H ) :   0.9021
B(  2-C ,  3-C ) :   1.9767 B(  2-C ,  5-H ) :   0.9493 B(  3-C ,  6-H ) :   0.9682
B(  3-C ,  7-H ) :   0.9708

-----------------------------------------------------------------------------
         ABSORPTION SPECTRUM VIA TRANSITION ELECTRIC DIPOLE MOMENTS
-----------------------------------------------------------------------------
State   Energy    Wavelength  fosc         T2        TX        TY        TZ
        (cm-1)      (nm)                 (au**2)    (au)      (au)      (au)
-----------------------------------------------------------------------------
   1   36835.8    271.5   0.000093762   0.00084   0.01540   0.00184   0.02444

Dispersion correction           -0.025253404
FINAL SINGLE POINT ENERGY      -189.286727475310

DIPOLE MOMENT
-------------
                                X             Y             Z
Electronic contribution:     -2.85624      -1.05518       1.27853
Nuclear contribution   :      3.38051       1.60828      -1.89512
                        -----------------------------------------
Total Dipole Moment    :      0.52427       0.55310      -0.61659
                        -----------------------------------------
Magnitude (a.u.)       :      0.98029
Magnitude (Debye)      :      2.49170

Rotational constants in cm-1:     1.059038     0.165292     0.159636
Rotational constants in MHz : 31749.152790  4955.330191  4785.771521

                             ****ORCA TERMINATED NORMALLY****
TOTAL RUN TIME: 0 days 0 hours 0 minutes 15 seconds 639 msec
