                         Program Version 5.0.3 -  RELEASE  -
|  1> ! HF-3c
|  2> !TightSCF
|  3> %scf
|  4>  ConvForced true
|  5>  convergence tight
|  6>  MaxIter 500
|  7> end
|  8>
|  9> %tddft
| 10>  nroots 1
| 11> end
| 12>
| 13> # 	911
| 14> * xyz 0 1
| 15> 		C   -1.129659  -0.387251   0.055420
| 16> 		O   -1.763119  -1.105553   0.812021
| 17> 		C    0.011401   0.461475   0.290485
| 18> 		C    1.244024   0.073911  -0.105649
| 19> 		H   -1.551056  -0.315361  -1.076101
| 20> 		H   -0.320315   1.363943   0.761471
| 21> 		H    1.348380  -0.816403  -0.626525
| 22> 		H    2.152616   0.716861  -0.092934
| 23> *
| 24>
| 25>                          ****END OF INPUT****

CARTESIAN COORDINATES (ANGSTROEM)
---------------------------------
  C     -1.129659   -0.387251    0.055420
  O     -1.763119   -1.105553    0.812021
  C      0.011401    0.461475    0.290485
  C      1.244024    0.073911   -0.105649
  H     -1.551056   -0.315361   -1.076101
  H     -0.320315    1.363943    0.761471
  H      1.348380   -0.816403   -0.626525
  H      2.152616    0.716861   -0.092934

 Total Charge           Charge          ....    0
 Multiplicity           Mult            ....    1
 Number of Electrons    NEL             ....   30
 Basis Dimension        Dim             ....   24

ORBITAL ENERGIES
----------------

  NO   OCC          E(Eh)            E(eV)
   0   2.0000     -20.368064      -554.2432
   1   2.0000     -11.293133      -307.3018
   2   2.0000     -11.202515      -304.8359
   3   2.0000     -11.191149      -304.5266
   4   2.0000      -1.394408       -37.9438
   5   2.0000      -1.089362       -29.6430
   6   2.0000      -0.894500       -24.3406
   7   2.0000      -0.755935       -20.5700
   8   2.0000      -0.672106       -18.2889
   9   2.0000      -0.646098       -17.5812
  10   2.0000      -0.607349       -16.5268
  11   2.0000      -0.555010       -15.1026
  12   2.0000      -0.496471       -13.5097
  13   2.0000      -0.416415       -11.3312
  14   2.0000      -0.388483       -10.5711
  15   0.0000       0.173869         4.7312
  16   0.0000       0.213406         5.8071
  17   0.0000       0.542399        14.7594
  18   0.0000       0.592116        16.1123
  19   0.0000       0.661587        18.0027

MULLIKEN ATOMIC CHARGES
-----------------------
   0 C :    0.177673
   1 O :   -0.346404
   2 C :   -0.172619
   3 C :   -0.236381
   4 H :    0.128990
   5 H :    0.159505
   6 H :    0.140149
   7 H :    0.149087
Sum of atomic charges:   -0.0000000

LOEWDIN ATOMIC CHARGES
----------------------
   0 C :    0.153346
   1 O :   -0.255055
   2 C :   -0.120853
   3 C :   -0.143227
   4 H :    0.074748
   5 H :    0.104596
   6 H :    0.086621
   7 H :    0.099824

  Mayer bond orders larger than 0.100000
B(  0-C ,  1-O ) :   1.9437 B(  0-C ,  2-C ) :   1.0092 B(  0-C ,  4-H ) :   0.9038
B(  2-C ,  3-C ) :   1.9805 B(  2-C ,  5-H ) :   0.9462 B(  3-C ,  6-H ) :   0.9674
B(  3-C ,  7-H ) :   0.9630

-----------------------------------------------------------------------------
         ABSORPTION SPECTRUM VIA TRANSITION ELECTRIC DIPOLE MOMENTS
-----------------------------------------------------------------------------
State   Energy    Wavelength  fosc         T2        TX        TY        TZ
        (cm-1)      (nm)                 (au**2)    (au)      (au)      (au)
-----------------------------------------------------------------------------
   1   33909.4    294.9   0.000010572   0.00010   0.00012  -0.00591  -0.00823

Dispersion correction           -0.025178847
FINAL SINGLE POINT ENERGY      -189.312003570877

DIPOLE MOMENT
-------------
                                X             Y             Z
Electronic contribution:     -2.55654      -1.22989       1.30848
Nuclear contribution   :      3.18649       1.87878      -1.95505
                        -----------------------------------------
Total Dipole Moment    :      0.62995       0.64889      -0.64657
                        -----------------------------------------
Magnitude (a.u.)       :      1.11173
Magnitude (Debye)      :      2.82580

Rotational constants in cm-1:     1.114419     0.160429     0.154642
Rotational constants in MHz : 33409.454863  4809.531029  4636.038092

                             ****ORCA TERMINATED NORMALLY****
TOTAL RUN TIME: 0 days 0 hours 0 minutes 12 seconds 10 msec
