                         Program Version 5.0.3 -  RELEASE  -
|  1> ! HF-3c
|  2> !TightSCF
|  3> %scf
|  4>  ConvForced true
|  5>  convergence tight
|  6>  MaxIter 500
|  7> end
|  8>
|  9> %tddft
| 10>  nroots 1
| 11> end
| 12>
| 13> # 	9370
| 14> * xyz 0 1
| 15> 		C   -1.199197  -0.263549   0.101910
| 16> 		O   -1.738401  -0.891763   0.971017
| 17> 		C    0.008659   0.471696   0.259710
| 18> 		C    1.151799  -0.001469  -0.128994
| 19> 		H   -1.579205  -0.301800  -1.041809
| 20> 		H   -0.016028   1.414648   0.760455
| 21> 		H    1.114092  -0.948849  -0.751633
| 22> 		H    2.214858   0.574526  -0.098621
| 23> *
| 24>
| 25>                          ****END OF INPUT****

CARTESIAN COORDINATES (ANGSTROEM)
---------------------------------
  C     -1.199197   -0.263549    0.101910
  O     -1.738401   -0.891763    0.971017
  C      0.008659    0.471696    0.259710
  C      1.151799   -0.001469   -0.128994
  H     -1.579205   -0.301800   -1.041809
  H     -0.016028    1.414648    0.760455
  H      1.114092   -0.948849   -0.751633
  H      2.214858    0.574526   -0.098621

 Total Charge           Charge          ....    0
 Multiplicity           Mult            ....    1
 Number of Electrons    NEL             ....   30
 Basis Dimension        Dim             ....   24

ORBITAL ENERGIES
----------------

  NO   OCC          E(Eh)            E(eV)
   0   2.0000     -20.376731      -554.4790
   1   2.0000     -11.302248      -307.5498
   2   2.0000     -11.189353      -304.4778
   3   2.0000     -11.182606      -304.2942
   4   2.0000      -1.413324       -38.4585
   5   2.0000      -1.097487       -29.8641
   6   2.0000      -0.874845       -23.8057
   7   2.0000      -0.754504       -20.5311
   8   2.0000      -0.677687       -18.4408
   9   2.0000      -0.632906       -17.2223
  10   2.0000      -0.605545       -16.4777
  11   2.0000      -0.527252       -14.3473
  12   2.0000      -0.504071       -13.7165
  13   2.0000      -0.416345       -11.3293
  14   2.0000      -0.399201       -10.8628
  15   0.0000       0.181741         4.9454
  16   0.0000       0.238671         6.4946
  17   0.0000       0.526121        14.3165
  18   0.0000       0.549803        14.9609
  19   0.0000       0.604672        16.4539

MULLIKEN ATOMIC CHARGES
-----------------------
   0 C :    0.185511
   1 O :   -0.345657
   2 C :   -0.200412
   3 C :   -0.210326
   4 H :    0.132835
   5 H :    0.156171
   6 H :    0.132133
   7 H :    0.149745
Sum of atomic charges:    0.0000000

LOEWDIN ATOMIC CHARGES
----------------------
   0 C :    0.157164
   1 O :   -0.247339
   2 C :   -0.149879
   3 C :   -0.132805
   4 H :    0.077021
   5 H :    0.101454
   6 H :    0.087010
   7 H :    0.107374

  Mayer bond orders larger than 0.100000
B(  0-C ,  1-O ) :   1.9436 B(  0-C ,  2-C ) :   1.0055 B(  0-C ,  4-H ) :   0.9028
B(  2-C ,  3-C ) :   1.9893 B(  2-C ,  5-H ) :   0.9431 B(  3-C ,  6-H ) :   0.9627
B(  3-C ,  7-H ) :   0.9570

-----------------------------------------------------------------------------
         ABSORPTION SPECTRUM VIA TRANSITION ELECTRIC DIPOLE MOMENTS
-----------------------------------------------------------------------------
State   Energy    Wavelength  fosc         T2        TX        TY        TZ
        (cm-1)      (nm)                 (au**2)    (au)      (au)      (au)
-----------------------------------------------------------------------------
   1   35137.3    284.6   0.000054062   0.00051   0.01427   0.00888   0.01497

Dispersion correction           -0.025589601
FINAL SINGLE POINT ENERGY      -189.298170776893

DIPOLE MOMENT
-------------
                                X             Y             Z
Electronic contribution:     -2.72853      -0.91024       1.45100
Nuclear contribution   :      3.38366       1.42160      -2.20237
                        -----------------------------------------
Total Dipole Moment    :      0.65514       0.51136      -0.75137
                        -----------------------------------------
Magnitude (a.u.)       :      1.12038
Magnitude (Debye)      :      2.84777

Rotational constants in cm-1:     1.074582     0.169724     0.165862
Rotational constants in MHz : 32215.155918  5088.200743  4972.423594

                             ****ORCA TERMINATED NORMALLY****
TOTAL RUN TIME: 0 days 0 hours 0 minutes 9 seconds 726 msec
