                         Program Version 5.0.3 -  RELEASE  -
|  1> ! HF-3c
|  2> !TightSCF
|  3> %scf
|  4>  ConvForced true
|  5>  convergence tight
|  6>  MaxIter 500
|  7> end
|  8>
|  9> %tddft
| 10>  nroots 1
| 11> end
| 12>
| 13> # 	11075
| 14> * xyz 0 1
| 15> 		C   -1.204568  -0.327350   0.077863
| 16> 		O   -1.974512  -0.655453   0.874725
| 17> 		C    0.009632   0.417790   0.309725
| 18> 		C    1.234480   0.037756  -0.223942
| 19> 		H   -1.440402  -0.530034  -1.073201
| 20> 		H   -0.148756   1.225699   1.002750
| 21> 		H    1.313835  -0.697821  -0.793210
| 22> 		H    2.152137   0.556329  -0.203644
| 23> *
| 24>
| 25>                          ****END OF INPUT****

CARTESIAN COORDINATES (ANGSTROEM)
---------------------------------
  C     -1.204568   -0.327350    0.077863
  O     -1.974512   -0.655453    0.874725
  C      0.009632    0.417790    0.309725
  C      1.234480    0.037756   -0.223942
  H     -1.440402   -0.530034   -1.073201
  H     -0.148756    1.225699    1.002750
  H      1.313835   -0.697821   -0.793210
  H      2.152137    0.556329   -0.203644

 Total Charge           Charge          ....    0
 Multiplicity           Mult            ....    1
 Number of Electrons    NEL             ....   30
 Basis Dimension        Dim             ....   24

ORBITAL ENERGIES
----------------

  NO   OCC          E(Eh)            E(eV)
   0   2.0000     -20.390136      -554.8438
   1   2.0000     -11.314705      -307.8888
   2   2.0000     -11.203609      -304.8657
   3   2.0000     -11.197270      -304.6932
   4   2.0000      -1.450912       -39.4813
   5   2.0000      -1.084153       -29.5013
   6   2.0000      -0.911478       -24.8026
   7   2.0000      -0.775882       -21.1128
   8   2.0000      -0.688873       -18.7452
   9   2.0000      -0.662891       -18.0382
  10   2.0000      -0.615604       -16.7514
  11   2.0000      -0.577731       -15.7209
  12   2.0000      -0.540832       -14.7168
  13   2.0000      -0.408583       -11.1181
  14   2.0000      -0.392789       -10.6883
  15   0.0000       0.134632         3.6635
  16   0.0000       0.267680         7.2839
  17   0.0000       0.560989        15.2653
  18   0.0000       0.603720        16.4281
  19   0.0000       0.674325        18.3493

MULLIKEN ATOMIC CHARGES
-----------------------
   0 C :    0.191684
   1 O :   -0.357393
   2 C :   -0.150529
   3 C :   -0.259319
   4 H :    0.128197
   5 H :    0.159400
   6 H :    0.136017
   7 H :    0.151942
Sum of atomic charges:    0.0000000

LOEWDIN ATOMIC CHARGES
----------------------
   0 C :    0.150488
   1 O :   -0.242877
   2 C :   -0.103843
   3 C :   -0.150617
   4 H :    0.069714
   5 H :    0.103645
   6 H :    0.075639
   7 H :    0.097852

  Mayer bond orders larger than 0.100000
B(  0-C ,  1-O ) :   1.9305 B(  0-C ,  2-C ) :   1.0129 B(  0-C ,  4-H ) :   0.9010
B(  2-C ,  3-C ) :   1.9614 B(  2-C ,  5-H ) :   0.9523 B(  3-C ,  6-H ) :   0.9727
B(  3-C ,  7-H ) :   0.9665

-----------------------------------------------------------------------------
         ABSORPTION SPECTRUM VIA TRANSITION ELECTRIC DIPOLE MOMENTS
-----------------------------------------------------------------------------
State   Energy    Wavelength  fosc         T2        TX        TY        TZ
        (cm-1)      (nm)                 (au**2)    (au)      (au)      (au)
-----------------------------------------------------------------------------
   1   35827.5    279.1   0.000027907   0.00026   0.00076  -0.00727  -0.01425

Dispersion correction           -0.025324365
FINAL SINGLE POINT ENERGY      -189.277407507326

DIPOLE MOMENT
-------------
                                X             Y             Z
Electronic contribution:     -2.95782      -0.72230       1.37981
Nuclear contribution   :      3.69539       1.07391      -1.98862
                        -----------------------------------------
Total Dipole Moment    :      0.73757       0.35161      -0.60881
                        -----------------------------------------
Magnitude (a.u.)       :      1.01896
Magnitude (Debye)      :      2.58999

Rotational constants in cm-1:     1.396961     0.157179     0.149644
Rotational constants in MHz : 41879.850410  4712.120081  4486.204120

                             ****ORCA TERMINATED NORMALLY****
TOTAL RUN TIME: 0 days 0 hours 0 minutes 12 seconds 645 msec
