                         Program Version 5.0.3 -  RELEASE  -
|  1> ! B3LYP cc-pVDZ
|  2> !TightSCF
|  3> %scf
|  4>  ConvForced true
|  5>  convergence tight
|  6>  MaxIter 500
|  7> end
|  8>
|  9> %tddft
| 10>  nroots 1
| 11> end
| 12>
| 13> # 	27205
| 14> * xyz 0 1
| 15> 		C   -0.525759  -0.397783   0.001664
| 16> 		O   -0.578843  -1.644220  -0.009859
| 17> 		C    0.609725   0.418938  -0.022152
| 18> 		C    1.829648  -0.142672  -0.002256
| 19> 		H   -1.597001   0.084543   0.222518
| 20> 		H    0.438108   1.571438  -0.017096
| 21> 		H    1.904498  -1.336880   0.156886
| 22> 		H    2.623878   0.484467   0.062091
| 23> *
| 24>
| 25>                          ****END OF INPUT****

CARTESIAN COORDINATES (ANGSTROEM)
---------------------------------
  C     -0.525759   -0.397783    0.001664
  O     -0.578843   -1.644220   -0.009859
  C      0.609725    0.418938   -0.022152
  C      1.829648   -0.142672   -0.002256
  H     -1.597001    0.084543    0.222518
  H      0.438108    1.571438   -0.017096
  H      1.904498   -1.336880    0.156886
  H      2.623878    0.484467    0.062091

 Total Charge           Charge          ....    0
 Multiplicity           Mult            ....    1
 Number of Electrons    NEL             ....   30
 Basis Dimension        Dim             ....   76

ORBITAL ENERGIES
----------------

  NO   OCC          E(Eh)            E(eV)
   0   2.0000     -19.132205      -520.6138
   1   2.0000     -10.273558      -279.5577
   2   2.0000     -10.224201      -278.2147
   3   2.0000     -10.214252      -277.9439
   4   2.0000      -1.022903       -27.8346
   5   2.0000      -0.808201       -21.9923
   6   2.0000      -0.667759       -18.1707
   7   2.0000      -0.523901       -14.2561
   8   2.0000      -0.510873       -13.9016
   9   2.0000      -0.442888       -12.0516
  10   2.0000      -0.416098       -11.3226
  11   2.0000      -0.390807       -10.6344
  12   2.0000      -0.378290       -10.2938
  13   2.0000      -0.289525        -7.8784
  14   2.0000      -0.249311        -6.7841
  15   0.0000      -0.081650        -2.2218
  16   0.0000       0.052563         1.4303
  17   0.0000       0.064585         1.7575
  18   0.0000       0.080045         2.1781
  19   0.0000       0.112255         3.0546

MULLIKEN ATOMIC CHARGES
-----------------------
   0 C :    0.154817
   1 O :   -0.225064
   2 C :   -0.120701
   3 C :    0.096907
   4 H :   -0.016317
   5 H :    0.021503
   6 H :    0.079939
   7 H :    0.008916
Sum of atomic charges:    0.0000000

LOEWDIN ATOMIC CHARGES
----------------------
   0 C :   -0.038830
   1 O :   -0.046923
   2 C :   -0.092324
   3 C :    0.049456
   4 H :    0.002495
   5 H :    0.049201
   6 H :    0.067265
   7 H :    0.009659

  Mayer bond orders larger than 0.100000
B(  0-C ,  1-O ) :   2.1277 B(  0-C ,  2-C ) :   1.1079 B(  0-C ,  4-H ) :   0.9169
B(  1-O ,  3-C ) :   0.1158 B(  2-C ,  3-C ) :   1.9191 B(  2-C ,  5-H ) :   0.9390
B(  3-C ,  6-H ) :   0.9248 B(  3-C ,  7-H ) :   0.9321

-----------------------------------------------------------------------------
         ABSORPTION SPECTRUM VIA TRANSITION ELECTRIC DIPOLE MOMENTS
-----------------------------------------------------------------------------
State   Energy    Wavelength  fosc         T2        TX        TY        TZ
        (cm-1)      (nm)                 (au**2)    (au)      (au)      (au)
-----------------------------------------------------------------------------
   1   24164.5    413.8   0.000213856   0.00291   0.00337   0.01080   0.05278

FINAL SINGLE POINT ENERGY      -191.672356630256

DIPOLE MOMENT
-------------
                                X             Y             Z
Electronic contribution:     -1.41584      -1.59231      -0.32974
Nuclear contribution   :      2.00215       2.54097       0.39822
                        -----------------------------------------
Total Dipole Moment    :      0.58631       0.94866       0.06848
                        -----------------------------------------
Magnitude (a.u.)       :      1.11732
Magnitude (Debye)      :      2.84000

Rotational constants in cm-1:     0.738920     0.216330     0.167626
Rotational constants in MHz : 22152.262147  6485.409878  5025.314983

                             ****ORCA TERMINATED NORMALLY****
TOTAL RUN TIME: 0 days 0 hours 3 minutes 19 seconds 221 msec
