                         Program Version 5.0.3 -  RELEASE  -
|  1> ! HF-3c
|  2> !TightSCF
|  3> %scf
|  4>  ConvForced true
|  5>  convergence tight
|  6>  MaxIter 500
|  7> end
|  8>
|  9> %tddft
| 10>  nroots 1
| 11> end
| 12>
| 13> # 	11957
| 14> * xyz 0 1
| 15> 		C   -1.189416  -0.382203  -0.030435
| 16> 		O   -2.219722  -0.346214  -0.709763
| 17> 		C    0.069561   0.330095  -0.439781
| 18> 		C    1.207909   0.083381   0.174972
| 19> 		H   -1.113704  -0.916940   0.890573
| 20> 		H   -0.051153   1.073334  -1.078136
| 21> 		H    1.245716  -0.656564   1.075878
| 22> 		H    2.066555   0.777073   0.097771
| 23> *
| 24>
| 25>                          ****END OF INPUT****

CARTESIAN COORDINATES (ANGSTROEM)
---------------------------------
  C     -1.189416   -0.382203   -0.030435
  O     -2.219722   -0.346214   -0.709763
  C      0.069561    0.330095   -0.439781
  C      1.207909    0.083381    0.174972
  H     -1.113704   -0.916940    0.890573
  H     -0.051153    1.073334   -1.078136
  H      1.245716   -0.656564    1.075878
  H      2.066555    0.777073    0.097771

 Total Charge           Charge          ....    0
 Multiplicity           Mult            ....    1
 Number of Electrons    NEL             ....   30
 Basis Dimension        Dim             ....   24

ORBITAL ENERGIES
----------------

  NO   OCC          E(Eh)            E(eV)
   0   2.0000     -20.366284      -554.1948
   1   2.0000     -11.294352      -307.3349
   2   2.0000     -11.195344      -304.6408
   3   2.0000     -11.193832      -304.5997
   4   2.0000      -1.386789       -37.7365
   5   2.0000      -1.092161       -29.7192
   6   2.0000      -0.877377       -23.8746
   7   2.0000      -0.796924       -21.6854
   8   2.0000      -0.664944       -18.0940
   9   2.0000      -0.650612       -17.7041
  10   2.0000      -0.584118       -15.8947
  11   2.0000      -0.541027       -14.7221
  12   2.0000      -0.528322       -14.3764
  13   2.0000      -0.417709       -11.3664
  14   2.0000      -0.401808       -10.9338
  15   0.0000       0.130044         3.5387
  16   0.0000       0.289466         7.8768
  17   0.0000       0.523872        14.2553
  18   0.0000       0.605821        16.4852
  19   0.0000       0.663444        18.0532

MULLIKEN ATOMIC CHARGES
-----------------------
   0 C :    0.162992
   1 O :   -0.340678
   2 C :   -0.192186
   3 C :   -0.211121
   4 H :    0.137407
   5 H :    0.153549
   6 H :    0.142068
   7 H :    0.147969
Sum of atomic charges:   -0.0000000

LOEWDIN ATOMIC CHARGES
----------------------
   0 C :    0.151806
   1 O :   -0.252499
   2 C :   -0.136533
   3 C :   -0.121011
   4 H :    0.071812
   5 H :    0.090669
   6 H :    0.097841
   7 H :    0.097913

  Mayer bond orders larger than 0.100000
B(  0-C ,  1-O ) :   1.9166 B(  0-C ,  2-C ) :   1.0149 B(  0-C ,  4-H ) :   0.9304
B(  2-C ,  3-C ) :   1.9576 B(  2-C ,  5-H ) :   0.9583 B(  3-C ,  6-H ) :   0.9604
B(  3-C ,  7-H ) :   0.9618

-----------------------------------------------------------------------------
         ABSORPTION SPECTRUM VIA TRANSITION ELECTRIC DIPOLE MOMENTS
-----------------------------------------------------------------------------
State   Energy    Wavelength  fosc         T2        TX        TY        TZ
        (cm-1)      (nm)                 (au**2)    (au)      (au)      (au)
-----------------------------------------------------------------------------
   1   31687.1    315.6   0.000017391   0.00018  -0.00384   0.00575  -0.01153

Dispersion correction           -0.025675709
FINAL SINGLE POINT ENERGY      -189.333631690574

DIPOLE MOMENT
-------------
                                X             Y             Z
Electronic contribution:     -3.12331      -0.53261      -1.17745
Nuclear contribution   :      4.15179       0.58289       1.84922
                        -----------------------------------------
Total Dipole Moment    :      1.02848       0.05028       0.67178
                        -----------------------------------------
Magnitude (a.u.)       :      1.22946
Magnitude (Debye)      :      3.12504

Rotational constants in cm-1:     1.564687     0.153785     0.140758
Rotational constants in MHz : 46908.121721  4610.352930  4219.817334

                             ****ORCA TERMINATED NORMALLY****
TOTAL RUN TIME: 0 days 0 hours 0 minutes 16 seconds 88 msec
