                         Program Version 5.0.3 -  RELEASE  -
|  1> ! HF-3c
|  2> !TightSCF
|  3> %scf
|  4>  ConvForced true
|  5>  convergence tight
|  6>  MaxIter 500
|  7> end
|  8>
|  9> %tddft
| 10>  nroots 1
| 11> end
| 12>
| 13> # 	23410
| 14> * xyz 0 1
| 15> 		C   -0.567083  -0.404397   0.004917
| 16> 		O   -0.553263  -1.628806  -0.011306
| 17> 		C    0.597745   0.414252   0.006717
| 18> 		C    1.834641  -0.145258  -0.006941
| 19> 		H   -1.480433   0.098507   0.128152
| 20> 		H    0.515984   1.541373  -0.151769
| 21> 		H    1.782097  -1.322090   0.100246
| 22> 		H    2.698695   0.390671   0.038986
| 23> *
| 24>
| 25>                          ****END OF INPUT****

CARTESIAN COORDINATES (ANGSTROEM)
---------------------------------
  C     -0.567083   -0.404397    0.004917
  O     -0.553263   -1.628806   -0.011306
  C      0.597745    0.414252    0.006717
  C      1.834641   -0.145258   -0.006941
  H     -1.480433    0.098507    0.128152
  H      0.515984    1.541373   -0.151769
  H      1.782097   -1.322090    0.100246
  H      2.698695    0.390671    0.038986

 Total Charge           Charge          ....    0
 Multiplicity           Mult            ....    1
 Number of Electrons    NEL             ....   30
 Basis Dimension        Dim             ....   24

ORBITAL ENERGIES
----------------

  NO   OCC          E(Eh)            E(eV)
   0   2.0000     -20.355524      -553.9020
   1   2.0000     -11.293721      -307.3178
   2   2.0000     -11.191113      -304.5257
   3   2.0000     -11.183231      -304.3112
   4   2.0000      -1.392249       -37.8850
   5   2.0000      -1.077748       -29.3270
   6   2.0000      -0.905747       -24.6466
   7   2.0000      -0.752516       -20.4770
   8   2.0000      -0.699229       -19.0270
   9   2.0000      -0.611083       -16.6284
  10   2.0000      -0.596828       -16.2405
  11   2.0000      -0.541522       -14.7356
  12   2.0000      -0.510233       -13.8841
  13   2.0000      -0.421780       -11.4772
  14   2.0000      -0.382712       -10.4141
  15   0.0000       0.118762         3.2317
  16   0.0000       0.311206         8.4684
  17   0.0000       0.544659        14.8209
  18   0.0000       0.596452        16.2303
  19   0.0000       0.657277        17.8854

MULLIKEN ATOMIC CHARGES
-----------------------
   0 C :    0.142536
   1 O :   -0.353600
   2 C :   -0.177727
   3 C :   -0.207765
   4 H :    0.138251
   5 H :    0.142813
   6 H :    0.171056
   7 H :    0.144437
Sum of atomic charges:    0.0000000

LOEWDIN ATOMIC CHARGES
----------------------
   0 C :    0.137557
   1 O :   -0.266119
   2 C :   -0.140553
   3 C :   -0.107321
   4 H :    0.070218
   5 H :    0.095102
   6 H :    0.122748
   7 H :    0.088368

  Mayer bond orders larger than 0.100000
B(  0-C ,  1-O ) :   1.8774 B(  0-C ,  2-C ) :   1.0631 B(  0-C ,  4-H ) :   0.9327
B(  2-C ,  3-C ) :   1.9127 B(  2-C ,  5-H ) :   0.9573 B(  3-C ,  6-H ) :   0.9503
B(  3-C ,  7-H ) :   0.9689

-----------------------------------------------------------------------------
         ABSORPTION SPECTRUM VIA TRANSITION ELECTRIC DIPOLE MOMENTS
-----------------------------------------------------------------------------
State   Energy    Wavelength  fosc         T2        TX        TY        TZ
        (cm-1)      (nm)                 (au**2)    (au)      (au)      (au)
-----------------------------------------------------------------------------
   1   31331.9    319.2   0.000103495   0.00109  -0.02778  -0.00166   0.01769

Dispersion correction           -0.026287418
FINAL SINGLE POINT ENERGY      -189.328581775831

DIPOLE MOMENT
-------------
                                X             Y             Z
Electronic contribution:     -1.78561      -1.56604      -0.08457
Nuclear contribution   :      2.14185       2.45305       0.10884
                        -----------------------------------------
Total Dipole Moment    :      0.35624       0.88701       0.02427
                        -----------------------------------------
Magnitude (a.u.)       :      0.95618
Magnitude (Debye)      :      2.43042

Rotational constants in cm-1:     0.745593     0.219344     0.169671
Rotational constants in MHz : 22352.322127  6575.774847  5086.617926

                             ****ORCA TERMINATED NORMALLY****
TOTAL RUN TIME: 0 days 0 hours 0 minutes 12 seconds 391 msec
