                         Program Version 5.0.3 -  RELEASE  -
|  1> ! HF-3c
|  2> !TightSCF
|  3> %scf
|  4>  ConvForced true
|  5>  convergence tight
|  6>  MaxIter 500
|  7> end
|  8>
|  9> %tddft
| 10>  nroots 1
| 11> end
| 12>
| 13> # 	11182
| 14> * xyz 0 1
| 15> 		C   -1.184145  -0.382309  -0.012005
| 16> 		O   -1.233604  -1.448070   0.365443
| 17> 		C    0.068302   0.501806   0.180644
| 18> 		C    1.207573  -0.029140  -0.061946
| 19> 		H   -2.032881   0.263576  -0.465754
| 20> 		H   -0.048958   1.563455   0.353515
| 21> 		H    1.196974  -1.052672  -0.290995
| 22> 		H    1.978812   0.584519  -0.072277
| 23> *
| 24>
| 25>                          ****END OF INPUT****

CARTESIAN COORDINATES (ANGSTROEM)
---------------------------------
  C     -1.184145   -0.382309   -0.012005
  O     -1.233604   -1.448070    0.365443
  C      0.068302    0.501806    0.180644
  C      1.207573   -0.029140   -0.061946
  H     -2.032881    0.263576   -0.465754
  H     -0.048958    1.563455    0.353515
  H      1.196974   -1.052672   -0.290995
  H      1.978812    0.584519   -0.072277

 Total Charge           Charge          ....    0
 Multiplicity           Mult            ....    1
 Number of Electrons    NEL             ....   30
 Basis Dimension        Dim             ....   24

ORBITAL ENERGIES
----------------

  NO   OCC          E(Eh)            E(eV)
   0   2.0000     -20.407180      -555.3076
   1   2.0000     -11.323606      -308.1310
   2   2.0000     -11.183717      -304.3244
   3   2.0000     -11.183016      -304.3053
   4   2.0000      -1.474703       -40.1287
   5   2.0000      -1.100627       -29.9496
   6   2.0000      -0.881658       -23.9911
   7   2.0000      -0.751284       -20.4435
   8   2.0000      -0.729808       -19.8591
   9   2.0000      -0.640968       -17.4416
  10   2.0000      -0.625140       -17.0109
  11   2.0000      -0.574504       -15.6330
  12   2.0000      -0.556541       -15.1442
  13   2.0000      -0.419708       -11.4208
  14   2.0000      -0.401059       -10.9134
  15   0.0000       0.172484         4.6935
  16   0.0000       0.292817         7.9680
  17   0.0000       0.536429        14.5970
  18   0.0000       0.611575        16.6418
  19   0.0000       0.665429        18.1072

MULLIKEN ATOMIC CHARGES
-----------------------
   0 C :    0.215867
   1 O :   -0.364579
   2 C :   -0.156533
   3 C :   -0.276229
   4 H :    0.133599
   5 H :    0.141833
   6 H :    0.158896
   7 H :    0.147146
Sum of atomic charges:    0.0000000

LOEWDIN ATOMIC CHARGES
----------------------
   0 C :    0.165506
   1 O :   -0.237105
   2 C :   -0.115746
   3 C :   -0.166397
   4 H :    0.071553
   5 H :    0.089911
   6 H :    0.103107
   7 H :    0.089173

  Mayer bond orders larger than 0.100000
B(  0-C ,  1-O ) :   1.9576 B(  0-C ,  2-C ) :   0.9594 B(  0-C ,  4-H ) :   0.9012
B(  2-C ,  3-C ) :   1.9896 B(  2-C ,  5-H ) :   0.9590 B(  3-C ,  6-H ) :   0.9578
B(  3-C ,  7-H ) :   0.9645

-----------------------------------------------------------------------------
         ABSORPTION SPECTRUM VIA TRANSITION ELECTRIC DIPOLE MOMENTS
-----------------------------------------------------------------------------
State   Energy    Wavelength  fosc         T2        TX        TY        TZ
        (cm-1)      (nm)                 (au**2)    (au)      (au)      (au)
-----------------------------------------------------------------------------
   1   38995.1    256.4   0.000463269   0.00391   0.05968   0.00255   0.01852

Dispersion correction           -0.026367685
FINAL SINGLE POINT ENERGY      -189.284991244020

DIPOLE MOMENT
-------------
                                X             Y             Z
Electronic contribution:     -2.10050      -1.78624       0.53986
Nuclear contribution   :      2.18622       2.64534      -0.88751
                        -----------------------------------------
Total Dipole Moment    :      0.08572       0.85910      -0.34765
                        -----------------------------------------
Magnitude (a.u.)       :      0.93073
Magnitude (Debye)      :      2.36572

Rotational constants in cm-1:     0.837408     0.207551     0.171789
Rotational constants in MHz : 25104.848017  6222.218007  5150.090793

                             ****ORCA TERMINATED NORMALLY****
TOTAL RUN TIME: 0 days 0 hours 0 minutes 16 seconds 78 msec
