                         Program Version 5.0.3 -  RELEASE  -
|  1> ! HF-3c
|  2> !TightSCF
|  3> %scf
|  4>  ConvForced true
|  5>  convergence tight
|  6>  MaxIter 500
|  7> end
|  8>
|  9> %tddft
| 10>  nroots 1
| 11> end
| 12>
| 13> # 	23245
| 14> * xyz 0 1
| 15> 		C   -0.571632  -0.411794  -0.018636
| 16> 		O   -0.573118  -1.675097   0.015411
| 17> 		C    0.619047   0.439369   0.033374
| 18> 		C    1.826484  -0.115601  -0.010996
| 19> 		H   -1.536688   0.153941  -0.145747
| 20> 		H    0.675472   1.559542  -0.027139
| 21> 		H    1.875525  -1.354543  -0.152554
| 22> 		H    2.765515   0.523990   0.042010
| 23> *
| 24>
| 25>                          ****END OF INPUT****

CARTESIAN COORDINATES (ANGSTROEM)
---------------------------------
  C     -0.571632   -0.411794   -0.018636
  O     -0.573118   -1.675097    0.015411
  C      0.619047    0.439369    0.033374
  C      1.826484   -0.115601   -0.010996
  H     -1.536688    0.153941   -0.145747
  H      0.675472    1.559542   -0.027139
  H      1.875525   -1.354543   -0.152554
  H      2.765515    0.523990    0.042010

 Total Charge           Charge          ....    0
 Multiplicity           Mult            ....    1
 Number of Electrons    NEL             ....   30
 Basis Dimension        Dim             ....   24

ORBITAL ENERGIES
----------------

  NO   OCC          E(Eh)            E(eV)
   0   2.0000     -20.342073      -553.5359
   1   2.0000     -11.283255      -307.0330
   2   2.0000     -11.184912      -304.3569
   3   2.0000     -11.176611      -304.1310
   4   2.0000      -1.357702       -36.9449
   5   2.0000      -1.072736       -29.1906
   6   2.0000      -0.876798       -23.8589
   7   2.0000      -0.717898       -19.5350
   8   2.0000      -0.690742       -18.7961
   9   2.0000      -0.588976       -16.0269
  10   2.0000      -0.569476       -15.4962
  11   2.0000      -0.519137       -14.1264
  12   2.0000      -0.495641       -13.4871
  13   2.0000      -0.412102       -11.2139
  14   2.0000      -0.381743       -10.3878
  15   0.0000       0.128019         3.4836
  16   0.0000       0.311547         8.4776
  17   0.0000       0.498878        13.5752
  18   0.0000       0.543594        14.7919
  19   0.0000       0.573252        15.5990

MULLIKEN ATOMIC CHARGES
-----------------------
   0 C :    0.154684
   1 O :   -0.356424
   2 C :   -0.206325
   3 C :   -0.181486
   4 H :    0.135819
   5 H :    0.147053
   6 H :    0.164687
   7 H :    0.141991
Sum of atomic charges:    0.0000000

LOEWDIN ATOMIC CHARGES
----------------------
   0 C :    0.150549
   1 O :   -0.279549
   2 C :   -0.165859
   3 C :   -0.096251
   4 H :    0.075631
   5 H :    0.098491
   6 H :    0.121563
   7 H :    0.095424

  Mayer bond orders larger than 0.100000
B(  0-C ,  1-O ) :   1.8877 B(  0-C ,  2-C ) :   1.0492 B(  0-C ,  4-H ) :   0.9289
B(  2-C ,  3-C ) :   1.9215 B(  2-C ,  5-H ) :   0.9552 B(  3-C ,  6-H ) :   0.9488
B(  3-C ,  7-H ) :   0.9630

-----------------------------------------------------------------------------
         ABSORPTION SPECTRUM VIA TRANSITION ELECTRIC DIPOLE MOMENTS
-----------------------------------------------------------------------------
State   Energy    Wavelength  fosc         T2        TX        TY        TZ
        (cm-1)      (nm)                 (au**2)    (au)      (au)      (au)
-----------------------------------------------------------------------------
   1   30853.6    324.1   0.000042508   0.00045   0.00823   0.00022  -0.01964

Dispersion correction           -0.025562186
FINAL SINGLE POINT ENERGY      -189.325207584423

DIPOLE MOMENT
-------------
                                X             Y             Z
Electronic contribution:     -1.92860      -1.65898       0.17267
Nuclear contribution   :      2.38531       2.61576      -0.26607
                        -----------------------------------------
Total Dipole Moment    :      0.45672       0.95678      -0.09340
                        -----------------------------------------
Magnitude (a.u.)       :      1.06431
Magnitude (Debye)      :      2.70525

Rotational constants in cm-1:     0.734488     0.208300     0.162498
Rotational constants in MHz : 22019.392932  6244.685401  4871.560304

                             ****ORCA TERMINATED NORMALLY****
TOTAL RUN TIME: 0 days 0 hours 0 minutes 15 seconds 988 msec
