                         Program Version 5.0.3 -  RELEASE  -
|  1> ! B3LYP cc-pVDZ
|  2> !TightSCF
|  3> %scf
|  4>  ConvForced true
|  5>  convergence tight
|  6>  MaxIter 500
|  7> end
|  8>
|  9> %tddft
| 10>  nroots 1
| 11> end
| 12>
| 13> # 	20189
| 14> * xyz 0 1
| 15> 		C   -0.575810  -0.444948  -0.003502
| 16> 		O   -0.571057  -1.570093  -0.008807
| 17> 		C    0.610581   0.354116   0.012711
| 18> 		C    1.865424  -0.139862   0.005184
| 19> 		H   -1.602131   0.083879   0.136770
| 20> 		H    0.476410   1.502439  -0.182459
| 21> 		H    1.885288  -1.267090   0.021770
| 22> 		H    2.613908   0.596574  -0.019047
| 23> *
| 24>
| 25>                          ****END OF INPUT****

CARTESIAN COORDINATES (ANGSTROEM)
---------------------------------
  C     -0.575810   -0.444948   -0.003502
  O     -0.571057   -1.570093   -0.008807
  C      0.610581    0.354116    0.012711
  C      1.865424   -0.139862    0.005184
  H     -1.602131    0.083879    0.136770
  H      0.476410    1.502439   -0.182459
  H      1.885288   -1.267090    0.021770
  H      2.613908    0.596574   -0.019047

 Total Charge           Charge          ....    0
 Multiplicity           Mult            ....    1
 Number of Electrons    NEL             ....   30
 Basis Dimension        Dim             ....   76

ORBITAL ENERGIES
----------------

  NO   OCC          E(Eh)            E(eV)
   0   2.0000     -19.136272      -520.7244
   1   2.0000     -10.266463      -279.3646
   2   2.0000     -10.212869      -277.9063
   3   2.0000     -10.202232      -277.6168
   4   2.0000      -1.099399       -29.9162
   5   2.0000      -0.795049       -21.6344
   6   2.0000      -0.655787       -17.8449
   7   2.0000      -0.530842       -14.4449
   8   2.0000      -0.511311       -13.9135
   9   2.0000      -0.454059       -12.3556
  10   2.0000      -0.435539       -11.8516
  11   2.0000      -0.429144       -11.6776
  12   2.0000      -0.373118       -10.1531
  13   2.0000      -0.287917        -7.8346
  14   2.0000      -0.253118        -6.8877
  15   0.0000      -0.063765        -1.7351
  16   0.0000       0.060165         1.6372
  17   0.0000       0.081962         2.2303
  18   0.0000       0.091098         2.4789
  19   0.0000       0.118593         3.2271

MULLIKEN ATOMIC CHARGES
-----------------------
   0 C :    0.156337
   1 O :   -0.114197
   2 C :   -0.168310
   3 C :    0.104281
   4 H :   -0.049626
   5 H :    0.004972
   6 H :    0.044818
   7 H :    0.021724
Sum of atomic charges:   -0.0000000

LOEWDIN ATOMIC CHARGES
----------------------
   0 C :   -0.112747
   1 O :    0.083505
   2 C :   -0.089474
   3 C :    0.026295
   4 H :   -0.015341
   5 H :    0.036866
   6 H :    0.044736
   7 H :    0.026158

  Mayer bond orders larger than 0.100000
B(  0-C ,  1-O ) :   2.2814 B(  0-C ,  2-C ) :   1.0487 B(  0-C ,  4-H ) :   0.9002
B(  2-C ,  3-C ) :   1.9717 B(  2-C ,  5-H ) :   0.9354 B(  3-C ,  6-H ) :   0.9239
B(  3-C ,  7-H ) :   0.9313

-----------------------------------------------------------------------------
         ABSORPTION SPECTRUM VIA TRANSITION ELECTRIC DIPOLE MOMENTS
-----------------------------------------------------------------------------
State   Energy    Wavelength  fosc         T2        TX        TY        TZ
        (cm-1)      (nm)                 (au**2)    (au)      (au)      (au)
-----------------------------------------------------------------------------
   1   29326.9    341.0   0.000445615   0.00500   0.04121   0.00826  -0.05688

FINAL SINGLE POINT ENERGY      -191.645534777581

DIPOLE MOMENT
-------------
                                X             Y             Z
Electronic contribution:     -1.59899      -1.94498       0.00057
Nuclear contribution   :      2.00820       2.64819      -0.03968
                        -----------------------------------------
Total Dipole Moment    :      0.40921       0.70321      -0.03911
                        -----------------------------------------
Magnitude (a.u.)       :      0.81455
Magnitude (Debye)      :      2.07042

Rotational constants in cm-1:     0.820104     0.216242     0.171319
Rotational constants in MHz : 24586.098931  6482.777571  5136.023731

                             ****ORCA TERMINATED NORMALLY****
TOTAL RUN TIME: 0 days 0 hours 3 minutes 23 seconds 653 msec
