                         Program Version 5.0.3 -  RELEASE  -
|  1> ! B3LYP cc-pVDZ
|  2> !TightSCF
|  3> %scf
|  4>  ConvForced true
|  5>  convergence tight
|  6>  MaxIter 500
|  7> end
|  8>
|  9> %tddft
| 10>  nroots 1
| 11> end
| 12>
| 13> # 	25466
| 14> * xyz 0 1
| 15> 		C   -0.597522  -0.491423   0.017255
| 16> 		O   -0.636499  -1.659166   0.010201
| 17> 		C    0.649776   0.435528  -0.002050
| 18> 		C    1.890662  -0.054014  -0.010075
| 19> 		H   -1.640944   0.077108  -0.277035
| 20> 		H    0.517220   1.477303   0.118419
| 21> 		H    2.229883  -1.156661  -0.141454
| 22> 		H    2.821230   0.499573   0.093287
| 23> *
| 24>
| 25>                          ****END OF INPUT****

CARTESIAN COORDINATES (ANGSTROEM)
---------------------------------
  C     -0.597522   -0.491423    0.017255
  O     -0.636499   -1.659166    0.010201
  C      0.649776    0.435528   -0.002050
  C      1.890662   -0.054014   -0.010075
  H     -1.640944    0.077108   -0.277035
  H      0.517220    1.477303    0.118419
  H      2.229883   -1.156661   -0.141454
  H      2.821230    0.499573    0.093287

 Total Charge           Charge          ....    0
 Multiplicity           Mult            ....    1
 Number of Electrons    NEL             ....   30
 Basis Dimension        Dim             ....   76

ORBITAL ENERGIES
----------------

  NO   OCC          E(Eh)            E(eV)
   0   2.0000     -19.147340      -521.0256
   1   2.0000     -10.287582      -279.9394
   2   2.0000     -10.218949      -278.0717
   3   2.0000     -10.210039      -277.8293
   4   2.0000      -1.075541       -29.2670
   5   2.0000      -0.788959       -21.4687
   6   2.0000      -0.639623       -17.4050
   7   2.0000      -0.542443       -14.7606
   8   2.0000      -0.498958       -13.5773
   9   2.0000      -0.455129       -12.3847
  10   2.0000      -0.434679       -11.8282
  11   2.0000      -0.409233       -11.1358
  12   2.0000      -0.372641       -10.1401
  13   2.0000      -0.292533        -7.9602
  14   2.0000      -0.253511        -6.8984
  15   0.0000      -0.063918        -1.7393
  16   0.0000       0.051710         1.4071
  17   0.0000       0.069541         1.8923
  18   0.0000       0.080696         2.1958
  19   0.0000       0.110215         2.9991

MULLIKEN ATOMIC CHARGES
-----------------------
   0 C :    0.139105
   1 O :   -0.133075
   2 C :   -0.080713
   3 C :    0.026599
   4 H :   -0.024656
   5 H :   -0.008505
   6 H :    0.049524
   7 H :    0.031720
Sum of atomic charges:    0.0000000

LOEWDIN ATOMIC CHARGES
----------------------
   0 C :   -0.056333
   1 O :    0.045046
   2 C :   -0.082008
   3 C :    0.009597
   4 H :   -0.013146
   5 H :    0.023077
   6 H :    0.044900
   7 H :    0.028868

  Mayer bond orders larger than 0.100000
B(  0-C ,  1-O ) :   2.2660 B(  0-C ,  2-C ) :   0.9761 B(  0-C ,  4-H ) :   0.8841
B(  2-C ,  3-C ) :   1.9678 B(  2-C ,  5-H ) :   0.9440 B(  3-C ,  6-H ) :   0.9483
B(  3-C ,  7-H ) :   0.9501

-----------------------------------------------------------------------------
         ABSORPTION SPECTRUM VIA TRANSITION ELECTRIC DIPOLE MOMENTS
-----------------------------------------------------------------------------
State   Energy    Wavelength  fosc         T2        TX        TY        TZ
        (cm-1)      (nm)                 (au**2)    (au)      (au)      (au)
-----------------------------------------------------------------------------
   1   29240.4    342.0   0.000589749   0.00664  -0.06858  -0.00088  -0.04400

FINAL SINGLE POINT ENERGY      -191.654888330098

DIPOLE MOMENT
-------------
                                X             Y             Z
Electronic contribution:     -2.02607      -1.86029       0.21414
Nuclear contribution   :      2.52526       2.62906      -0.19495
                        -----------------------------------------
Total Dipole Moment    :      0.49919       0.76877       0.01920
                        -----------------------------------------
Magnitude (a.u.)       :      0.91682
Magnitude (Debye)      :      2.33037

Rotational constants in cm-1:     0.792223     0.190172     0.153713
Rotational constants in MHz : 23750.241890  5701.204853  4608.210260

                             ****ORCA TERMINATED NORMALLY****
TOTAL RUN TIME: 0 days 0 hours 3 minutes 21 seconds 993 msec
