                         Program Version 5.0.3 -  RELEASE  -
|  1> ! B3LYP cc-pVDZ
|  2> !TightSCF
|  3> %scf
|  4>  ConvForced true
|  5>  convergence tight
|  6>  MaxIter 500
|  7> end
|  8>
|  9> %tddft
| 10>  nroots 1
| 11> end
| 12>
| 13> # 	5186
| 14> * xyz 0 1
| 15> 		C   -1.187578  -0.291123   0.076673
| 16> 		O   -1.288410  -1.411115   0.541371
| 17> 		C    0.005332   0.497074   0.122346
| 18> 		C    1.200322   0.010414  -0.155746
| 19> 		H   -2.063965   0.117622  -0.433004
| 20> 		H   -0.153869   1.698188   0.086409
| 21> 		H    1.269726  -1.155491  -0.147985
| 22> 		H    2.244701   0.503342  -0.119655
| 23> *
| 24>
| 25>                          ****END OF INPUT****

CARTESIAN COORDINATES (ANGSTROEM)
---------------------------------
  C     -1.187578   -0.291123    0.076673
  O     -1.288410   -1.411115    0.541371
  C      0.005332    0.497074    0.122346
  C      1.200322    0.010414   -0.155746
  H     -2.063965    0.117622   -0.433004
  H     -0.153869    1.698188    0.086409
  H      1.269726   -1.155491   -0.147985
  H      2.244701    0.503342   -0.119655

 Total Charge           Charge          ....    0
 Multiplicity           Mult            ....    1
 Number of Electrons    NEL             ....   30
 Basis Dimension        Dim             ....   76

ORBITAL ENERGIES
----------------

  NO   OCC          E(Eh)            E(eV)
   0   2.0000     -19.136619      -520.7339
   1   2.0000     -10.272849      -279.5384
   2   2.0000     -10.224808      -278.2312
   3   2.0000     -10.215188      -277.9694
   4   2.0000      -1.043918       -28.4065
   5   2.0000      -0.801426       -21.8079
   6   2.0000      -0.659019       -17.9328
   7   2.0000      -0.538114       -14.6428
   8   2.0000      -0.499726       -13.5982
   9   2.0000      -0.452032       -12.3004
  10   2.0000      -0.434243       -11.8163
  11   2.0000      -0.385745       -10.4967
  12   2.0000      -0.358140        -9.7455
  13   2.0000      -0.294274        -8.0076
  14   2.0000      -0.256087        -6.9685
  15   0.0000      -0.064400        -1.7524
  16   0.0000       0.034295         0.9332
  17   0.0000       0.058352         1.5878
  18   0.0000       0.079941         2.1753
  19   0.0000       0.115599         3.1456

MULLIKEN ATOMIC CHARGES
-----------------------
   0 C :    0.189136
   1 O :   -0.200363
   2 C :   -0.098775
   3 C :   -0.010197
   4 H :   -0.017808
   5 H :    0.025697
   6 H :    0.053968
   7 H :    0.058342
Sum of atomic charges:    0.0000000

LOEWDIN ATOMIC CHARGES
----------------------
   0 C :   -0.036730
   1 O :   -0.007206
   2 C :   -0.088306
   3 C :   -0.008591
   4 H :   -0.001688
   5 H :    0.049563
   6 H :    0.046459
   7 H :    0.046501

  Mayer bond orders larger than 0.100000
B(  0-C ,  1-O ) :   2.1755 B(  0-C ,  2-C ) :   1.0534 B(  0-C ,  4-H ) :   0.9250
B(  2-C ,  3-C ) :   1.9661 B(  2-C ,  5-H ) :   0.9192 B(  3-C ,  6-H ) :   0.9280
B(  3-C ,  7-H ) :   0.9464

-----------------------------------------------------------------------------
         ABSORPTION SPECTRUM VIA TRANSITION ELECTRIC DIPOLE MOMENTS
-----------------------------------------------------------------------------
State   Energy    Wavelength  fosc         T2        TX        TY        TZ
        (cm-1)      (nm)                 (au**2)    (au)      (au)      (au)
-----------------------------------------------------------------------------
   1   28872.2    346.4   0.000208630   0.00238  -0.03488  -0.02289   0.02527

FINAL SINGLE POINT ENERGY      -191.655356017021

DIPOLE MOMENT
-------------
                                X             Y             Z
Electronic contribution:     -2.04315      -1.51252       0.79006
Nuclear contribution   :      2.48017       2.33452      -1.14362
                        -----------------------------------------
Total Dipole Moment    :      0.43702       0.82200      -0.35356
                        -----------------------------------------
Magnitude (a.u.)       :      0.99583
Magnitude (Debye)      :      2.53120

Rotational constants in cm-1:     0.807770     0.200439     0.165093
Rotational constants in MHz : 24216.338825  6009.005953  4949.356560

                             ****ORCA TERMINATED NORMALLY****
TOTAL RUN TIME: 0 days 0 hours 3 minutes 19 seconds 364 msec
