                         Program Version 5.0.3 -  RELEASE  -
|  1> ! HF-3c
|  2> !TightSCF
|  3> %scf
|  4>  ConvForced true
|  5>  convergence tight
|  6>  MaxIter 500
|  7> end
|  8>
|  9> %tddft
| 10>  nroots 1
| 11> end
| 12>
| 13> # 	621
| 14> * xyz 0 1
| 15> 		C   -1.270005  -0.289898   0.072907
| 16> 		O   -1.181565  -1.567896   0.086786
| 17> 		C    0.008189   0.539143  -0.007214
| 18> 		C    1.228570  -0.025882   0.056191
| 19> 		H   -2.158880   0.216442   0.006347
| 20> 		H   -0.091370   1.705636  -0.081174
| 21> 		H    1.256445  -1.134719  -0.028905
| 22> 		H    2.199561   0.595171  -0.069799
| 23> *
| 24>
| 25>                          ****END OF INPUT****

CARTESIAN COORDINATES (ANGSTROEM)
---------------------------------
  C     -1.270005   -0.289898    0.072907
  O     -1.181565   -1.567896    0.086786
  C      0.008189    0.539143   -0.007214
  C      1.228570   -0.025882    0.056191
  H     -2.158880    0.216442    0.006347
  H     -0.091370    1.705636   -0.081174
  H      1.256445   -1.134719   -0.028905
  H      2.199561    0.595171   -0.069799

 Total Charge           Charge          ....    0
 Multiplicity           Mult            ....    1
 Number of Electrons    NEL             ....   30
 Basis Dimension        Dim             ....   24

ORBITAL ENERGIES
----------------

  NO   OCC          E(Eh)            E(eV)
   0   2.0000     -20.350854      -553.7749
   1   2.0000     -11.284673      -307.0716
   2   2.0000     -11.180201      -304.2287
   3   2.0000     -11.178502      -304.1825
   4   2.0000      -1.353893       -36.8413
   5   2.0000      -1.054943       -28.7065
   6   2.0000      -0.889243       -24.1975
   7   2.0000      -0.740870       -20.1601
   8   2.0000      -0.679375       -18.4867
   9   2.0000      -0.592807       -16.1311
  10   2.0000      -0.575724       -15.6662
  11   2.0000      -0.511521       -13.9192
  12   2.0000      -0.506225       -13.7751
  13   2.0000      -0.419947       -11.4273
  14   2.0000      -0.378112       -10.2890
  15   0.0000       0.122827         3.3423
  16   0.0000       0.291571         7.9340
  17   0.0000       0.518939        14.1210
  18   0.0000       0.555718        15.1219
  19   0.0000       0.608097        16.5472

MULLIKEN ATOMIC CHARGES
-----------------------
   0 C :    0.132006
   1 O :   -0.337073
   2 C :   -0.163448
   3 C :   -0.217516
   4 H :    0.144022
   5 H :    0.136018
   6 H :    0.159116
   7 H :    0.146876
Sum of atomic charges:   -0.0000000

LOEWDIN ATOMIC CHARGES
----------------------
   0 C :    0.139330
   1 O :   -0.262842
   2 C :   -0.127422
   3 C :   -0.125772
   4 H :    0.075557
   5 H :    0.091888
   6 H :    0.106996
   7 H :    0.102264

  Mayer bond orders larger than 0.100000
B(  0-C ,  1-O ) :   1.9023 B(  0-C ,  2-C ) :   1.0265 B(  0-C ,  4-H ) :   0.9404
B(  2-C ,  3-C ) :   1.9457 B(  2-C ,  5-H ) :   0.9577 B(  3-C ,  6-H ) :   0.9553
B(  3-C ,  7-H ) :   0.9614

-----------------------------------------------------------------------------
         ABSORPTION SPECTRUM VIA TRANSITION ELECTRIC DIPOLE MOMENTS
-----------------------------------------------------------------------------
State   Energy    Wavelength  fosc         T2        TX        TY        TZ
        (cm-1)      (nm)                 (au**2)    (au)      (au)      (au)
-----------------------------------------------------------------------------
   1   28999.7    344.8   0.000020416   0.00023  -0.01415  -0.00180  -0.00531

Dispersion correction           -0.025259193
FINAL SINGLE POINT ENERGY      -189.339505275646

DIPOLE MOMENT
-------------
                                X             Y             Z
Electronic contribution:     -2.05713      -1.71326       0.25713
Nuclear contribution   :      2.32923       2.68563      -0.34145
                        -----------------------------------------
Total Dipole Moment    :      0.27210       0.97237      -0.08432
                        -----------------------------------------
Magnitude (a.u.)       :      1.01324
Magnitude (Debye)      :      2.57546

Rotational constants in cm-1:     0.702276     0.205775     0.159265
Rotational constants in MHz : 21053.708782  6168.973895  4774.657679

                             ****ORCA TERMINATED NORMALLY****
TOTAL RUN TIME: 0 days 0 hours 0 minutes 12 seconds 644 msec
