                         Program Version 5.0.3 -  RELEASE  -
|  1> ! HF-3c
|  2> !TightSCF
|  3> %scf
|  4>  ConvForced true
|  5>  convergence tight
|  6>  MaxIter 500
|  7> end
|  8>
|  9> %tddft
| 10>  nroots 1
| 11> end
| 12>
| 13> # 	13144
| 14> * xyz 0 1
| 15> 		C   -1.212802  -0.334310  -0.032363
| 16> 		O   -1.274707  -1.422298  -0.415917
| 17> 		C    0.015494   0.574058  -0.196564
| 18> 		C    1.214394  -0.014399   0.122195
| 19> 		H   -2.092313   0.149648   0.547582
| 20> 		H   -0.096819   1.621089  -0.305446
| 21> 		H    1.224990  -1.142306   0.197615
| 22> 		H    2.214325   0.517589   0.035707
| 23> *
| 24>
| 25>                          ****END OF INPUT****

CARTESIAN COORDINATES (ANGSTROEM)
---------------------------------
  C     -1.212802   -0.334310   -0.032363
  O     -1.274707   -1.422298   -0.415917
  C      0.015494    0.574058   -0.196564
  C      1.214394   -0.014399    0.122195
  H     -2.092313    0.149648    0.547582
  H     -0.096819    1.621089   -0.305446
  H      1.224990   -1.142306    0.197615
  H      2.214325    0.517589    0.035707

 Total Charge           Charge          ....    0
 Multiplicity           Mult            ....    1
 Number of Electrons    NEL             ....   30
 Basis Dimension        Dim             ....   24

ORBITAL ENERGIES
----------------

  NO   OCC          E(Eh)            E(eV)
   0   2.0000     -20.385501      -554.7177
   1   2.0000     -11.310169      -307.7653
   2   2.0000     -11.178963      -304.1950
   3   2.0000     -11.177071      -304.1436
   4   2.0000      -1.446373       -39.3578
   5   2.0000      -1.056327       -28.7441
   6   2.0000      -0.861469       -23.4418
   7   2.0000      -0.744653       -20.2630
   8   2.0000      -0.701520       -19.0893
   9   2.0000      -0.614559       -16.7230
  10   2.0000      -0.601992       -16.3810
  11   2.0000      -0.544429       -14.8147
  12   2.0000      -0.534599       -14.5472
  13   2.0000      -0.400767       -10.9054
  14   2.0000      -0.385744       -10.4966
  15   0.0000       0.159231         4.3329
  16   0.0000       0.272502         7.4151
  17   0.0000       0.519061        14.1244
  18   0.0000       0.607646        16.5349
  19   0.0000       0.636156        17.3107

MULLIKEN ATOMIC CHARGES
-----------------------
   0 C :    0.198683
   1 O :   -0.367314
   2 C :   -0.179393
   3 C :   -0.214946
   4 H :    0.129907
   5 H :    0.141276
   6 H :    0.149317
   7 H :    0.142471
Sum of atomic charges:    0.0000000

LOEWDIN ATOMIC CHARGES
----------------------
   0 C :    0.158862
   1 O :   -0.251119
   2 C :   -0.138254
   3 C :   -0.124235
   4 H :    0.069525
   5 H :    0.088483
   6 H :    0.100680
   7 H :    0.096058

  Mayer bond orders larger than 0.100000
B(  0-C ,  1-O ) :   1.9413 B(  0-C ,  2-C ) :   0.9794 B(  0-C ,  4-H ) :   0.9066
B(  2-C ,  3-C ) :   1.9641 B(  2-C ,  5-H ) :   0.9619 B(  3-C ,  6-H ) :   0.9603
B(  3-C ,  7-H ) :   0.9635

-----------------------------------------------------------------------------
         ABSORPTION SPECTRUM VIA TRANSITION ELECTRIC DIPOLE MOMENTS
-----------------------------------------------------------------------------
State   Energy    Wavelength  fosc         T2        TX        TY        TZ
        (cm-1)      (nm)                 (au**2)    (au)      (au)      (au)
-----------------------------------------------------------------------------
   1   37773.2    264.7   0.000142766   0.00124  -0.03466   0.00540  -0.00370

Dispersion correction           -0.025348235
FINAL SINGLE POINT ENERGY      -189.304587092461

DIPOLE MOMENT
-------------
                                X             Y             Z
Electronic contribution:     -2.11278      -1.51617      -0.59140
Nuclear contribution   :      2.42604       2.32377       0.94102
                        -----------------------------------------
Total Dipole Moment    :      0.31326       0.80760       0.34961
                        -----------------------------------------
Magnitude (a.u.)       :      0.93412
Magnitude (Debye)      :      2.37435

Rotational constants in cm-1:     0.769534     0.200148     0.164541
Rotational constants in MHz : 23070.044656  6000.272367  4932.828389

                             ****ORCA TERMINATED NORMALLY****
TOTAL RUN TIME: 0 days 0 hours 0 minutes 15 seconds 813 msec
