                         Program Version 5.0.3 -  RELEASE  -
|  1> ! B3LYP cc-pVDZ
|  2> !TightSCF
|  3> %scf
|  4>  ConvForced true
|  5>  convergence tight
|  6>  MaxIter 500
|  7> end
|  8>
|  9> %tddft
| 10>  nroots 1
| 11> end
| 12>
| 13> # 	27148
| 14> * xyz 0 1
| 15> 		C   -0.573006  -0.430790   0.042446
| 16> 		O   -0.627561  -1.690956  -0.021015
| 17> 		C    0.644969   0.406450   0.027483
| 18> 		C    1.843482  -0.071706   0.004758
| 19> 		H   -1.351205   0.024085  -0.164754
| 20> 		H    0.695903   1.616391  -0.276950
| 21> 		H    1.903298  -1.036708  -0.033833
| 22> 		H    2.906376   0.598655  -0.095424
| 23> *
| 24>
| 25>                          ****END OF INPUT****

CARTESIAN COORDINATES (ANGSTROEM)
---------------------------------
  C     -0.573006   -0.430790    0.042446
  O     -0.627561   -1.690956   -0.021015
  C      0.644969    0.406450    0.027483
  C      1.843482   -0.071706    0.004758
  H     -1.351205    0.024085   -0.164754
  H      0.695903    1.616391   -0.276950
  H      1.903298   -1.036708   -0.033833
  H      2.906376    0.598655   -0.095424

 Total Charge           Charge          ....    0
 Multiplicity           Mult            ....    1
 Number of Electrons    NEL             ....   30
 Basis Dimension        Dim             ....   76

ORBITAL ENERGIES
----------------

  NO   OCC          E(Eh)            E(eV)
   0   2.0000     -19.141835      -520.8758
   1   2.0000     -10.268396      -279.4173
   2   2.0000     -10.213407      -277.9209
   3   2.0000     -10.210174      -277.8330
   4   2.0000      -1.022076       -27.8121
   5   2.0000      -0.808640       -22.0042
   6   2.0000      -0.679676       -18.4949
   7   2.0000      -0.556666       -15.1476
   8   2.0000      -0.513778       -13.9806
   9   2.0000      -0.441276       -12.0077
  10   2.0000      -0.418621       -11.3913
  11   2.0000      -0.389977       -10.6118
  12   2.0000      -0.360021        -9.7967
  13   2.0000      -0.293686        -7.9916
  14   2.0000      -0.260094        -7.0775
  15   0.0000      -0.077897        -2.1197
  16   0.0000       0.028875         0.7857
  17   0.0000       0.054244         1.4761
  18   0.0000       0.095937         2.6106
  19   0.0000       0.124951         3.4001

MULLIKEN ATOMIC CHARGES
-----------------------
   0 C :    0.323256
   1 O :   -0.237311
   2 C :   -0.190997
   3 C :    0.099023
   4 H :   -0.062474
   5 H :    0.028070
   6 H :   -0.019986
   7 H :    0.060420
Sum of atomic charges:    0.0000000

LOEWDIN ATOMIC CHARGES
----------------------
   0 C :    0.031157
   1 O :   -0.040156
   2 C :   -0.091396
   3 C :    0.032165
   4 H :   -0.039549
   5 H :    0.056691
   6 H :   -0.010659
   7 H :    0.061747

  Mayer bond orders larger than 0.100000
B(  0-C ,  1-O ) :   2.1275 B(  0-C ,  2-C ) :   1.0505 B(  0-C ,  4-H ) :   0.9435
B(  2-C ,  3-C ) :   1.9618 B(  2-C ,  5-H ) :   0.9252 B(  3-C ,  6-H ) :   0.9299
B(  3-C ,  7-H ) :   0.9409

-----------------------------------------------------------------------------
         ABSORPTION SPECTRUM VIA TRANSITION ELECTRIC DIPOLE MOMENTS
-----------------------------------------------------------------------------
State   Energy    Wavelength  fosc         T2        TX        TY        TZ
        (cm-1)      (nm)                 (au**2)    (au)      (au)      (au)
-----------------------------------------------------------------------------
   1   26231.2    381.2   0.000166024   0.00208   0.04036   0.00884  -0.01941

FINAL SINGLE POINT ENERGY      -191.602417010931

DIPOLE MOMENT
-------------
                                X             Y             Z
Electronic contribution:     -2.33294      -1.97209       0.44698
Nuclear contribution   :      2.73553       2.91715      -0.53499
                        -----------------------------------------
Total Dipole Moment    :      0.40259       0.94506      -0.08800
                        -----------------------------------------
Magnitude (a.u.)       :      1.03100
Magnitude (Debye)      :      2.62060

Rotational constants in cm-1:     0.825401     0.195360     0.158425
Rotational constants in MHz : 24744.914089  5856.754829  4749.463249

                             ****ORCA TERMINATED NORMALLY****
TOTAL RUN TIME: 0 days 0 hours 3 minutes 9 seconds 501 msec
