                         Program Version 5.0.3 -  RELEASE  -
|  1> ! B3LYP cc-pVDZ
|  2> !TightSCF
|  3> %scf
|  4>  ConvForced true
|  5>  convergence tight
|  6>  MaxIter 500
|  7> end
|  8>
|  9> %tddft
| 10>  nroots 1
| 11> end
| 12>
| 13> # 	23582
| 14> * xyz 0 1
| 15> 		C   -0.585508  -0.405813   0.036681
| 16> 		O   -0.537347  -1.618773  -0.009323
| 17> 		C    0.603933   0.418860  -0.014150
| 18> 		C    1.830532  -0.138362   0.011385
| 19> 		H   -1.594464   0.041925  -0.199777
| 20> 		H    0.444560   1.492325   0.066253
| 21> 		H    1.738723  -1.385416  -0.004601
| 22> 		H    2.841057   0.272344  -0.118900
| 23> *
| 24>
| 25>                          ****END OF INPUT****

CARTESIAN COORDINATES (ANGSTROEM)
---------------------------------
  C     -0.585508   -0.405813    0.036681
  O     -0.537347   -1.618773   -0.009323
  C      0.603933    0.418860   -0.014150
  C      1.830532   -0.138362    0.011385
  H     -1.594464    0.041925   -0.199777
  H      0.444560    1.492325    0.066253
  H      1.738723   -1.385416   -0.004601
  H      2.841057    0.272344   -0.118900

 Total Charge           Charge          ....    0
 Multiplicity           Mult            ....    1
 Number of Electrons    NEL             ....   30
 Basis Dimension        Dim             ....   76

ORBITAL ENERGIES
----------------

  NO   OCC          E(Eh)            E(eV)
   0   2.0000     -19.134716      -520.6821
   1   2.0000     -10.272698      -279.5343
   2   2.0000     -10.226858      -278.2870
   3   2.0000     -10.206154      -277.7236
   4   2.0000      -1.044508       -28.4225
   5   2.0000      -0.792286       -21.5592
   6   2.0000      -0.652941       -17.7674
   7   2.0000      -0.536964       -14.6115
   8   2.0000      -0.506248       -13.7757
   9   2.0000      -0.448083       -12.1929
  10   2.0000      -0.424953       -11.5636
  11   2.0000      -0.398409       -10.8413
  12   2.0000      -0.354798        -9.6545
  13   2.0000      -0.285519        -7.7694
  14   2.0000      -0.255416        -6.9502
  15   0.0000      -0.074844        -2.0366
  16   0.0000       0.053408         1.4533
  17   0.0000       0.074542         2.0284
  18   0.0000       0.079100         2.1524
  19   0.0000       0.120267         3.2726

MULLIKEN ATOMIC CHARGES
-----------------------
   0 C :    0.170342
   1 O :   -0.198427
   2 C :   -0.080655
   3 C :    0.009306
   4 H :   -0.008538
   5 H :   -0.010095
   6 H :    0.071709
   7 H :    0.046358
Sum of atomic charges:    0.0000000

LOEWDIN ATOMIC CHARGES
----------------------
   0 C :   -0.040727
   1 O :   -0.008367
   2 C :   -0.090731
   3 C :    0.018678
   4 H :    0.003910
   5 H :    0.025512
   6 H :    0.060299
   7 H :    0.031427

  Mayer bond orders larger than 0.100000
B(  0-C ,  1-O ) :   2.1489 B(  0-C ,  2-C ) :   1.0702 B(  0-C ,  4-H ) :   0.9251
B(  2-C ,  3-C ) :   1.9268 B(  2-C ,  5-H ) :   0.9514 B(  3-C ,  6-H ) :   0.9093
B(  3-C ,  7-H ) :   0.9496

-----------------------------------------------------------------------------
         ABSORPTION SPECTRUM VIA TRANSITION ELECTRIC DIPOLE MOMENTS
-----------------------------------------------------------------------------
State   Energy    Wavelength  fosc         T2        TX        TY        TZ
        (cm-1)      (nm)                 (au**2)    (au)      (au)      (au)
-----------------------------------------------------------------------------
   1   26665.8    375.0   0.000277879   0.00343  -0.03151   0.00354  -0.04925

FINAL SINGLE POINT ENERGY      -191.667056532479

DIPOLE MOMENT
-------------
                                X             Y             Z
Electronic contribution:     -1.69394      -1.31062       0.23018
Nuclear contribution   :      2.06291       2.18421      -0.24121
                        -----------------------------------------
Total Dipole Moment    :      0.36897       0.87359      -0.01103
                        -----------------------------------------
Magnitude (a.u.)       :      0.94837
Magnitude (Debye)      :      2.41057

Rotational constants in cm-1:     0.733446     0.219491     0.169208
Rotational constants in MHz : 21988.149690  6580.184862  5072.730425

                             ****ORCA TERMINATED NORMALLY****
TOTAL RUN TIME: 0 days 0 hours 2 minutes 33 seconds 349 msec
