                         Program Version 5.0.3 -  RELEASE  -
|  1> ! HF-3c
|  2> !TightSCF
|  3> %scf
|  4>  ConvForced true
|  5>  convergence tight
|  6>  MaxIter 500
|  7> end
|  8>
|  9> %tddft
| 10>  nroots 1
| 11> end
| 12>
| 13> # 	3932
| 14> * xyz 0 1
| 15> 		C   -1.249443  -0.305268  -0.003564
| 16> 		O   -1.821783  -0.790784  -0.839130
| 17> 		C   -0.031126   0.534358  -0.230212
| 18> 		C    1.239411  -0.026689   0.165146
| 19> 		H   -1.236932  -0.461764   1.107578
| 20> 		H   -0.085072   1.463065  -0.982326
| 21> 		H    1.227721  -1.023372   0.641570
| 22> 		H    1.994930   0.622323   0.174158
| 23> *
| 24>
| 25>                          ****END OF INPUT****

CARTESIAN COORDINATES (ANGSTROEM)
---------------------------------
  C     -1.249443   -0.305268   -0.003564
  O     -1.821783   -0.790784   -0.839130
  C     -0.031126    0.534358   -0.230212
  C      1.239411   -0.026689    0.165146
  H     -1.236932   -0.461764    1.107578
  H     -0.085072    1.463065   -0.982326
  H      1.227721   -1.023372    0.641570
  H      1.994930    0.622323    0.174158

 Total Charge           Charge          ....    0
 Multiplicity           Mult            ....    1
 Number of Electrons    NEL             ....   30
 Basis Dimension        Dim             ....   24

ORBITAL ENERGIES
----------------

  NO   OCC          E(Eh)            E(eV)
   0   2.0000     -20.413693      -555.4848
   1   2.0000     -11.327734      -308.2433
   2   2.0000     -11.169633      -303.9412
   3   2.0000     -11.163791      -303.7822
   4   2.0000      -1.483312       -40.3630
   5   2.0000      -1.046896       -28.4875
   6   2.0000      -0.880794       -23.9676
   7   2.0000      -0.765975       -20.8432
   8   2.0000      -0.670189       -18.2368
   9   2.0000      -0.655522       -17.8377
  10   2.0000      -0.610474       -16.6119
  11   2.0000      -0.576776       -15.6949
  12   2.0000      -0.524514       -14.2728
  13   2.0000      -0.400956       -10.9106
  14   2.0000      -0.361504        -9.8370
  15   0.0000       0.150473         4.0946
  16   0.0000       0.251319         6.8387
  17   0.0000       0.544645        14.8206
  18   0.0000       0.596803        16.2398
  19   0.0000       0.632657        17.2155

MULLIKEN ATOMIC CHARGES
-----------------------
   0 C :    0.196560
   1 O :   -0.356892
   2 C :   -0.132715
   3 C :   -0.270270
   4 H :    0.138582
   5 H :    0.150098
   6 H :    0.136915
   7 H :    0.137721
Sum of atomic charges:    0.0000000

LOEWDIN ATOMIC CHARGES
----------------------
   0 C :    0.153273
   1 O :   -0.226257
   2 C :   -0.104341
   3 C :   -0.175832
   4 H :    0.072257
   5 H :    0.106660
   6 H :    0.091265
   7 H :    0.082973

  Mayer bond orders larger than 0.100000
B(  0-C ,  1-O ) :   1.9528 B(  0-C ,  2-C ) :   0.9750 B(  0-C ,  4-H ) :   0.9012
B(  2-C ,  3-C ) :   1.9694 B(  2-C ,  5-H ) :   0.9518 B(  3-C ,  6-H ) :   0.9692
B(  3-C ,  7-H ) :   0.9715

-----------------------------------------------------------------------------
         ABSORPTION SPECTRUM VIA TRANSITION ELECTRIC DIPOLE MOMENTS
-----------------------------------------------------------------------------
State   Energy    Wavelength  fosc         T2        TX        TY        TZ
        (cm-1)      (nm)                 (au**2)    (au)      (au)      (au)
-----------------------------------------------------------------------------
   1   37870.6    264.1   0.000233375   0.00203  -0.02138   0.00794  -0.03884

Dispersion correction           -0.025314530
FINAL SINGLE POINT ENERGY      -189.248866986929

DIPOLE MOMENT
-------------
                                X             Y             Z
Electronic contribution:     -3.13821      -0.80140      -1.14748
Nuclear contribution   :      3.61933       1.19762       1.76422
                        -----------------------------------------
Total Dipole Moment    :      0.48112       0.39622       0.61674
                        -----------------------------------------
Magnitude (a.u.)       :      0.87683
Magnitude (Debye)      :      2.22873

Rotational constants in cm-1:     1.028881     0.165979     0.158535
Rotational constants in MHz : 30845.082434  4975.912191  4752.754101

                             ****ORCA TERMINATED NORMALLY****
TOTAL RUN TIME: 0 days 0 hours 0 minutes 11 seconds 920 msec
