                         Program Version 5.0.3 -  RELEASE  -
|  1> ! B3LYP cc-pVDZ
|  2> !TightSCF
|  3> %scf
|  4>  ConvForced true
|  5>  convergence tight
|  6>  MaxIter 500
|  7> end
|  8>
|  9> %tddft
| 10>  nroots 1
| 11> end
| 12>
| 13> # 	8286
| 14> * xyz 0 1
| 15> 		C   -1.163992  -0.377912  -0.054364
| 16> 		O   -1.369906  -1.543038   0.342211
| 17> 		C    0.102872   0.427281   0.151337
| 18> 		C    1.315841   0.054347  -0.101796
| 19> 		H   -2.117257   0.297247  -0.398912
| 20> 		H   -0.254792   1.476925   0.113471
| 21> 		H    1.489763  -0.960924  -0.168217
| 22> 		H    2.012818   0.603180   0.077949
| 23> *
| 24>
| 25>                          ****END OF INPUT****

CARTESIAN COORDINATES (ANGSTROEM)
---------------------------------
  C     -1.163992   -0.377912   -0.054364
  O     -1.369906   -1.543038    0.342211
  C      0.102872    0.427281    0.151337
  C      1.315841    0.054347   -0.101796
  H     -2.117257    0.297247   -0.398912
  H     -0.254792    1.476925    0.113471
  H      1.489763   -0.960924   -0.168217
  H      2.012818    0.603180    0.077949

 Total Charge           Charge          ....    0
 Multiplicity           Mult            ....    1
 Number of Electrons    NEL             ....   30
 Basis Dimension        Dim             ....   76

ORBITAL ENERGIES
----------------

  NO   OCC          E(Eh)            E(eV)
   0   2.0000     -19.145674      -520.9803
   1   2.0000     -10.289321      -279.9867
   2   2.0000     -10.211258      -277.8624
   3   2.0000     -10.190304      -277.2923
   4   2.0000      -1.028658       -27.9912
   5   2.0000      -0.814840       -22.1729
   6   2.0000      -0.672658       -18.3040
   7   2.0000      -0.541214       -14.7272
   8   2.0000      -0.516483       -14.0542
   9   2.0000      -0.453787       -12.3482
  10   2.0000      -0.437926       -11.9166
  11   2.0000      -0.387588       -10.5468
  12   2.0000      -0.378318       -10.2946
  13   2.0000      -0.300851        -8.1866
  14   2.0000      -0.255646        -6.9565
  15   0.0000      -0.069654        -1.8954
  16   0.0000       0.029771         0.8101
  17   0.0000       0.058890         1.6025
  18   0.0000       0.101920         2.7734
  19   0.0000       0.118548         3.2259

MULLIKEN ATOMIC CHARGES
-----------------------
   0 C :    0.122777
   1 O :   -0.208688
   2 C :   -0.129123
   3 C :    0.248650
   4 H :    0.002888
   5 H :    0.001467
   6 H :    0.012378
   7 H :   -0.050350
Sum of atomic charges:   -0.0000000

LOEWDIN ATOMIC CHARGES
----------------------
   0 C :   -0.015981
   1 O :   -0.032918
   2 C :   -0.053795
   3 C :    0.051420
   4 H :    0.006214
   5 H :    0.036316
   6 H :    0.032080
   7 H :   -0.023336

  Mayer bond orders larger than 0.100000
B(  0-C ,  1-O ) :   2.1539 B(  0-C ,  2-C ) :   1.0298 B(  0-C ,  4-H ) :   0.8904
B(  2-C ,  3-C ) :   2.0087 B(  2-C ,  5-H ) :   0.9297 B(  3-C ,  6-H ) :   0.9319
B(  3-C ,  7-H ) :   0.9172

-----------------------------------------------------------------------------
         ABSORPTION SPECTRUM VIA TRANSITION ELECTRIC DIPOLE MOMENTS
-----------------------------------------------------------------------------
State   Energy    Wavelength  fosc         T2        TX        TY        TZ
        (cm-1)      (nm)                 (au**2)    (au)      (au)      (au)
-----------------------------------------------------------------------------
   1   27674.9    361.3   0.001897274   0.02257  -0.14905  -0.00708   0.01743

FINAL SINGLE POINT ENERGY      -191.623089080353

DIPOLE MOMENT
-------------
                                X             Y             Z
Electronic contribution:     -1.68404      -1.92091       0.44405
Nuclear contribution   :      2.23103       2.78535      -0.68600
                        -----------------------------------------
Total Dipole Moment    :      0.54699       0.86444      -0.24195
                        -----------------------------------------
Magnitude (a.u.)       :      1.05119
Magnitude (Debye)      :      2.67190

Rotational constants in cm-1:     0.873827     0.180218     0.152826
Rotational constants in MHz : 26196.672371  5402.796948  4581.604701

                             ****ORCA TERMINATED NORMALLY****
TOTAL RUN TIME: 0 days 0 hours 3 minutes 1 seconds 697 msec
