                         Program Version 5.0.3 -  RELEASE  -
|  1> ! HF-3c
|  2> !TightSCF
|  3> %scf
|  4>  ConvForced true
|  5>  convergence tight
|  6>  MaxIter 500
|  7> end
|  8>
|  9> %tddft
| 10>  nroots 1
| 11> end
| 12>
| 13> # 	10057
| 14> * xyz 0 1
| 15> 		C   -1.160725  -0.294205   0.056754
| 16> 		O   -2.122325  -0.410372   0.728471
| 17> 		C   -0.020124   0.402360   0.407550
| 18> 		C    1.217451   0.043512  -0.129311
| 19> 		H   -1.160125  -0.854819  -0.991600
| 20> 		H    0.003608   1.166229   1.103230
| 21> 		H    1.164617  -0.742532  -1.185629
| 22> 		H    2.097927   0.747671  -0.011680
| 23> *
| 24>
| 25>                          ****END OF INPUT****

CARTESIAN COORDINATES (ANGSTROEM)
---------------------------------
  C     -1.160725   -0.294205    0.056754
  O     -2.122325   -0.410372    0.728471
  C     -0.020124    0.402360    0.407550
  C      1.217451    0.043512   -0.129311
  H     -1.160125   -0.854819   -0.991600
  H      0.003608    1.166229    1.103230
  H      1.164617   -0.742532   -1.185629
  H      2.097927    0.747671   -0.011680

 Total Charge           Charge          ....    0
 Multiplicity           Mult            ....    1
 Number of Electrons    NEL             ....   30
 Basis Dimension        Dim             ....   24

ORBITAL ENERGIES
----------------

  NO   OCC          E(Eh)            E(eV)
   0   2.0000     -20.359235      -554.0029
   1   2.0000     -11.298690      -307.4530
   2   2.0000     -11.190856      -304.5187
   3   2.0000     -11.183167      -304.3095
   4   2.0000      -1.418804       -38.6076
   5   2.0000      -1.078523       -29.3481
   6   2.0000      -0.867472       -23.6051
   7   2.0000      -0.764688       -20.8082
   8   2.0000      -0.658848       -17.9282
   9   2.0000      -0.638095       -17.3635
  10   2.0000      -0.576581       -15.6896
  11   2.0000      -0.537708       -14.6318
  12   2.0000      -0.508248       -13.8301
  13   2.0000      -0.403509       -10.9800
  14   2.0000      -0.376673       -10.2498
  15   0.0000       0.120253         3.2722
  16   0.0000       0.308179         8.3860
  17   0.0000       0.443734        12.0746
  18   0.0000       0.551930        15.0188
  19   0.0000       0.603620        16.4253

MULLIKEN ATOMIC CHARGES
-----------------------
   0 C :    0.171706
   1 O :   -0.361416
   2 C :   -0.206906
   3 C :   -0.169535
   4 H :    0.122724
   5 H :    0.154577
   6 H :    0.143135
   7 H :    0.145714
Sum of atomic charges:   -0.0000000

LOEWDIN ATOMIC CHARGES
----------------------
   0 C :    0.140716
   1 O :   -0.258875
   2 C :   -0.159944
   3 C :   -0.092567
   4 H :    0.066598
   5 H :    0.096404
   6 H :    0.109387
   7 H :    0.098280

  Mayer bond orders larger than 0.100000
B(  0-C ,  1-O ) :   1.8798 B(  0-C ,  2-C ) :   1.0727 B(  0-C ,  4-H ) :   0.9094
B(  2-C ,  3-C ) :   1.8977 B(  2-C ,  5-H ) :   0.9546 B(  3-C ,  6-H ) :   0.9548
B(  3-C ,  7-H ) :   0.9618

-----------------------------------------------------------------------------
         ABSORPTION SPECTRUM VIA TRANSITION ELECTRIC DIPOLE MOMENTS
-----------------------------------------------------------------------------
State   Energy    Wavelength  fosc         T2        TX        TY        TZ
        (cm-1)      (nm)                 (au**2)    (au)      (au)      (au)
-----------------------------------------------------------------------------
   1   33383.6    299.5   0.000084559   0.00083   0.01954  -0.02024  -0.00652

Dispersion correction           -0.025737879
FINAL SINGLE POINT ENERGY      -189.273089165131

DIPOLE MOMENT
-------------
                                X             Y             Z
Electronic contribution:     -2.89758      -0.44236       1.29624
Nuclear contribution   :      4.05401       0.58825      -1.98783
                        -----------------------------------------
Total Dipole Moment    :      1.15643       0.14590      -0.69159
                        -----------------------------------------
Magnitude (a.u.)       :      1.35533
Magnitude (Debye)      :      3.44498

Rotational constants in cm-1:     1.438398     0.161948     0.148202
Rotational constants in MHz : 43122.088738  4855.075137  4442.969536

                             ****ORCA TERMINATED NORMALLY****
TOTAL RUN TIME: 0 days 0 hours 0 minutes 16 seconds 0 msec
