                         Program Version 5.0.3 -  RELEASE  -
|  1> ! HF-3c
|  2> !TightSCF
|  3> %scf
|  4>  ConvForced true
|  5>  convergence tight
|  6>  MaxIter 500
|  7> end
|  8>
|  9> %tddft
| 10>  nroots 1
| 11> end
| 12>
| 13> # 	6729
| 14> * xyz 0 1
| 15> 		C   -1.195442  -0.343961  -0.026732
| 16> 		O   -1.527787  -1.166395  -0.825485
| 17> 		C    0.056595   0.510033  -0.187641
| 18> 		C    1.218318   0.048461   0.090887
| 19> 		H   -1.791472  -0.205501   1.014478
| 20> 		H   -0.163862   1.390157  -0.647696
| 21> 		H    1.310277  -0.951185   0.678503
| 22> 		H    2.154887   0.685130  -0.030103
| 23> *
| 24>
| 25>                          ****END OF INPUT****

CARTESIAN COORDINATES (ANGSTROEM)
---------------------------------
  C     -1.195442   -0.343961   -0.026732
  O     -1.527787   -1.166395   -0.825485
  C      0.056595    0.510033   -0.187641
  C      1.218318    0.048461    0.090887
  H     -1.791472   -0.205501    1.014478
  H     -0.163862    1.390157   -0.647696
  H      1.310277   -0.951185    0.678503
  H      2.154887    0.685130   -0.030103

 Total Charge           Charge          ....    0
 Multiplicity           Mult            ....    1
 Number of Electrons    NEL             ....   30
 Basis Dimension        Dim             ....   24

ORBITAL ENERGIES
----------------

  NO   OCC          E(Eh)            E(eV)
   0   2.0000     -20.378318      -554.5222
   1   2.0000     -11.298560      -307.4495
   2   2.0000     -11.190300      -304.5035
   3   2.0000     -11.185515      -304.3733
   4   2.0000      -1.416689       -38.5501
   5   2.0000      -1.088605       -29.6224
   6   2.0000      -0.865580       -23.5536
   7   2.0000      -0.753983       -20.5169
   8   2.0000      -0.681989       -18.5579
   9   2.0000      -0.632015       -17.1980
  10   2.0000      -0.606655       -16.5079
  11   2.0000      -0.535548       -14.5730
  12   2.0000      -0.513532       -13.9739
  13   2.0000      -0.419160       -11.4059
  14   2.0000      -0.395870       -10.7722
  15   0.0000       0.203259         5.5310
  16   0.0000       0.230424         6.2701
  17   0.0000       0.488015        13.2796
  18   0.0000       0.580407        15.7937
  19   0.0000       0.598582        16.2882

MULLIKEN ATOMIC CHARGES
-----------------------
   0 C :    0.195318
   1 O :   -0.353202
   2 C :   -0.190948
   3 C :   -0.223986
   4 H :    0.133057
   5 H :    0.148670
   6 H :    0.144679
   7 H :    0.146411
Sum of atomic charges:    0.0000000

LOEWDIN ATOMIC CHARGES
----------------------
   0 C :    0.160422
   1 O :   -0.250028
   2 C :   -0.137826
   3 C :   -0.140757
   4 H :    0.077742
   5 H :    0.091063
   6 H :    0.099975
   7 H :    0.099408

  Mayer bond orders larger than 0.100000
B(  0-C ,  1-O ) :   1.9620 B(  0-C ,  2-C ) :   0.9633 B(  0-C ,  4-H ) :   0.9046
B(  2-C ,  3-C ) :   2.0111 B(  2-C ,  5-H ) :   0.9519 B(  3-C ,  6-H ) :   0.9582
B(  3-C ,  7-H ) :   0.9570

-----------------------------------------------------------------------------
         ABSORPTION SPECTRUM VIA TRANSITION ELECTRIC DIPOLE MOMENTS
-----------------------------------------------------------------------------
State   Energy    Wavelength  fosc         T2        TX        TY        TZ
        (cm-1)      (nm)                 (au**2)    (au)      (au)      (au)
-----------------------------------------------------------------------------
   1   36176.2    276.4   0.000055461   0.00050   0.01564   0.00998  -0.01267

Dispersion correction           -0.025169517
FINAL SINGLE POINT ENERGY      -189.302871462526

DIPOLE MOMENT
-------------
                                X             Y             Z
Electronic contribution:     -2.43948      -1.25047      -1.16983
Nuclear contribution   :      2.87005       1.86321       1.85862
                        -----------------------------------------
Total Dipole Moment    :      0.43057       0.61274       0.68879
                        -----------------------------------------
Magnitude (a.u.)       :      1.01748
Magnitude (Debye)      :      2.58624

Rotational constants in cm-1:     0.932238     0.174213     0.163156
Rotational constants in MHz : 27947.804668  5222.765156  4891.286947

                             ****ORCA TERMINATED NORMALLY****
TOTAL RUN TIME: 0 days 0 hours 0 minutes 12 seconds 856 msec
