                         Program Version 5.0.3 -  RELEASE  -
|  1> ! HF-3c
|  2> !TightSCF
|  3> %scf
|  4>  ConvForced true
|  5>  convergence tight
|  6>  MaxIter 500
|  7> end
|  8>
|  9> %tddft
| 10>  nroots 1
| 11> end
| 12>
| 13> # 	19206
| 14> * xyz 0 1
| 15> 		C   -1.198164  -0.356962   0.020661
| 16> 		O   -1.501717  -1.226818  -0.760180
| 17> 		C   -0.005050   0.499724  -0.211821
| 18> 		C    1.193978  -0.004537   0.100525
| 19> 		H   -1.847991  -0.199109   0.877686
| 20> 		H   -0.083212   1.617572  -0.670001
| 21> 		H    1.240822  -1.059750   0.596073
| 22> 		H    2.160892   0.651826   0.026475
| 23> *
| 24>
| 25>                          ****END OF INPUT****

CARTESIAN COORDINATES (ANGSTROEM)
---------------------------------
  C     -1.198164   -0.356962    0.020661
  O     -1.501717   -1.226818   -0.760180
  C     -0.005050    0.499724   -0.211821
  C      1.193978   -0.004537    0.100525
  H     -1.847991   -0.199109    0.877686
  H     -0.083212    1.617572   -0.670001
  H      1.240822   -1.059750    0.596073
  H      2.160892    0.651826    0.026475

 Total Charge           Charge          ....    0
 Multiplicity           Mult            ....    1
 Number of Electrons    NEL             ....   30
 Basis Dimension        Dim             ....   24

ORBITAL ENERGIES
----------------

  NO   OCC          E(Eh)            E(eV)
   0   2.0000     -20.370797      -554.3176
   1   2.0000     -11.297032      -307.4079
   2   2.0000     -11.179701      -304.2151
   3   2.0000     -11.170475      -303.9641
   4   2.0000      -1.407690       -38.3052
   5   2.0000      -1.061800       -28.8930
   6   2.0000      -0.864981       -23.5373
   7   2.0000      -0.745941       -20.2981
   8   2.0000      -0.674380       -18.3508
   9   2.0000      -0.612259       -16.6604
  10   2.0000      -0.592022       -16.1097
  11   2.0000      -0.520955       -14.1759
  12   2.0000      -0.494386       -13.4529
  13   2.0000      -0.411276       -11.1914
  14   2.0000      -0.391080       -10.6418
  15   0.0000       0.188002         5.1158
  16   0.0000       0.225850         6.1457
  17   0.0000       0.524502        14.2724
  18   0.0000       0.550997        14.9934
  19   0.0000       0.568881        15.4800

MULLIKEN ATOMIC CHARGES
-----------------------
   0 C :    0.156701
   1 O :   -0.341802
   2 C :   -0.163996
   3 C :   -0.223961
   4 H :    0.141568
   5 H :    0.153673
   6 H :    0.137777
   7 H :    0.140040
Sum of atomic charges:    0.0000000

LOEWDIN ATOMIC CHARGES
----------------------
   0 C :    0.142582
   1 O :   -0.246200
   2 C :   -0.129549
   3 C :   -0.145504
   4 H :    0.076001
   5 H :    0.111027
   6 H :    0.094692
   7 H :    0.096951

  Mayer bond orders larger than 0.100000
B(  0-C ,  1-O ) :   1.9395 B(  0-C ,  2-C ) :   0.9934 B(  0-C ,  4-H ) :   0.9231
B(  2-C ,  3-C ) :   1.9940 B(  2-C ,  5-H ) :   0.9422 B(  3-C ,  6-H ) :   0.9613
B(  3-C ,  7-H ) :   0.9605

-----------------------------------------------------------------------------
         ABSORPTION SPECTRUM VIA TRANSITION ELECTRIC DIPOLE MOMENTS
-----------------------------------------------------------------------------
State   Energy    Wavelength  fosc         T2        TX        TY        TZ
        (cm-1)      (nm)                 (au**2)    (au)      (au)      (au)
-----------------------------------------------------------------------------
   1   34122.2    293.1   0.000046915   0.00045   0.00571   0.01392  -0.01505

Dispersion correction           -0.024941289
FINAL SINGLE POINT ENERGY      -189.307558838983

DIPOLE MOMENT
-------------
                                X             Y             Z
Electronic contribution:     -2.46114      -1.33875      -0.99377
Nuclear contribution   :      2.87978       2.06889       1.60187
                        -----------------------------------------
Total Dipole Moment    :      0.41864       0.73014       0.60810
                        -----------------------------------------
Magnitude (a.u.)       :      1.03834
Magnitude (Debye)      :      2.63925

Rotational constants in cm-1:     0.859994     0.180565     0.165296
Rotational constants in MHz : 25781.981400  5413.189693  4955.458334

                             ****ORCA TERMINATED NORMALLY****
TOTAL RUN TIME: 0 days 0 hours 0 minutes 12 seconds 203 msec
