                         Program Version 5.0.3 -  RELEASE  -
|  1> ! HF-3c
|  2> !TightSCF
|  3> %scf
|  4>  ConvForced true
|  5>  convergence tight
|  6>  MaxIter 500
|  7> end
|  8>
|  9> %tddft
| 10>  nroots 1
| 11> end
| 12>
| 13> # 	1259
| 14> * xyz 0 1
| 15> 		C   -1.229259  -0.342176  -0.033468
| 16> 		O   -2.204927  -0.216971  -0.597928
| 17> 		C    0.009494   0.423885  -0.407466
| 18> 		C    1.205514   0.078210   0.285238
| 19> 		H   -1.124460  -1.160726   0.662718
| 20> 		H    0.019654   1.195729  -1.226738
| 21> 		H    1.220973  -0.622273   1.243802
| 22> 		H    2.110283   0.618605   0.147897
| 23> *
| 24>
| 25>                          ****END OF INPUT****

CARTESIAN COORDINATES (ANGSTROEM)
---------------------------------
  C     -1.229259   -0.342176   -0.033468
  O     -2.204927   -0.216971   -0.597928
  C      0.009494    0.423885   -0.407466
  C      1.205514    0.078210    0.285238
  H     -1.124460   -1.160726    0.662718
  H      0.019654    1.195729   -1.226738
  H      1.220973   -0.622273    1.243802
  H      2.110283    0.618605    0.147897

 Total Charge           Charge          ....    0
 Multiplicity           Mult            ....    1
 Number of Electrons    NEL             ....   30
 Basis Dimension        Dim             ....   24

ORBITAL ENERGIES
----------------

  NO   OCC          E(Eh)            E(eV)
   0   2.0000     -20.384025      -554.6775
   1   2.0000     -11.315754      -307.9173
   2   2.0000     -11.181042      -304.2516
   3   2.0000     -11.178106      -304.1717
   4   2.0000      -1.462567       -39.7985
   5   2.0000      -1.045739       -28.4560
   6   2.0000      -0.862039       -23.4573
   7   2.0000      -0.784446       -21.3459
   8   2.0000      -0.669801       -18.2262
   9   2.0000      -0.641439       -17.4544
  10   2.0000      -0.576591       -15.6898
  11   2.0000      -0.571212       -15.5435
  12   2.0000      -0.533770       -14.5246
  13   2.0000      -0.406399       -11.0587
  14   2.0000      -0.371662       -10.1134
  15   0.0000       0.135873         3.6973
  16   0.0000       0.301885         8.2147
  17   0.0000       0.528621        14.3845
  18   0.0000       0.557588        15.1727
  19   0.0000       0.641301        17.4507

MULLIKEN ATOMIC CHARGES
-----------------------
   0 C :    0.178566
   1 O :   -0.365796
   2 C :   -0.158714
   3 C :   -0.215983
   4 H :    0.133958
   5 H :    0.154967
   6 H :    0.138761
   7 H :    0.134242
Sum of atomic charges:    0.0000000

LOEWDIN ATOMIC CHARGES
----------------------
   0 C :    0.141716
   1 O :   -0.243789
   2 C :   -0.125030
   3 C :   -0.124097
   4 H :    0.066360
   5 H :    0.104389
   6 H :    0.097068
   7 H :    0.083384

  Mayer bond orders larger than 0.100000
B(  0-C ,  1-O ) :   1.9109 B(  0-C ,  2-C ) :   1.0099 B(  0-C ,  4-H ) :   0.9175
B(  2-C ,  3-C ) :   1.9363 B(  2-C ,  5-H ) :   0.9575 B(  3-C ,  6-H ) :   0.9645
B(  3-C ,  7-H ) :   0.9702

-----------------------------------------------------------------------------
         ABSORPTION SPECTRUM VIA TRANSITION ELECTRIC DIPOLE MOMENTS
-----------------------------------------------------------------------------
State   Energy    Wavelength  fosc         T2        TX        TY        TZ
        (cm-1)      (nm)                 (au**2)    (au)      (au)      (au)
-----------------------------------------------------------------------------
   1   36650.9    272.8   0.000132683   0.00119   0.00061  -0.01883   0.02893

Dispersion correction           -0.024946486
FINAL SINGLE POINT ENERGY      -189.291593871544

DIPOLE MOMENT
-------------
                                X             Y             Z
Electronic contribution:     -3.27273      -0.17851      -0.99069
Nuclear contribution   :      4.28747       0.12826       1.48012
                        -----------------------------------------
Total Dipole Moment    :      1.01474      -0.05025       0.48943
                        -----------------------------------------
Magnitude (a.u.)       :      1.12773
Magnitude (Debye)      :      2.86645

Rotational constants in cm-1:     1.428389     0.156925     0.141559
Rotational constants in MHz : 42822.013059  4704.479628  4243.830699

                             ****ORCA TERMINATED NORMALLY****
TOTAL RUN TIME: 0 days 0 hours 0 minutes 12 seconds 938 msec
