                         Program Version 5.0.3 -  RELEASE  -
|  1> ! B3LYP cc-pVDZ
|  2> !TightSCF
|  3> %scf
|  4>  ConvForced true
|  5>  convergence tight
|  6>  MaxIter 500
|  7> end
|  8>
|  9> %tddft
| 10>  nroots 1
| 11> end
| 12>
| 13> # 	25751
| 14> * xyz 0 1
| 15> 		C   -0.533396  -0.435439  -0.019293
| 16> 		O   -0.580443  -1.586846   0.013631
| 17> 		C    0.576351   0.410353   0.008648
| 18> 		C    1.813664  -0.169961  -0.016621
| 19> 		H   -1.302602   0.079535   0.040862
| 20> 		H    0.506733   1.444849  -0.033979
| 21> 		H    2.117308  -1.257263  -0.120839
| 22> 		H    2.736758   0.510907   0.235106
| 23> *
| 24>
| 25>                          ****END OF INPUT****

CARTESIAN COORDINATES (ANGSTROEM)
---------------------------------
  C     -0.533396   -0.435439   -0.019293
  O     -0.580443   -1.586846    0.013631
  C      0.576351    0.410353    0.008648
  C      1.813664   -0.169961   -0.016621
  H     -1.302602    0.079535    0.040862
  H      0.506733    1.444849   -0.033979
  H      2.117308   -1.257263   -0.120839
  H      2.736758    0.510907    0.235106

 Total Charge           Charge          ....    0
 Multiplicity           Mult            ....    1
 Number of Electrons    NEL             ....   30
 Basis Dimension        Dim             ....   76

ORBITAL ENERGIES
----------------

  NO   OCC          E(Eh)            E(eV)
   0   2.0000     -19.122833      -520.3587
   1   2.0000     -10.238195      -278.5955
   2   2.0000     -10.228187      -278.3231
   3   2.0000     -10.192346      -277.3478
   4   2.0000      -1.069752       -29.1094
   5   2.0000      -0.800519       -21.7832
   6   2.0000      -0.674883       -18.3645
   7   2.0000      -0.555990       -15.1293
   8   2.0000      -0.522131       -14.2079
   9   2.0000      -0.449412       -12.2291
  10   2.0000      -0.416971       -11.3464
  11   2.0000      -0.413429       -11.2500
  12   2.0000      -0.379726       -10.3329
  13   2.0000      -0.282037        -7.6746
  14   2.0000      -0.246324        -6.7028
  15   0.0000      -0.070512        -1.9187
  16   0.0000       0.066219         1.8019
  17   0.0000       0.080331         2.1859
  18   0.0000       0.088316         2.4032
  19   0.0000       0.133729         3.6389

MULLIKEN ATOMIC CHARGES
-----------------------
   0 C :    0.308804
   1 O :   -0.163316
   2 C :   -0.100063
   3 C :   -0.003852
   4 H :   -0.119527
   5 H :   -0.024443
   6 H :    0.059811
   7 H :    0.042585
Sum of atomic charges:    0.0000000

LOEWDIN ATOMIC CHARGES
----------------------
   0 C :   -0.085589
   1 O :    0.055194
   2 C :   -0.071177
   3 C :    0.040716
   4 H :   -0.045912
   5 H :    0.023124
   6 H :    0.042645
   7 H :    0.040998

  Mayer bond orders larger than 0.100000
B(  0-C ,  1-O ) :   2.2643 B(  0-C ,  2-C ) :   1.1022 B(  0-C ,  4-H ) :   0.9216
B(  1-O ,  3-C ) :   0.1126 B(  2-C ,  3-C ) :   1.9078 B(  2-C ,  5-H ) :   0.9449
B(  3-C ,  6-H ) :   0.9476 B(  3-C ,  7-H ) :   0.9465

-----------------------------------------------------------------------------
         ABSORPTION SPECTRUM VIA TRANSITION ELECTRIC DIPOLE MOMENTS
-----------------------------------------------------------------------------
State   Energy    Wavelength  fosc         T2        TX        TY        TZ
        (cm-1)      (nm)                 (au**2)    (au)      (au)      (au)
-----------------------------------------------------------------------------
   1   26324.3    379.9   0.000012751   0.00016  -0.00349   0.00264   0.01184

FINAL SINGLE POINT ENERGY      -191.628723521418

DIPOLE MOMENT
-------------
                                X             Y             Z
Electronic contribution:     -2.18985      -1.65193      -0.12295
Nuclear contribution   :      2.64933       2.51725       0.11301
                        -----------------------------------------
Total Dipole Moment    :      0.45948       0.86533      -0.00994
                        -----------------------------------------
Magnitude (a.u.)       :      0.97980
Magnitude (Debye)      :      2.49046

Rotational constants in cm-1:     0.791270     0.221985     0.173655
Rotational constants in MHz : 23721.683911  6654.955950  5206.058125

                             ****ORCA TERMINATED NORMALLY****
TOTAL RUN TIME: 0 days 0 hours 3 minutes 19 seconds 922 msec
