                         Program Version 5.0.3 -  RELEASE  -
|  1> ! HF-3c
|  2> !TightSCF
|  3> %scf
|  4>  ConvForced true
|  5>  convergence tight
|  6>  MaxIter 500
|  7> end
|  8>
|  9> %tddft
| 10>  nroots 1
| 11> end
| 12>
| 13> # 	20256
| 14> * xyz 0 1
| 15> 		C   -0.574197  -0.440299   0.091290
| 16> 		O   -0.584178  -1.638853  -0.051273
| 17> 		C    0.649274   0.400381  -0.059812
| 18> 		C    1.818153  -0.108195   0.035804
| 19> 		H   -1.539492   0.307708   0.136528
| 20> 		H    0.648898   1.393306  -0.225621
| 21> 		H    1.942200  -1.102971   0.142602
| 22> 		H    2.626674   0.441885  -0.059557
| 23> *
| 24>
| 25>                          ****END OF INPUT****

CARTESIAN COORDINATES (ANGSTROEM)
---------------------------------
  C     -0.574197   -0.440299    0.091290
  O     -0.584178   -1.638853   -0.051273
  C      0.649274    0.400381   -0.059812
  C      1.818153   -0.108195    0.035804
  H     -1.539492    0.307708    0.136528
  H      0.648898    1.393306   -0.225621
  H      1.942200   -1.102971    0.142602
  H      2.626674    0.441885   -0.059557

 Total Charge           Charge          ....    0
 Multiplicity           Mult            ....    1
 Number of Electrons    NEL             ....   30
 Basis Dimension        Dim             ....   24

ORBITAL ENERGIES
----------------

  NO   OCC          E(Eh)            E(eV)
   0   2.0000     -20.379498      -554.5543
   1   2.0000     -11.304199      -307.6029
   2   2.0000     -11.197951      -304.7117
   3   2.0000     -11.197143      -304.6898
   4   2.0000      -1.410421       -38.3795
   5   2.0000      -1.115027       -30.3414
   6   2.0000      -0.899496       -24.4765
   7   2.0000      -0.768491       -20.9117
   8   2.0000      -0.720717       -19.6117
   9   2.0000      -0.627673       -17.0798
  10   2.0000      -0.611418       -16.6375
  11   2.0000      -0.558680       -15.2025
  12   2.0000      -0.546450       -14.8697
  13   2.0000      -0.419922       -11.4267
  14   2.0000      -0.410347       -11.1661
  15   0.0000       0.134853         3.6695
  16   0.0000       0.305800         8.3212
  17   0.0000       0.510169        13.8824
  18   0.0000       0.607216        16.5232
  19   0.0000       0.704532        19.1713

MULLIKEN ATOMIC CHARGES
-----------------------
   0 C :    0.196033
   1 O :   -0.351610
   2 C :   -0.185867
   3 C :   -0.249282
   4 H :    0.135776
   5 H :    0.148713
   6 H :    0.159098
   7 H :    0.147139
Sum of atomic charges:    0.0000000

LOEWDIN ATOMIC CHARGES
----------------------
   0 C :    0.164033
   1 O :   -0.253663
   2 C :   -0.131801
   3 C :   -0.134785
   4 H :    0.081069
   5 H :    0.089178
   6 H :    0.097978
   7 H :    0.087991

  Mayer bond orders larger than 0.100000
B(  0-C ,  1-O ) :   1.9309 B(  0-C ,  2-C ) :   1.0037 B(  0-C ,  4-H ) :   0.9071
B(  2-C ,  3-C ) :   1.9633 B(  2-C ,  5-H ) :   0.9595 B(  3-C ,  6-H ) :   0.9596
B(  3-C ,  7-H ) :   0.9655

-----------------------------------------------------------------------------
         ABSORPTION SPECTRUM VIA TRANSITION ELECTRIC DIPOLE MOMENTS
-----------------------------------------------------------------------------
State   Energy    Wavelength  fosc         T2        TX        TY        TZ
        (cm-1)      (nm)                 (au**2)    (au)      (au)      (au)
-----------------------------------------------------------------------------
   1   33322.5    300.1   0.000239159   0.00236   0.04692  -0.01183   0.00460

Dispersion correction           -0.026333828
FINAL SINGLE POINT ENERGY      -189.306885320190

DIPOLE MOMENT
-------------
                                X             Y             Z
Electronic contribution:     -2.10496      -1.81662       0.07674
Nuclear contribution   :      2.29305       2.76249      -0.00520
                        -----------------------------------------
Total Dipole Moment    :      0.18808       0.94586       0.07154
                        -----------------------------------------
Magnitude (a.u.)       :      0.96703
Magnitude (Debye)      :      2.45800

Rotational constants in cm-1:     0.801677     0.210752     0.167859
Rotational constants in MHz : 24033.681096  6318.195276  5032.293286

                             ****ORCA TERMINATED NORMALLY****
TOTAL RUN TIME: 0 days 0 hours 0 minutes 12 seconds 290 msec
