                         Program Version 5.0.3 -  RELEASE  -
|  1> ! HF-3c
|  2> !TightSCF
|  3> %scf
|  4>  ConvForced true
|  5>  convergence tight
|  6>  MaxIter 500
|  7> end
|  8>
|  9> %tddft
| 10>  nroots 1
| 11> end
| 12>
| 13> # 	5696
| 14> * xyz 0 1
| 15> 		C   -1.212393  -0.315155   0.132583
| 16> 		O   -1.844892  -0.769735   1.041210
| 17> 		C   -0.003949   0.476233   0.345377
| 18> 		C    1.147281   0.105434  -0.205111
| 19> 		H   -1.371008  -0.604814  -0.996256
| 20> 		H   -0.036199   1.268952   0.998710
| 21> 		H    1.166039  -0.882789  -1.030813
| 22> 		H    2.160867   0.708196  -0.235891
| 23> *
| 24>
| 25>                          ****END OF INPUT****

CARTESIAN COORDINATES (ANGSTROEM)
---------------------------------
  C     -1.212393   -0.315155    0.132583
  O     -1.844892   -0.769735    1.041210
  C     -0.003949    0.476233    0.345377
  C      1.147281    0.105434   -0.205111
  H     -1.371008   -0.604814   -0.996256
  H     -0.036199    1.268952    0.998710
  H      1.166039   -0.882789   -1.030813
  H      2.160867    0.708196   -0.235891

 Total Charge           Charge          ....    0
 Multiplicity           Mult            ....    1
 Number of Electrons    NEL             ....   30
 Basis Dimension        Dim             ....   24

ORBITAL ENERGIES
----------------

  NO   OCC          E(Eh)            E(eV)
   0   2.0000     -20.373287      -554.3853
   1   2.0000     -11.300346      -307.4981
   2   2.0000     -11.183632      -304.3221
   3   2.0000     -11.182196      -304.2830
   4   2.0000      -1.413399       -38.4605
   5   2.0000      -1.077525       -29.3210
   6   2.0000      -0.858284       -23.3551
   7   2.0000      -0.762627       -20.7521
   8   2.0000      -0.659824       -17.9547
   9   2.0000      -0.637183       -17.3386
  10   2.0000      -0.592793       -16.1307
  11   2.0000      -0.522674       -14.2227
  12   2.0000      -0.501753       -13.6534
  13   2.0000      -0.405841       -11.0435
  14   2.0000      -0.394556       -10.7364
  15   0.0000       0.156705         4.2641
  16   0.0000       0.273017         7.4292
  17   0.0000       0.462883        12.5957
  18   0.0000       0.548830        14.9344
  19   0.0000       0.568994        15.4831

MULLIKEN ATOMIC CHARGES
-----------------------
   0 C :    0.185053
   1 O :   -0.350878
   2 C :   -0.208000
   3 C :   -0.187056
   4 H :    0.134054
   5 H :    0.152734
   6 H :    0.129204
   7 H :    0.144888
Sum of atomic charges:    0.0000000

LOEWDIN ATOMIC CHARGES
----------------------
   0 C :    0.157489
   1 O :   -0.250695
   2 C :   -0.158537
   3 C :   -0.114443
   4 H :    0.075988
   5 H :    0.094964
   6 H :    0.094501
   7 H :    0.100734

  Mayer bond orders larger than 0.100000
B(  0-C ,  1-O ) :   1.9318 B(  0-C ,  2-C ) :   1.0052 B(  0-C ,  4-H ) :   0.9098
B(  2-C ,  3-C ) :   1.9709 B(  2-C ,  5-H ) :   0.9518 B(  3-C ,  6-H ) :   0.9580
B(  3-C ,  7-H ) :   0.9592

-----------------------------------------------------------------------------
         ABSORPTION SPECTRUM VIA TRANSITION ELECTRIC DIPOLE MOMENTS
-----------------------------------------------------------------------------
State   Energy    Wavelength  fosc         T2        TX        TY        TZ
        (cm-1)      (nm)                 (au**2)    (au)      (au)      (au)
-----------------------------------------------------------------------------
   1   34676.3    288.4   0.000126096   0.00120  -0.00165  -0.01696  -0.03011

Dispersion correction           -0.025325055
FINAL SINGLE POINT ENERGY      -189.289850047537

DIPOLE MOMENT
-------------
                                X             Y             Z
Electronic contribution:     -2.88796      -0.71331       1.58617
Nuclear contribution   :      3.68294       1.02719      -2.42472
                        -----------------------------------------
Total Dipole Moment    :      0.79497       0.31388      -0.83855
                        -----------------------------------------
Magnitude (a.u.)       :      1.19736
Magnitude (Debye)      :      3.04344

Rotational constants in cm-1:     1.180227     0.162795     0.154712
Rotational constants in MHz : 35382.310566  4880.484986  4638.149866

                             ****ORCA TERMINATED NORMALLY****
TOTAL RUN TIME: 0 days 0 hours 0 minutes 12 seconds 768 msec
