                         Program Version 5.0.3 -  RELEASE  -
|  1> ! HF-3c
|  2> !TightSCF
|  3> %scf
|  4>  ConvForced true
|  5>  convergence tight
|  6>  MaxIter 500
|  7> end
|  8>
|  9> %tddft
| 10>  nroots 1
| 11> end
| 12>
| 13> # 	20722
| 14> * xyz 0 1
| 15> 		C   -0.576642  -0.408577   0.001796
| 16> 		O   -0.559515  -1.669226   0.006581
| 17> 		C    0.634185   0.466946   0.011746
| 18> 		C    1.809330  -0.138402   0.023429
| 19> 		H   -1.384909   0.162437  -0.202966
| 20> 		H    0.509187   1.442078   0.024056
| 21> 		H    1.723774  -1.342221  -0.203145
| 22> 		H    2.759874   0.421178  -0.164760
| 23> *
| 24>
| 25>                          ****END OF INPUT****

CARTESIAN COORDINATES (ANGSTROEM)
---------------------------------
  C     -0.576642   -0.408577    0.001796
  O     -0.559515   -1.669226    0.006581
  C      0.634185    0.466946    0.011746
  C      1.809330   -0.138402    0.023429
  H     -1.384909    0.162437   -0.202966
  H      0.509187    1.442078    0.024056
  H      1.723774   -1.342221   -0.203145
  H      2.759874    0.421178   -0.164760

 Total Charge           Charge          ....    0
 Multiplicity           Mult            ....    1
 Number of Electrons    NEL             ....   30
 Basis Dimension        Dim             ....   24

ORBITAL ENERGIES
----------------

  NO   OCC          E(Eh)            E(eV)
   0   2.0000     -20.355142      -553.8916
   1   2.0000     -11.288323      -307.1709
   2   2.0000     -11.189575      -304.4838
   3   2.0000     -11.182595      -304.2939
   4   2.0000      -1.367534       -37.2125
   5   2.0000      -1.085375       -29.5346
   6   2.0000      -0.901577       -24.5332
   7   2.0000      -0.755505       -20.5583
   8   2.0000      -0.709506       -19.3066
   9   2.0000      -0.600978       -16.3534
  10   2.0000      -0.587032       -15.9739
  11   2.0000      -0.525187       -14.2911
  12   2.0000      -0.513998       -13.9866
  13   2.0000      -0.420889       -11.4530
  14   2.0000      -0.391943       -10.6653
  15   0.0000       0.123153         3.3512
  16   0.0000       0.291466         7.9312
  17   0.0000       0.509483        13.8637
  18   0.0000       0.591892        16.1062
  19   0.0000       0.655627        17.8405

MULLIKEN ATOMIC CHARGES
-----------------------
   0 C :    0.149653
   1 O :   -0.348376
   2 C :   -0.211243
   3 C :   -0.187504
   4 H :    0.138029
   5 H :    0.139414
   6 H :    0.173337
   7 H :    0.146689
Sum of atomic charges:    0.0000000

LOEWDIN ATOMIC CHARGES
----------------------
   0 C :    0.153414
   1 O :   -0.269560
   2 C :   -0.159320
   3 C :   -0.098942
   4 H :    0.067981
   5 H :    0.080281
   6 H :    0.128121
   7 H :    0.098024

  Mayer bond orders larger than 0.100000
B(  0-C ,  1-O ) :   1.9005 B(  0-C ,  2-C ) :   1.0283 B(  0-C ,  4-H ) :   0.9385
B(  2-C ,  3-C ) :   1.9327 B(  2-C ,  5-H ) :   0.9634 B(  3-C ,  6-H ) :   0.9437
B(  3-C ,  7-H ) :   0.9619

-----------------------------------------------------------------------------
         ABSORPTION SPECTRUM VIA TRANSITION ELECTRIC DIPOLE MOMENTS
-----------------------------------------------------------------------------
State   Energy    Wavelength  fosc         T2        TX        TY        TZ
        (cm-1)      (nm)                 (au**2)    (au)      (au)      (au)
-----------------------------------------------------------------------------
   1   30793.8    324.7   0.000083994   0.00090   0.02537   0.00439   0.01533

Dispersion correction           -0.026434207
FINAL SINGLE POINT ENERGY      -189.312540303542

DIPOLE MOMENT
-------------
                                X             Y             Z
Electronic contribution:     -1.83583      -1.58339       0.38139
Nuclear contribution   :      2.22693       2.42947      -0.51279
                        -----------------------------------------
Total Dipole Moment    :      0.39110       0.84608      -0.13140
                        -----------------------------------------
Magnitude (a.u.)       :      0.94131
Magnitude (Debye)      :      2.39262

Rotational constants in cm-1:     0.733187     0.214431     0.166301
Rotational constants in MHz : 21980.400089  6428.466793  4985.583433

                             ****ORCA TERMINATED NORMALLY****
TOTAL RUN TIME: 0 days 0 hours 0 minutes 12 seconds 203 msec
