                         Program Version 5.0.3 -  RELEASE  -
|  1> ! HF-3c
|  2> !TightSCF
|  3> %scf
|  4>  ConvForced true
|  5>  convergence tight
|  6>  MaxIter 500
|  7> end
|  8>
|  9> %tddft
| 10>  nroots 1
| 11> end
| 12>
| 13> # 	3269
| 14> * xyz 0 1
| 15> 		C   -1.177957  -0.271471  -0.026219
| 16> 		O   -1.706825  -0.995266  -0.904687
| 17> 		C   -0.031969   0.525696  -0.248720
| 18> 		C    1.161982   0.019839   0.112780
| 19> 		H   -1.582919  -0.338639   1.001696
| 20> 		H   -0.072784   1.398485  -0.802364
| 21> 		H    1.225352  -0.885306   0.750280
| 22> 		H    2.145590   0.560141   0.058931
| 23> *
| 24>
| 25>                          ****END OF INPUT****

CARTESIAN COORDINATES (ANGSTROEM)
---------------------------------
  C     -1.177957   -0.271471   -0.026219
  O     -1.706825   -0.995266   -0.904687
  C     -0.031969    0.525696   -0.248720
  C      1.161982    0.019839    0.112780
  H     -1.582919   -0.338639    1.001696
  H     -0.072784    1.398485   -0.802364
  H      1.225352   -0.885306    0.750280
  H      2.145590    0.560141    0.058931

 Total Charge           Charge          ....    0
 Multiplicity           Mult            ....    1
 Number of Electrons    NEL             ....   30
 Basis Dimension        Dim             ....   24

ORBITAL ENERGIES
----------------

  NO   OCC          E(Eh)            E(eV)
   0   2.0000     -20.360513      -554.0377
   1   2.0000     -11.291232      -307.2500
   2   2.0000     -11.197321      -304.6946
   3   2.0000     -11.187775      -304.4348
   4   2.0000      -1.374764       -37.4092
   5   2.0000      -1.093094       -29.7446
   6   2.0000      -0.888207       -24.1694
   7   2.0000      -0.778015       -21.1709
   8   2.0000      -0.683884       -18.6094
   9   2.0000      -0.638931       -17.3862
  10   2.0000      -0.597100       -16.2479
  11   2.0000      -0.542043       -14.7497
  12   2.0000      -0.482317       -13.1245
  13   2.0000      -0.420984       -11.4555
  14   2.0000      -0.399421       -10.8688
  15   0.0000       0.162686         4.4269
  16   0.0000       0.211831         5.7642
  17   0.0000       0.584617        15.9082
  18   0.0000       0.637114        17.3368
  19   0.0000       0.646710        17.5979

MULLIKEN ATOMIC CHARGES
-----------------------
   0 C :    0.151279
   1 O :   -0.330793
   2 C :   -0.194305
   3 C :   -0.210585
   4 H :    0.143238
   5 H :    0.159976
   6 H :    0.136313
   7 H :    0.144877
Sum of atomic charges:    0.0000000

LOEWDIN ATOMIC CHARGES
----------------------
   0 C :    0.146777
   1 O :   -0.251241
   2 C :   -0.138933
   3 C :   -0.122830
   4 H :    0.080018
   5 H :    0.101442
   6 H :    0.088297
   7 H :    0.096472

  Mayer bond orders larger than 0.100000
B(  0-C ,  1-O ) :   1.9289 B(  0-C ,  2-C ) :   1.0236 B(  0-C ,  4-H ) :   0.9235
B(  2-C ,  3-C ) :   1.9719 B(  2-C ,  5-H ) :   0.9476 B(  3-C ,  6-H ) :   0.9670
B(  3-C ,  7-H ) :   0.9634

-----------------------------------------------------------------------------
         ABSORPTION SPECTRUM VIA TRANSITION ELECTRIC DIPOLE MOMENTS
-----------------------------------------------------------------------------
State   Energy    Wavelength  fosc         T2        TX        TY        TZ
        (cm-1)      (nm)                 (au**2)    (au)      (au)      (au)
-----------------------------------------------------------------------------
   1   31520.6    317.3   0.000014705   0.00015  -0.00691   0.00825  -0.00614

Dispersion correction           -0.025568660
FINAL SINGLE POINT ENERGY      -189.324544102214

DIPOLE MOMENT
-------------
                                X             Y             Z
Electronic contribution:     -2.69227      -0.94101      -1.25231
Nuclear contribution   :      3.34153       1.47361       1.96804
                        -----------------------------------------
Total Dipole Moment    :      0.64926       0.53260       0.71573
                        -----------------------------------------
Magnitude (a.u.)       :      1.10339
Magnitude (Debye)      :      2.80459

Rotational constants in cm-1:     0.988209     0.171378     0.165265
Rotational constants in MHz : 29625.766920  5137.778769  4954.534275

                             ****ORCA TERMINATED NORMALLY****
TOTAL RUN TIME: 0 days 0 hours 0 minutes 9 seconds 652 msec
