                         Program Version 5.0.3 -  RELEASE  -
|  1> ! HF-3c
|  2> !TightSCF
|  3> %scf
|  4>  ConvForced true
|  5>  convergence tight
|  6>  MaxIter 500
|  7> end
|  8>
|  9> %tddft
| 10>  nroots 1
| 11> end
| 12>
| 13> # 	15700
| 14> * xyz 0 1
| 15> 		C   -1.207283  -0.383801  -0.068421
| 16> 		O   -1.180367  -1.584918   0.063417
| 17> 		C    0.055932   0.478878   0.113340
| 18> 		C    1.270912  -0.079696  -0.008993
| 19> 		H   -2.286737   0.216541  -0.078215
| 20> 		H   -0.175792   1.760423   0.122613
| 21> 		H    1.402922  -1.057727  -0.019507
| 22> 		H    2.088446   0.619970  -0.125558
| 23> *
| 24>
| 25>                          ****END OF INPUT****

CARTESIAN COORDINATES (ANGSTROEM)
---------------------------------
  C     -1.207283   -0.383801   -0.068421
  O     -1.180367   -1.584918    0.063417
  C      0.055932    0.478878    0.113340
  C      1.270912   -0.079696   -0.008993
  H     -2.286737    0.216541   -0.078215
  H     -0.175792    1.760423    0.122613
  H      1.402922   -1.057727   -0.019507
  H      2.088446    0.619970   -0.125558

 Total Charge           Charge          ....    0
 Multiplicity           Mult            ....    1
 Number of Electrons    NEL             ....   30
 Basis Dimension        Dim             ....   24

ORBITAL ENERGIES
----------------

  NO   OCC          E(Eh)            E(eV)
   0   2.0000     -20.363787      -554.1268
   1   2.0000     -11.289463      -307.2019
   2   2.0000     -11.185266      -304.3666
   3   2.0000     -11.182340      -304.2870
   4   2.0000      -1.399744       -38.0890
   5   2.0000      -1.062369       -28.9085
   6   2.0000      -0.867141       -23.5961
   7   2.0000      -0.724414       -19.7123
   8   2.0000      -0.682766       -18.5790
   9   2.0000      -0.607393       -16.5280
  10   2.0000      -0.583836       -15.8870
  11   2.0000      -0.533600       -14.5200
  12   2.0000      -0.511980       -13.9317
  13   2.0000      -0.399192       -10.8626
  14   2.0000      -0.384747       -10.4695
  15   0.0000       0.137504         3.7417
  16   0.0000       0.298066         8.1108
  17   0.0000       0.436491        11.8775
  18   0.0000       0.498617        13.5681
  19   0.0000       0.622082        16.9277

MULLIKEN ATOMIC CHARGES
-----------------------
   0 C :    0.176211
   1 O :   -0.359992
   2 C :   -0.128656
   3 C :   -0.264657
   4 H :    0.132316
   5 H :    0.140774
   6 H :    0.155587
   7 H :    0.148417
Sum of atomic charges:   -0.0000000

LOEWDIN ATOMIC CHARGES
----------------------
   0 C :    0.143497
   1 O :   -0.261749
   2 C :   -0.101970
   3 C :   -0.157712
   4 H :    0.080286
   5 H :    0.104693
   6 H :    0.094377
   7 H :    0.098578

  Mayer bond orders larger than 0.100000
B(  0-C ,  1-O ) :   1.9234 B(  0-C ,  2-C ) :   0.9941 B(  0-C ,  4-H ) :   0.9090
B(  2-C ,  3-C ) :   1.9630 B(  2-C ,  5-H ) :   0.9525 B(  3-C ,  6-H ) :   0.9623
B(  3-C ,  7-H ) :   0.9630

-----------------------------------------------------------------------------
         ABSORPTION SPECTRUM VIA TRANSITION ELECTRIC DIPOLE MOMENTS
-----------------------------------------------------------------------------
State   Energy    Wavelength  fosc         T2        TX        TY        TZ
        (cm-1)      (nm)                 (au**2)    (au)      (au)      (au)
-----------------------------------------------------------------------------
   1   32479.2    307.9   0.000646635   0.00655  -0.08055  -0.00763   0.00266

Dispersion correction           -0.025013388
FINAL SINGLE POINT ENERGY      -189.292903501747

DIPOLE MOMENT
-------------
                                X             Y             Z
Electronic contribution:     -1.91988      -1.91851       0.07218
Nuclear contribution   :      2.05063       3.00793      -0.18387
                        -----------------------------------------
Total Dipole Moment    :      0.13075       1.08941      -0.11169
                        -----------------------------------------
Magnitude (a.u.)       :      1.10290
Magnitude (Debye)      :      2.80336

Rotational constants in cm-1:     0.723937     0.203317     0.159581
Rotational constants in MHz : 21703.092775  6095.294954  4784.105596

                             ****ORCA TERMINATED NORMALLY****
TOTAL RUN TIME: 0 days 0 hours 0 minutes 11 seconds 496 msec
