                         Program Version 5.0.3 -  RELEASE  -
|  1> ! B3LYP cc-pVDZ
|  2> !TightSCF
|  3> %scf
|  4>  ConvForced true
|  5>  convergence tight
|  6>  MaxIter 500
|  7> end
|  8>
|  9> %tddft
| 10>  nroots 1
| 11> end
| 12>
| 13> # 	26149
| 14> * xyz 0 1
| 15> 		C   -0.573515  -0.446560  -0.030315
| 16> 		O   -0.604739  -1.642559   0.014080
| 17> 		C    0.644883   0.410118   0.015948
| 18> 		C    1.844893  -0.120143  -0.016748
| 19> 		H   -1.448613   0.088321   0.033501
| 20> 		H    0.595664   1.606647   0.043650
| 21> 		H    2.019563  -1.075938  -0.000406
| 22> 		H    2.598969   0.570400   0.076383
| 23> *
| 24>
| 25>                          ****END OF INPUT****

CARTESIAN COORDINATES (ANGSTROEM)
---------------------------------
  C     -0.573515   -0.446560   -0.030315
  O     -0.604739   -1.642559    0.014080
  C      0.644883    0.410118    0.015948
  C      1.844893   -0.120143   -0.016748
  H     -1.448613    0.088321    0.033501
  H      0.595664    1.606647    0.043650
  H      2.019563   -1.075938   -0.000406
  H      2.598969    0.570400    0.076383

 Total Charge           Charge          ....    0
 Multiplicity           Mult            ....    1
 Number of Electrons    NEL             ....   30
 Basis Dimension        Dim             ....   76

ORBITAL ENERGIES
----------------

  NO   OCC          E(Eh)            E(eV)
   0   2.0000     -19.138118      -520.7747
   1   2.0000     -10.266671      -279.3703
   2   2.0000     -10.206908      -277.7441
   3   2.0000     -10.190150      -277.2881
   4   2.0000      -1.053452       -28.6659
   5   2.0000      -0.802465       -21.8362
   6   2.0000      -0.665999       -18.1228
   7   2.0000      -0.553598       -15.0642
   8   2.0000      -0.519328       -14.1316
   9   2.0000      -0.449915       -12.2428
  10   2.0000      -0.423021       -11.5110
  11   2.0000      -0.402284       -10.9467
  12   2.0000      -0.386204       -10.5092
  13   2.0000      -0.292045        -7.9469
  14   2.0000      -0.255418        -6.9503
  15   0.0000      -0.065520        -1.7829
  16   0.0000       0.058280         1.5859
  17   0.0000       0.065941         1.7944
  18   0.0000       0.108760         2.9595
  19   0.0000       0.127790         3.4774

MULLIKEN ATOMIC CHARGES
-----------------------
   0 C :    0.245771
   1 O :   -0.184371
   2 C :   -0.229075
   3 C :    0.223580
   4 H :   -0.045091
   5 H :    0.016593
   6 H :   -0.028538
   7 H :    0.001132
Sum of atomic charges:   -0.0000000

LOEWDIN ATOMIC CHARGES
----------------------
   0 C :   -0.033326
   1 O :    0.012003
   2 C :   -0.078807
   3 C :    0.054129
   4 H :   -0.021000
   5 H :    0.047089
   6 H :   -0.003420
   7 H :    0.023333

  Mayer bond orders larger than 0.100000
B(  0-C ,  1-O ) :   2.2140 B(  0-C ,  2-C ) :   1.0377 B(  0-C ,  4-H ) :   0.9294
B(  2-C ,  3-C ) :   1.9929 B(  2-C ,  5-H ) :   0.9300 B(  3-C ,  6-H ) :   0.9398
B(  3-C ,  7-H ) :   0.9319

-----------------------------------------------------------------------------
         ABSORPTION SPECTRUM VIA TRANSITION ELECTRIC DIPOLE MOMENTS
-----------------------------------------------------------------------------
State   Energy    Wavelength  fosc         T2        TX        TY        TZ
        (cm-1)      (nm)                 (au**2)    (au)      (au)      (au)
-----------------------------------------------------------------------------
   1   28582.6    349.9   0.000077264   0.00089   0.01819   0.00480  -0.02315

FINAL SINGLE POINT ENERGY      -191.647657611820

DIPOLE MOMENT
-------------
                                X             Y             Z
Electronic contribution:     -1.97803      -2.02435      -0.13961
Nuclear contribution   :      2.37225       2.90339       0.14347
                        -----------------------------------------
Total Dipole Moment    :      0.39422       0.87904       0.00386
                        -----------------------------------------
Magnitude (a.u.)       :      0.96340
Magnitude (Debye)      :      2.44876

Rotational constants in cm-1:     0.807898     0.205785     0.164103
Rotational constants in MHz : 24220.182798  6169.274581  4919.697613

                             ****ORCA TERMINATED NORMALLY****
TOTAL RUN TIME: 0 days 0 hours 3 minutes 22 seconds 120 msec
