                         Program Version 5.0.3 -  RELEASE  -
|  1> ! HF-3c
|  2> !TightSCF
|  3> %scf
|  4>  ConvForced true
|  5>  convergence tight
|  6>  MaxIter 500
|  7> end
|  8>
|  9> %tddft
| 10>  nroots 1
| 11> end
| 12>
| 13> # 	20209
| 14> * xyz 0 1
| 15> 		C   -0.568973  -0.432047   0.003266
| 16> 		O   -0.594150  -1.651887  -0.014230
| 17> 		C    0.611265   0.411233   0.044627
| 18> 		C    1.874767  -0.124528   0.007708
| 19> 		H   -1.501462   0.274040  -0.012506
| 20> 		H    0.470147   1.436489  -0.273103
| 21> 		H    1.885288  -0.988324   0.035763
| 22> 		H    2.667627   0.484912  -0.210320
| 23> *
| 24>
| 25>                          ****END OF INPUT****

CARTESIAN COORDINATES (ANGSTROEM)
---------------------------------
  C     -0.568973   -0.432047    0.003266
  O     -0.594150   -1.651887   -0.014230
  C      0.611265    0.411233    0.044627
  C      1.874767   -0.124528    0.007708
  H     -1.501462    0.274040   -0.012506
  H      0.470147    1.436489   -0.273103
  H      1.885288   -0.988324    0.035763
  H      2.667627    0.484912   -0.210320

 Total Charge           Charge          ....    0
 Multiplicity           Mult            ....    1
 Number of Electrons    NEL             ....   30
 Basis Dimension        Dim             ....   24

ORBITAL ENERGIES
----------------

  NO   OCC          E(Eh)            E(eV)
   0   2.0000     -20.371856      -554.3464
   1   2.0000     -11.298562      -307.4495
   2   2.0000     -11.208028      -304.9859
   3   2.0000     -11.197961      -304.7120
   4   2.0000      -1.398049       -38.0428
   5   2.0000      -1.099430       -29.9170
   6   2.0000      -0.925904       -25.1951
   7   2.0000      -0.762417       -20.7464
   8   2.0000      -0.717767       -19.5314
   9   2.0000      -0.632208       -17.2033
  10   2.0000      -0.609878       -16.5956
  11   2.0000      -0.561643       -15.2831
  12   2.0000      -0.537936       -14.6380
  13   2.0000      -0.414918       -11.2905
  14   2.0000      -0.394831       -10.7439
  15   0.0000       0.105589         2.8732
  16   0.0000       0.292087         7.9481
  17   0.0000       0.553660        15.0659
  18   0.0000       0.638439        17.3728
  19   0.0000       0.681180        18.5358

MULLIKEN ATOMIC CHARGES
-----------------------
   0 C :    0.170281
   1 O :   -0.347500
   2 C :   -0.147379
   3 C :   -0.265658
   4 H :    0.132519
   5 H :    0.143806
   6 H :    0.153684
   7 H :    0.160247
Sum of atomic charges:   -0.0000000

LOEWDIN ATOMIC CHARGES
----------------------
   0 C :    0.148309
   1 O :   -0.255500
   2 C :   -0.104346
   3 C :   -0.140227
   4 H :    0.074568
   5 H :    0.090998
   6 H :    0.082908
   7 H :    0.103291

  Mayer bond orders larger than 0.100000
B(  0-C ,  1-O ) :   1.9031 B(  0-C ,  2-C ) :   1.0426 B(  0-C ,  4-H ) :   0.9155
B(  2-C ,  3-C ) :   1.9245 B(  2-C ,  5-H ) :   0.9624 B(  3-C ,  6-H ) :   0.9684
B(  3-C ,  7-H ) :   0.9655

-----------------------------------------------------------------------------
         ABSORPTION SPECTRUM VIA TRANSITION ELECTRIC DIPOLE MOMENTS
-----------------------------------------------------------------------------
State   Energy    Wavelength  fosc         T2        TX        TY        TZ
        (cm-1)      (nm)                 (au**2)    (au)      (au)      (au)
-----------------------------------------------------------------------------
   1   31037.4    322.2   0.000165092   0.00175  -0.04135  -0.00377   0.00518

Dispersion correction           -0.026264712
FINAL SINGLE POINT ENERGY      -189.272353998315

DIPOLE MOMENT
-------------
                                X             Y             Z
Electronic contribution:     -1.92697      -1.85964       0.31830
Nuclear contribution   :      2.14801       2.91960      -0.43034
                        -----------------------------------------
Total Dipole Moment    :      0.22104       1.05996      -0.11204
                        -----------------------------------------
Magnitude (a.u.)       :      1.08855
Magnitude (Debye)      :      2.76686

Rotational constants in cm-1:     0.771362     0.207429     0.163944
Rotational constants in MHz : 23124.854061  6218.570912  4914.929420

                             ****ORCA TERMINATED NORMALLY****
TOTAL RUN TIME: 0 days 0 hours 0 minutes 13 seconds 500 msec
