                         Program Version 5.0.3 -  RELEASE  -
|  1> ! HF-3c
|  2> !TightSCF
|  3> %scf
|  4>  ConvForced true
|  5>  convergence tight
|  6>  MaxIter 500
|  7> end
|  8>
|  9> %tddft
| 10>  nroots 1
| 11> end
| 12>
| 13> # 	7039
| 14> * xyz 0 1
| 15> 		C   -1.206137  -0.382282   0.062145
| 16> 		O   -2.176504  -0.385759   0.901631
| 17> 		C    0.047120   0.394685   0.267378
| 18> 		C    1.073164   0.271309  -0.399913
| 19> 		H   -1.182178  -0.988075  -0.812968
| 20> 		H    0.242648   0.878832   1.236177
| 21> 		H    1.069612  -0.462048  -1.062756
| 22> 		H    2.158477   0.649636  -0.101184
| 23> *
| 24>
| 25>                          ****END OF INPUT****

CARTESIAN COORDINATES (ANGSTROEM)
---------------------------------
  C     -1.206137   -0.382282    0.062145
  O     -2.176504   -0.385759    0.901631
  C      0.047120    0.394685    0.267378
  C      1.073164    0.271309   -0.399913
  H     -1.182178   -0.988075   -0.812968
  H      0.242648    0.878832    1.236177
  H      1.069612   -0.462048   -1.062756
  H      2.158477    0.649636   -0.101184

 Total Charge           Charge          ....    0
 Multiplicity           Mult            ....    1
 Number of Electrons    NEL             ....   30
 Basis Dimension        Dim             ....   24

ORBITAL ENERGIES
----------------

  NO   OCC          E(Eh)            E(eV)
   0   2.0000     -20.364103      -554.1354
   1   2.0000     -11.292769      -307.2919
   2   2.0000     -11.201992      -304.8217
   3   2.0000     -11.197945      -304.7116
   4   2.0000      -1.357897       -36.9503
   5   2.0000      -1.129770       -30.7426
   6   2.0000      -0.891806       -24.2673
   7   2.0000      -0.791733       -21.5442
   8   2.0000      -0.678602       -18.4657
   9   2.0000      -0.649414       -17.6715
  10   2.0000      -0.572983       -15.5916
  11   2.0000      -0.537135       -14.6162
  12   2.0000      -0.514992       -14.0136
  13   2.0000      -0.426959       -11.6181
  14   2.0000      -0.414826       -11.2880
  15   0.0000       0.123524         3.3613
  16   0.0000       0.305147         8.3035
  17   0.0000       0.489783        13.3277
  18   0.0000       0.603296        16.4165
  19   0.0000       0.681712        18.5503

MULLIKEN ATOMIC CHARGES
-----------------------
   0 C :    0.150195
   1 O :   -0.323986
   2 C :   -0.178949
   3 C :   -0.247021
   4 H :    0.142590
   5 H :    0.162079
   6 H :    0.135611
   7 H :    0.159481
Sum of atomic charges:    0.0000000

LOEWDIN ATOMIC CHARGES
----------------------
   0 C :    0.150265
   1 O :   -0.249611
   2 C :   -0.126588
   3 C :   -0.151036
   4 H :    0.077120
   5 H :    0.106964
   6 H :    0.079085
   7 H :    0.113801

  Mayer bond orders larger than 0.100000
B(  0-C ,  1-O ) :   1.9151 B(  0-C ,  2-C ) :   1.0214 B(  0-C ,  4-H ) :   0.9335
B(  2-C ,  3-C ) :   1.9715 B(  2-C ,  5-H ) :   0.9450 B(  3-C ,  6-H ) :   0.9617
B(  3-C ,  7-H ) :   0.9523

-----------------------------------------------------------------------------
         ABSORPTION SPECTRUM VIA TRANSITION ELECTRIC DIPOLE MOMENTS
-----------------------------------------------------------------------------
State   Energy    Wavelength  fosc         T2        TX        TY        TZ
        (cm-1)      (nm)                 (au**2)    (au)      (au)      (au)
-----------------------------------------------------------------------------
   1   29211.2    342.3   0.000035374   0.00040  -0.01879  -0.00202   0.00645

Dispersion correction           -0.025975839
FINAL SINGLE POINT ENERGY      -189.310024505866

DIPOLE MOMENT
-------------
                                X             Y             Z
Electronic contribution:     -3.34131      -0.28382       1.02569
Nuclear contribution   :      4.36918       0.24824      -1.54398
                        -----------------------------------------
Total Dipole Moment    :      1.02788      -0.03558      -0.51829
                        -----------------------------------------
Magnitude (a.u.)       :      1.15170
Magnitude (Debye)      :      2.92740

Rotational constants in cm-1:     1.673074     0.153217     0.141107
Rotational constants in MHz : 50157.498255  4593.330938  4230.291511

                             ****ORCA TERMINATED NORMALLY****
TOTAL RUN TIME: 0 days 0 hours 0 minutes 11 seconds 860 msec
