                         Program Version 5.0.3 -  RELEASE  -
|  1> ! B3LYP cc-pVDZ
|  2> !TightSCF
|  3> %scf
|  4>  ConvForced true
|  5>  convergence tight
|  6>  MaxIter 500
|  7> end
|  8>
|  9> %tddft
| 10>  nroots 1
| 11> end
| 12>
| 13> # 	29087
| 14> * xyz 0 1
| 15> 		C   -0.624926  -0.486693   0.057929
| 16> 		O   -0.614508  -1.656644  -0.028224
| 17> 		C    0.700184   0.419664  -0.049770
| 18> 		C    1.832904  -0.066366   0.010181
| 19> 		H   -1.576071   0.223505   0.118546
| 20> 		H    0.637694   1.502049  -0.103232
| 21> 		H    2.242616  -1.033969   0.082270
| 22> 		H    2.702770   0.472498   0.130818
| 23> *
| 24>
| 25>                          ****END OF INPUT****

CARTESIAN COORDINATES (ANGSTROEM)
---------------------------------
  C     -0.624926   -0.486693    0.057929
  O     -0.614508   -1.656644   -0.028224
  C      0.700184    0.419664   -0.049770
  C      1.832904   -0.066366    0.010181
  H     -1.576071    0.223505    0.118546
  H      0.637694    1.502049   -0.103232
  H      2.242616   -1.033969    0.082270
  H      2.702770    0.472498    0.130818

 Total Charge           Charge          ....    0
 Multiplicity           Mult            ....    1
 Number of Electrons    NEL             ....   30
 Basis Dimension        Dim             ....   76

ORBITAL ENERGIES
----------------

  NO   OCC          E(Eh)            E(eV)
   0   2.0000     -19.153918      -521.2046
   1   2.0000     -10.291195      -280.0377
   2   2.0000     -10.192972      -277.3649
   3   2.0000     -10.181182      -277.0441
   4   2.0000      -1.076427       -29.2911
   5   2.0000      -0.804234       -21.8843
   6   2.0000      -0.638550       -17.3758
   7   2.0000      -0.557317       -15.1654
   8   2.0000      -0.499958       -13.6046
   9   2.0000      -0.459669       -12.5082
  10   2.0000      -0.438615       -11.9353
  11   2.0000      -0.412801       -11.2329
  12   2.0000      -0.364748        -9.9253
  13   2.0000      -0.302088        -8.2202
  14   2.0000      -0.256004        -6.9662
  15   0.0000      -0.049802        -1.3552
  16   0.0000       0.061893         1.6842
  17   0.0000       0.067921         1.8482
  18   0.0000       0.092855         2.5267
  19   0.0000       0.114190         3.1073

MULLIKEN ATOMIC CHARGES
-----------------------
   0 C :    0.157207
   1 O :   -0.134667
   2 C :   -0.122854
   3 C :    0.133612
   4 H :   -0.006434
   5 H :   -0.015545
   6 H :   -0.003022
   7 H :   -0.008297
Sum of atomic charges:   -0.0000000

LOEWDIN ATOMIC CHARGES
----------------------
   0 C :   -0.032559
   1 O :    0.046588
   2 C :   -0.085211
   3 C :   -0.002460
   4 H :   -0.006990
   5 H :    0.030863
   6 H :    0.026180
   7 H :    0.023590

  Mayer bond orders larger than 0.100000
B(  0-C ,  1-O ) :   2.2779 B(  0-C ,  2-C ) :   0.9435 B(  0-C ,  4-H ) :   0.8845
B(  2-C ,  3-C ) :   2.0480 B(  2-C ,  5-H ) :   0.9179 B(  3-C ,  6-H ) :   0.9507
B(  3-C ,  7-H ) :   0.9314

-----------------------------------------------------------------------------
         ABSORPTION SPECTRUM VIA TRANSITION ELECTRIC DIPOLE MOMENTS
-----------------------------------------------------------------------------
State   Energy    Wavelength  fosc         T2        TX        TY        TZ
        (cm-1)      (nm)                 (au**2)    (au)      (au)      (au)
-----------------------------------------------------------------------------
   1   32067.6    311.8   0.000183411   0.00188   0.04139  -0.00043   0.01304

FINAL SINGLE POINT ENERGY      -191.622437266077

DIPOLE MOMENT
-------------
                                X             Y             Z
Electronic contribution:     -2.25653      -2.11589      -0.13274
Nuclear contribution   :      2.59930       2.87754       0.21393
                        -----------------------------------------
Total Dipole Moment    :      0.34277       0.76165       0.08120
                        -----------------------------------------
Magnitude (a.u.)       :      0.83916
Magnitude (Debye)      :      2.13297

Rotational constants in cm-1:     0.815550     0.195353     0.157995
Rotational constants in MHz : 24449.576021  5856.548417  4736.565723

                             ****ORCA TERMINATED NORMALLY****
TOTAL RUN TIME: 0 days 0 hours 3 minutes 2 seconds 513 msec
