                         Program Version 5.0.3 -  RELEASE  -
|  1> ! HF-3c
|  2> !TightSCF
|  3> %scf
|  4>  ConvForced true
|  5>  convergence tight
|  6>  MaxIter 500
|  7> end
|  8>
|  9> %tddft
| 10>  nroots 1
| 11> end
| 12>
| 13> # 	18580
| 14> * xyz 0 1
| 15> 		C   -1.166812  -0.308451   0.014279
| 16> 		O   -1.200258  -1.507329  -0.074833
| 17> 		C   -0.004503   0.517712  -0.132216
| 18> 		C    1.243992   0.002806   0.002947
| 19> 		H   -2.270541   0.203412   0.403730
| 20> 		H   -0.185229   1.550413  -0.148364
| 21> 		H    1.352676  -1.073235   0.185355
| 22> 		H    2.236906   0.518956  -0.218992
| 23> *
| 24>
| 25>                          ****END OF INPUT****

CARTESIAN COORDINATES (ANGSTROEM)
---------------------------------
  C     -1.166812   -0.308451    0.014279
  O     -1.200258   -1.507329   -0.074833
  C     -0.004503    0.517712   -0.132216
  C      1.243992    0.002806    0.002947
  H     -2.270541    0.203412    0.403730
  H     -0.185229    1.550413   -0.148364
  H      1.352676   -1.073235    0.185355
  H      2.236906    0.518956   -0.218992

 Total Charge           Charge          ....    0
 Multiplicity           Mult            ....    1
 Number of Electrons    NEL             ....   30
 Basis Dimension        Dim             ....   24

ORBITAL ENERGIES
----------------

  NO   OCC          E(Eh)            E(eV)
   0   2.0000     -20.351342      -553.7882
   1   2.0000     -11.287732      -307.1548
   2   2.0000     -11.198713      -304.7325
   3   2.0000     -11.191181      -304.5275
   4   2.0000      -1.398566       -38.0569
   5   2.0000      -1.078208       -29.3395
   6   2.0000      -0.882967       -24.0268
   7   2.0000      -0.730856       -19.8876
   8   2.0000      -0.692166       -18.8348
   9   2.0000      -0.615945       -16.7607
  10   2.0000      -0.585454       -15.9310
  11   2.0000      -0.532996       -14.5035
  12   2.0000      -0.527960       -14.3665
  13   2.0000      -0.398398       -10.8410
  14   2.0000      -0.383696       -10.4409
  15   0.0000       0.127224         3.4619
  16   0.0000       0.309387         8.4189
  17   0.0000       0.462355        12.5813
  18   0.0000       0.609703        16.5909
  19   0.0000       0.637865        17.3572

MULLIKEN ATOMIC CHARGES
-----------------------
   0 C :    0.178927
   1 O :   -0.366801
   2 C :   -0.199648
   3 C :   -0.190689
   4 H :    0.126131
   5 H :    0.145391
   6 H :    0.154529
   7 H :    0.152160
Sum of atomic charges:   -0.0000000

LOEWDIN ATOMIC CHARGES
----------------------
   0 C :    0.143456
   1 O :   -0.270554
   2 C :   -0.151974
   3 C :   -0.093134
   4 H :    0.076943
   5 H :    0.090422
   6 H :    0.100875
   7 H :    0.103966

  Mayer bond orders larger than 0.100000
B(  0-C ,  1-O ) :   1.8932 B(  0-C ,  2-C ) :   1.0485 B(  0-C ,  4-H ) :   0.9069
B(  2-C ,  3-C ) :   1.9221 B(  2-C ,  5-H ) :   0.9589 B(  3-C ,  6-H ) :   0.9605
B(  3-C ,  7-H ) :   0.9627

-----------------------------------------------------------------------------
         ABSORPTION SPECTRUM VIA TRANSITION ELECTRIC DIPOLE MOMENTS
-----------------------------------------------------------------------------
State   Energy    Wavelength  fosc         T2        TX        TY        TZ
        (cm-1)      (nm)                 (au**2)    (au)      (au)      (au)
-----------------------------------------------------------------------------
   1   31966.4    312.8   0.000128590   0.00132   0.02469   0.00114   0.02671

Dispersion correction           -0.025529212
FINAL SINGLE POINT ENERGY      -189.318323075478

DIPOLE MOMENT
-------------
                                X             Y             Z
Electronic contribution:     -1.75516      -1.56220      -0.23636
Nuclear contribution   :      2.20094       2.47125       0.36516
                        -----------------------------------------
Total Dipole Moment    :      0.44578       0.90904       0.12880
                        -----------------------------------------
Magnitude (a.u.)       :      1.02062
Magnitude (Debye)      :      2.59422

Rotational constants in cm-1:     0.764156     0.208289     0.165172
Rotational constants in MHz : 22908.833514  6244.358586  4951.740662

                             ****ORCA TERMINATED NORMALLY****
TOTAL RUN TIME: 0 days 0 hours 0 minutes 11 seconds 297 msec
