                         Program Version 5.0.3 -  RELEASE  -
|  1> ! B3LYP cc-pVDZ
|  2> !TightSCF
|  3> %scf
|  4>  ConvForced true
|  5>  convergence tight
|  6>  MaxIter 500
|  7> end
|  8>
|  9> %tddft
| 10>  nroots 1
| 11> end
| 12>
| 13> # 	10067
| 14> * xyz 0 1
| 15> 		C   -1.237111  -0.327557   0.021632
| 16> 		O   -1.508678  -1.360837  -0.584844
| 17> 		C    0.016016   0.498204  -0.153137
| 18> 		C    1.232618   0.041775   0.159662
| 19> 		H   -1.784073  -0.085806   1.042823
| 20> 		H   -0.084109   1.477536  -0.874285
| 21> 		H    1.225277  -0.932700   0.630534
| 22> 		H    2.084572   0.663775  -0.168810
| 23> *
| 24>
| 25>                          ****END OF INPUT****

CARTESIAN COORDINATES (ANGSTROEM)
---------------------------------
  C     -1.237111   -0.327557    0.021632
  O     -1.508678   -1.360837   -0.584844
  C      0.016016    0.498204   -0.153137
  C      1.232618    0.041775    0.159662
  H     -1.784073   -0.085806    1.042823
  H     -0.084109    1.477536   -0.874285
  H      1.225277   -0.932700    0.630534
  H      2.084572    0.663775   -0.168810

 Total Charge           Charge          ....    0
 Multiplicity           Mult            ....    1
 Number of Electrons    NEL             ....   30
 Basis Dimension        Dim             ....   76

ORBITAL ENERGIES
----------------

  NO   OCC          E(Eh)            E(eV)
   0   2.0000     -19.154210      -521.2126
   1   2.0000     -10.293598      -280.1030
   2   2.0000     -10.218549      -278.0608
   3   2.0000     -10.208230      -277.7800
   4   2.0000      -1.046703       -28.4822
   5   2.0000      -0.793473       -21.5915
   6   2.0000      -0.647397       -17.6166
   7   2.0000      -0.537318       -14.6212
   8   2.0000      -0.490271       -13.3410
   9   2.0000      -0.452946       -12.3253
  10   2.0000      -0.437400       -11.9022
  11   2.0000      -0.393625       -10.7111
  12   2.0000      -0.367214        -9.9924
  13   2.0000      -0.287232        -7.8160
  14   2.0000      -0.259079        -7.0499
  15   0.0000      -0.048601        -1.3225
  16   0.0000      -0.013351        -0.3633
  17   0.0000       0.063684         1.7329
  18   0.0000       0.087237         2.3738
  19   0.0000       0.092913         2.5283

MULLIKEN ATOMIC CHARGES
-----------------------
   0 C :    0.153322
   1 O :   -0.181196
   2 C :   -0.154579
   3 C :    0.066077
   4 H :    0.007240
   5 H :    0.047292
   6 H :    0.022437
   7 H :    0.039406
Sum of atomic charges:   -0.0000000

LOEWDIN ATOMIC CHARGES
----------------------
   0 C :   -0.017991
   1 O :   -0.001236
   2 C :   -0.080228
   3 C :   -0.027457
   4 H :    0.002108
   5 H :    0.053931
   6 H :    0.029874
   7 H :    0.041000

  Mayer bond orders larger than 0.100000
B(  0-C ,  1-O ) :   2.2163 B(  0-C ,  2-C ) :   0.9637 B(  0-C ,  4-H ) :   0.8987
B(  2-C ,  3-C ) :   2.0415 B(  2-C ,  5-H ) :   0.9196 B(  3-C ,  6-H ) :   0.9375
B(  3-C ,  7-H ) :   0.9380

-----------------------------------------------------------------------------
         ABSORPTION SPECTRUM VIA TRANSITION ELECTRIC DIPOLE MOMENTS
-----------------------------------------------------------------------------
State   Energy    Wavelength  fosc         T2        TX        TY        TZ
        (cm-1)      (nm)                 (au**2)    (au)      (au)      (au)
-----------------------------------------------------------------------------
   1   31017.0    322.4   0.000416446   0.00442  -0.04005   0.01031   0.05205

FINAL SINGLE POINT ENERGY      -191.637427425213

DIPOLE MOMENT
-------------
                                X             Y             Z
Electronic contribution:     -2.39837      -1.55155      -0.84637
Nuclear contribution   :      2.84530       2.24883       1.14601
                        -----------------------------------------
Total Dipole Moment    :      0.44692       0.69728       0.29964
                        -----------------------------------------
Magnitude (a.u.)       :      0.88076
Magnitude (Debye)      :      2.23871

Rotational constants in cm-1:     0.855187     0.173696     0.157755
Rotational constants in MHz : 25637.851144  5207.266769  4729.390386

                             ****ORCA TERMINATED NORMALLY****
TOTAL RUN TIME: 0 days 0 hours 3 minutes 22 seconds 232 msec
