                         Program Version 5.0.3 -  RELEASE  -
|  1> ! B3LYP cc-pVDZ
|  2> !TightSCF
|  3> %scf
|  4>  ConvForced true
|  5>  convergence tight
|  6>  MaxIter 500
|  7> end
|  8>
|  9> %tddft
| 10>  nroots 1
| 11> end
| 12>
| 13> # 	13872
| 14> * xyz 0 1
| 15> 		C   -1.222655  -0.398816  -0.043152
| 16> 		O   -1.719762  -1.017745  -0.952156
| 17> 		C    0.011295   0.468246  -0.197071
| 18> 		C    1.217455   0.033582   0.206986
| 19> 		H   -1.604753  -0.320013   1.010077
| 20> 		H   -0.031210   1.428183  -0.758714
| 21> 		H    1.308393  -0.946112   0.692096
| 22> 		H    2.021013   0.714783  -0.040921
| 23> *
| 24>
| 25>                          ****END OF INPUT****

CARTESIAN COORDINATES (ANGSTROEM)
---------------------------------
  C     -1.222655   -0.398816   -0.043152
  O     -1.719762   -1.017745   -0.952156
  C      0.011295    0.468246   -0.197071
  C      1.217455    0.033582    0.206986
  H     -1.604753   -0.320013    1.010077
  H     -0.031210    1.428183   -0.758714
  H      1.308393   -0.946112    0.692096
  H      2.021013    0.714783   -0.040921

 Total Charge           Charge          ....    0
 Multiplicity           Mult            ....    1
 Number of Electrons    NEL             ....   30
 Basis Dimension        Dim             ....   76

ORBITAL ENERGIES
----------------

  NO   OCC          E(Eh)            E(eV)
   0   2.0000     -19.151468      -521.1379
   1   2.0000     -10.286900      -279.9208
   2   2.0000     -10.205599      -277.7085
   3   2.0000     -10.203473      -277.6506
   4   2.0000      -1.056683       -28.7538
   5   2.0000      -0.791766       -21.5450
   6   2.0000      -0.646325       -17.5874
   7   2.0000      -0.555232       -15.1086
   8   2.0000      -0.490958       -13.3596
   9   2.0000      -0.458636       -12.4801
  10   2.0000      -0.435724       -11.8566
  11   2.0000      -0.398186       -10.8352
  12   2.0000      -0.377246       -10.2654
  13   2.0000      -0.283315        -7.7094
  14   2.0000      -0.258940        -7.0461
  15   0.0000      -0.043051        -1.1715
  16   0.0000      -0.001755        -0.0477
  17   0.0000       0.081317         2.2128
  18   0.0000       0.089702         2.4409
  19   0.0000       0.101322         2.7571

MULLIKEN ATOMIC CHARGES
-----------------------
   0 C :    0.179339
   1 O :   -0.171550
   2 C :   -0.121035
   3 C :    0.039674
   4 H :    0.001123
   5 H :    0.024232
   6 H :    0.021391
   7 H :    0.026826
Sum of atomic charges:    0.0000000

LOEWDIN ATOMIC CHARGES
----------------------
   0 C :   -0.021664
   1 O :    0.018891
   2 C :   -0.062469
   3 C :   -0.031875
   4 H :   -0.003072
   5 H :    0.039993
   6 H :    0.028317
   7 H :    0.031879

  Mayer bond orders larger than 0.100000
B(  0-C ,  1-O ) :   2.2370 B(  0-C ,  2-C ) :   0.9698 B(  0-C ,  4-H ) :   0.9060
B(  2-C ,  3-C ) :   2.0416 B(  2-C ,  5-H ) :   0.9357 B(  3-C ,  6-H ) :   0.9462
B(  3-C ,  7-H ) :   0.9386

-----------------------------------------------------------------------------
         ABSORPTION SPECTRUM VIA TRANSITION ELECTRIC DIPOLE MOMENTS
-----------------------------------------------------------------------------
State   Energy    Wavelength  fosc         T2        TX        TY        TZ
        (cm-1)      (nm)                 (au**2)    (au)      (au)      (au)
-----------------------------------------------------------------------------
   1   32589.6    306.8   0.000564703   0.00570   0.07423   0.01338  -0.00385

FINAL SINGLE POINT ENERGY      -191.645253257503

DIPOLE MOMENT
-------------
                                X             Y             Z
Electronic contribution:     -2.79099      -1.24948      -1.28167
Nuclear contribution   :      3.29265       1.75925       1.82204
                        -----------------------------------------
Total Dipole Moment    :      0.50167       0.50977       0.54038
                        -----------------------------------------
Magnitude (a.u.)       :      0.89641
Magnitude (Debye)      :      2.27849

Rotational constants in cm-1:     1.027663     0.160443     0.156577
Rotational constants in MHz : 30808.570324  4809.975122  4694.067338

                             ****ORCA TERMINATED NORMALLY****
TOTAL RUN TIME: 0 days 0 hours 3 minutes 16 seconds 504 msec
