                         Program Version 5.0.3 -  RELEASE  -
|  1> ! HF-3c
|  2> !TightSCF
|  3> %scf
|  4>  ConvForced true
|  5>  convergence tight
|  6>  MaxIter 500
|  7> end
|  8>
|  9> %tddft
| 10>  nroots 1
| 11> end
| 12>
| 13> # 	30492
| 14> * xyz 0 1
| 15> 		C   -0.584143  -0.423802   0.037528
| 16> 		O   -0.528954  -1.621777  -0.017857
| 17> 		C    0.607739   0.480756  -0.008203
| 18> 		C    1.838552  -0.212939  -0.012210
| 19> 		H   -1.633056  -0.038933  -0.074843
| 20> 		H    0.546090   1.661183  -0.010859
| 21> 		H    1.681077  -1.435562   0.195452
| 22> 		H    2.619972   0.637060  -0.034738
| 23> *
| 24>
| 25>                          ****END OF INPUT****

CARTESIAN COORDINATES (ANGSTROEM)
---------------------------------
  C     -0.584143   -0.423802    0.037528
  O     -0.528954   -1.621777   -0.017857
  C      0.607739    0.480756   -0.008203
  C      1.838552   -0.212939   -0.012210
  H     -1.633056   -0.038933   -0.074843
  H      0.546090    1.661183   -0.010859
  H      1.681077   -1.435562    0.195452
  H      2.619972    0.637060   -0.034738

 Total Charge           Charge          ....    0
 Multiplicity           Mult            ....    1
 Number of Electrons    NEL             ....   30
 Basis Dimension        Dim             ....   24

ORBITAL ENERGIES
----------------

  NO   OCC          E(Eh)            E(eV)
   0   2.0000     -20.342707      -553.5532
   1   2.0000     -11.282108      -307.0018
   2   2.0000     -11.169283      -303.9316
   3   2.0000     -11.158853      -303.6478
   4   2.0000      -1.399492       -38.0821
   5   2.0000      -1.037906       -28.2429
   6   2.0000      -0.852535       -23.1987
   7   2.0000      -0.714882       -19.4529
   8   2.0000      -0.680567       -18.5192
   9   2.0000      -0.586802       -15.9677
  10   2.0000      -0.539560       -14.6822
  11   2.0000      -0.534620       -14.5477
  12   2.0000      -0.506876       -13.7928
  13   2.0000      -0.395742       -10.7687
  14   2.0000      -0.360398        -9.8069
  15   0.0000       0.138335         3.7643
  16   0.0000       0.304716         8.2917
  17   0.0000       0.430466        11.7136
  18   0.0000       0.531048        14.4506
  19   0.0000       0.579000        15.7554

MULLIKEN ATOMIC CHARGES
-----------------------
   0 C :    0.156072
   1 O :   -0.381939
   2 C :   -0.183287
   3 C :   -0.208682
   4 H :    0.129966
   5 H :    0.137072
   6 H :    0.196497
   7 H :    0.154300
Sum of atomic charges:   -0.0000000

LOEWDIN ATOMIC CHARGES
----------------------
   0 C :    0.138542
   1 O :   -0.285673
   2 C :   -0.153635
   3 C :   -0.123722
   4 H :    0.068760
   5 H :    0.094474
   6 H :    0.151715
   7 H :    0.109538

  Mayer bond orders larger than 0.100000
B(  0-C ,  1-O ) :   1.8855 B(  0-C ,  2-C ) :   1.0299 B(  0-C ,  4-H ) :   0.9276
B(  2-C ,  3-C ) :   1.9154 B(  2-C ,  5-H ) :   0.9612 B(  3-C ,  6-H ) :   0.9331
B(  3-C ,  7-H ) :   0.9588

-----------------------------------------------------------------------------
         ABSORPTION SPECTRUM VIA TRANSITION ELECTRIC DIPOLE MOMENTS
-----------------------------------------------------------------------------
State   Energy    Wavelength  fosc         T2        TX        TY        TZ
        (cm-1)      (nm)                 (au**2)    (au)      (au)      (au)
-----------------------------------------------------------------------------
   1   33459.9    298.9   0.000210768   0.00207   0.01475   0.00750   0.04243

Dispersion correction           -0.025749406
FINAL SINGLE POINT ENERGY      -189.279183300999

DIPOLE MOMENT
-------------
                                X             Y             Z
Electronic contribution:     -1.47318      -1.66039       0.00387
Nuclear contribution   :      1.85552       2.56256       0.07041
                        -----------------------------------------
Total Dipole Moment    :      0.38235       0.90217       0.07428
                        -----------------------------------------
Magnitude (a.u.)       :      0.98266
Magnitude (Debye)      :      2.49772

Rotational constants in cm-1:     0.693527     0.219521     0.166973
Rotational constants in MHz : 20791.428386  6581.059742  5005.728505

                             ****ORCA TERMINATED NORMALLY****
TOTAL RUN TIME: 0 days 0 hours 0 minutes 15 seconds 424 msec
