                         Program Version 5.0.3 -  RELEASE  -
|  1> ! B3LYP cc-pVDZ
|  2> !TightSCF
|  3> %scf
|  4>  ConvForced true
|  5>  convergence tight
|  6>  MaxIter 500
|  7> end
|  8>
|  9> %tddft
| 10>  nroots 1
| 11> end
| 12>
| 13> # 	13375
| 14> * xyz 0 1
| 15> 		C   -1.148665  -0.324593   0.070661
| 16> 		O   -2.011316  -0.499118   0.893156
| 17> 		C    0.033107   0.502544   0.208574
| 18> 		C    1.254439   0.005479  -0.212816
| 19> 		H   -1.351776  -0.692743  -0.927023
| 20> 		H   -0.247626   1.281538   0.856857
| 21> 		H    1.393702  -0.866941  -0.779548
| 22> 		H    2.035241   0.647181  -0.112573
| 23> *
| 24>
| 25>                          ****END OF INPUT****

CARTESIAN COORDINATES (ANGSTROEM)
---------------------------------
  C     -1.148665   -0.324593    0.070661
  O     -2.011316   -0.499118    0.893156
  C      0.033107    0.502544    0.208574
  C      1.254439    0.005479   -0.212816
  H     -1.351776   -0.692743   -0.927023
  H     -0.247626    1.281538    0.856857
  H      1.393702   -0.866941   -0.779548
  H      2.035241    0.647181   -0.112573

 Total Charge           Charge          ....    0
 Multiplicity           Mult            ....    1
 Number of Electrons    NEL             ....   30
 Basis Dimension        Dim             ....   76

ORBITAL ENERGIES
----------------

  NO   OCC          E(Eh)            E(eV)
   0   2.0000     -19.134353      -520.6722
   1   2.0000     -10.264466      -279.3103
   2   2.0000     -10.215667      -277.9824
   3   2.0000     -10.210254      -277.8351
   4   2.0000      -1.047248       -28.4971
   5   2.0000      -0.801971       -21.8227
   6   2.0000      -0.666329       -18.1317
   7   2.0000      -0.573550       -15.6071
   8   2.0000      -0.484701       -13.1894
   9   2.0000      -0.476149       -12.9567
  10   2.0000      -0.434577       -11.8254
  11   2.0000      -0.403679       -10.9847
  12   2.0000      -0.379824       -10.3355
  13   2.0000      -0.287932        -7.8350
  14   2.0000      -0.249113        -6.7787
  15   0.0000      -0.065990        -1.7957
  16   0.0000       0.023730         0.6457
  17   0.0000       0.086038         2.3412
  18   0.0000       0.096655         2.6301
  19   0.0000       0.120917         3.2903

MULLIKEN ATOMIC CHARGES
-----------------------
   0 C :    0.160555
   1 O :   -0.194304
   2 C :   -0.067112
   3 C :    0.098371
   4 H :   -0.033537
   5 H :   -0.002027
   6 H :    0.022466
   7 H :    0.015587
Sum of atomic charges:    0.0000000

LOEWDIN ATOMIC CHARGES
----------------------
   0 C :   -0.045159
   1 O :    0.002717
   2 C :   -0.035509
   3 C :    0.027300
   4 H :   -0.014172
   5 H :    0.027207
   6 H :    0.023420
   7 H :    0.014197

  Mayer bond orders larger than 0.100000
B(  0-C ,  1-O ) :   2.1898 B(  0-C ,  2-C ) :   1.0668 B(  0-C ,  4-H ) :   0.9253
B(  2-C ,  3-C ) :   1.9451 B(  2-C ,  5-H ) :   0.9420 B(  3-C ,  6-H ) :   0.9538
B(  3-C ,  7-H ) :   0.9487

-----------------------------------------------------------------------------
         ABSORPTION SPECTRUM VIA TRANSITION ELECTRIC DIPOLE MOMENTS
-----------------------------------------------------------------------------
State   Energy    Wavelength  fosc         T2        TX        TY        TZ
        (cm-1)      (nm)                 (au**2)    (au)      (au)      (au)
-----------------------------------------------------------------------------
   1   27968.2    357.5   0.000647264   0.00762  -0.08641  -0.00842   0.00902

FINAL SINGLE POINT ENERGY      -191.655717076141

DIPOLE MOMENT
-------------
                                X             Y             Z
Electronic contribution:     -2.69231      -0.45552       1.26926
Nuclear contribution   :      3.61309       0.70240      -1.83827
                        -----------------------------------------
Total Dipole Moment    :      0.92078       0.24688      -0.56901
                        -----------------------------------------
Magnitude (a.u.)       :      1.11021
Magnitude (Debye)      :      2.82192

Rotational constants in cm-1:     1.375232     0.157203     0.148488
Rotational constants in MHz : 41228.421811  4712.832810  4451.556549

                             ****ORCA TERMINATED NORMALLY****
TOTAL RUN TIME: 0 days 0 hours 3 minutes 22 seconds 239 msec
