                         Program Version 5.0.3 -  RELEASE  -
|  1> ! B3LYP cc-pVDZ
|  2> !TightSCF
|  3> %scf
|  4>  ConvForced true
|  5>  convergence tight
|  6>  MaxIter 500
|  7> end
|  8>
|  9> %tddft
| 10>  nroots 1
| 11> end
| 12>
| 13> # 	2565
| 14> * xyz 0 1
| 15> 		C   -1.194373  -0.377552  -0.007244
| 16> 		O   -1.329778  -1.474595   0.441712
| 17> 		C    0.051617   0.521171   0.129628
| 18> 		C    1.311697   0.031314  -0.098700
| 19> 		H   -2.268497   0.207552  -0.400836
| 20> 		H   -0.076406   1.540588   0.141539
| 21> 		H    1.336223  -1.165125  -0.211463
| 22> 		H    2.096829   0.754161  -0.049403
| 23> *
| 24>
| 25>                          ****END OF INPUT****

CARTESIAN COORDINATES (ANGSTROEM)
---------------------------------
  C     -1.194373   -0.377552   -0.007244
  O     -1.329778   -1.474595    0.441712
  C      0.051617    0.521171    0.129628
  C      1.311697    0.031314   -0.098700
  H     -2.268497    0.207552   -0.400836
  H     -0.076406    1.540588    0.141539
  H      1.336223   -1.165125   -0.211463
  H      2.096829    0.754161   -0.049403

 Total Charge           Charge          ....    0
 Multiplicity           Mult            ....    1
 Number of Electrons    NEL             ....   30
 Basis Dimension        Dim             ....   76

ORBITAL ENERGIES
----------------

  NO   OCC          E(Eh)            E(eV)
   0   2.0000     -19.149454      -521.0831
   1   2.0000     -10.293758      -280.1074
   2   2.0000     -10.224966      -278.2355
   3   2.0000     -10.209831      -277.8236
   4   2.0000      -1.062914       -28.9234
   5   2.0000      -0.789280       -21.4774
   6   2.0000      -0.638203       -17.3664
   7   2.0000      -0.535688       -14.5768
   8   2.0000      -0.502631       -13.6773
   9   2.0000      -0.441473       -12.0131
  10   2.0000      -0.429893       -11.6980
  11   2.0000      -0.399651       -10.8751
  12   2.0000      -0.387654       -10.5486
  13   2.0000      -0.287980        -7.8363
  14   2.0000      -0.255186        -6.9440
  15   0.0000      -0.062758        -1.7077
  16   0.0000       0.027333         0.7438
  17   0.0000       0.061386         1.6704
  18   0.0000       0.068975         1.8769
  19   0.0000       0.105692         2.8760

MULLIKEN ATOMIC CHARGES
-----------------------
   0 C :    0.115275
   1 O :   -0.158707
   2 C :   -0.041839
   3 C :    0.017991
   4 H :   -0.013945
   5 H :   -0.020358
   6 H :    0.067866
   7 H :    0.033716
Sum of atomic charges:    0.0000000

LOEWDIN ATOMIC CHARGES
----------------------
   0 C :   -0.045827
   1 O :    0.018721
   2 C :   -0.064046
   3 C :    0.000209
   4 H :   -0.007380
   5 H :    0.011054
   6 H :    0.059428
   7 H :    0.027842

  Mayer bond orders larger than 0.100000
B(  0-C ,  1-O ) :   2.2098 B(  0-C ,  2-C ) :   0.9898 B(  0-C ,  4-H ) :   0.8707
B(  2-C ,  3-C ) :   1.9726 B(  2-C ,  5-H ) :   0.9446 B(  3-C ,  6-H ) :   0.9315
B(  3-C ,  7-H ) :   0.9395

-----------------------------------------------------------------------------
         ABSORPTION SPECTRUM VIA TRANSITION ELECTRIC DIPOLE MOMENTS
-----------------------------------------------------------------------------
State   Energy    Wavelength  fosc         T2        TX        TY        TZ
        (cm-1)      (nm)                 (au**2)    (au)      (au)      (au)
-----------------------------------------------------------------------------
   1   29947.2    333.9   0.003041092   0.03343  -0.18106   0.02288   0.01110

FINAL SINGLE POINT ENERGY      -191.639551001519

DIPOLE MOMENT
-------------
                                X             Y             Z
Electronic contribution:     -1.71469      -1.79813       0.67583
Nuclear contribution   :      2.22083       2.58631      -0.94025
                        -----------------------------------------
Total Dipole Moment    :      0.50614       0.78818      -0.26442
                        -----------------------------------------
Magnitude (a.u.)       :      0.97330
Magnitude (Debye)      :      2.47394

Rotational constants in cm-1:     0.810893     0.183114     0.153246
Rotational constants in MHz : 24309.951219  5489.625955  4594.186397

                             ****ORCA TERMINATED NORMALLY****
TOTAL RUN TIME: 0 days 0 hours 3 minutes 27 seconds 280 msec
