                         Program Version 5.0.3 -  RELEASE  -
|  1> ! HF-3c
|  2> !TightSCF
|  3> %scf
|  4>  ConvForced true
|  5>  convergence tight
|  6>  MaxIter 500
|  7> end
|  8>
|  9> %tddft
| 10>  nroots 1
| 11> end
| 12>
| 13> # 	29135
| 14> * xyz 0 1
| 15> 		C   -0.609058  -0.427220  -0.005629
| 16> 		O   -0.537912  -1.606701   0.005248
| 17> 		C    0.640567   0.379032  -0.031381
| 18> 		C    1.824417  -0.151430   0.003618
| 19> 		H   -1.520252   0.250871   0.169809
| 20> 		H    0.529931   1.599466   0.024102
| 21> 		H    1.733279  -1.279171  -0.098907
| 22> 		H    2.650453   0.571288   0.232091
| 23> *
| 24>
| 25>                          ****END OF INPUT****

CARTESIAN COORDINATES (ANGSTROEM)
---------------------------------
  C     -0.609058   -0.427220   -0.005629
  O     -0.537912   -1.606701    0.005248
  C      0.640567    0.379032   -0.031381
  C      1.824417   -0.151430    0.003618
  H     -1.520252    0.250871    0.169809
  H      0.529931    1.599466    0.024102
  H      1.733279   -1.279171   -0.098907
  H      2.650453    0.571288    0.232091

 Total Charge           Charge          ....    0
 Multiplicity           Mult            ....    1
 Number of Electrons    NEL             ....   30
 Basis Dimension        Dim             ....   24

ORBITAL ENERGIES
----------------

  NO   OCC          E(Eh)            E(eV)
   0   2.0000     -20.375252      -554.4388
   1   2.0000     -11.303010      -307.5705
   2   2.0000     -11.173294      -304.0408
   3   2.0000     -11.166792      -303.8639
   4   2.0000      -1.427668       -38.8488
   5   2.0000      -1.075040       -29.2533
   6   2.0000      -0.878329       -23.9005
   7   2.0000      -0.718148       -19.5418
   8   2.0000      -0.688569       -18.7369
   9   2.0000      -0.614540       -16.7225
  10   2.0000      -0.585738       -15.9387
  11   2.0000      -0.556657       -15.1474
  12   2.0000      -0.496756       -13.5174
  13   2.0000      -0.407321       -11.0838
  14   2.0000      -0.393524       -10.7083
  15   0.0000       0.147866         4.0236
  16   0.0000       0.325617         8.8605
  17   0.0000       0.510205        13.8834
  18   0.0000       0.546090        14.8599
  19   0.0000       0.583593        15.8804

MULLIKEN ATOMIC CHARGES
-----------------------
   0 C :    0.179449
   1 O :   -0.365239
   2 C :   -0.162866
   3 C :   -0.242623
   4 H :    0.138697
   5 H :    0.125182
   6 H :    0.172401
   7 H :    0.154998
Sum of atomic charges:   -0.0000000

LOEWDIN ATOMIC CHARGES
----------------------
   0 C :    0.151828
   1 O :   -0.259761
   2 C :   -0.135441
   3 C :   -0.147795
   4 H :    0.077664
   5 H :    0.085526
   6 H :    0.120972
   7 H :    0.107006

  Mayer bond orders larger than 0.100000
B(  0-C ,  1-O ) :   1.9171 B(  0-C ,  2-C ) :   1.0069 B(  0-C ,  4-H ) :   0.9133
B(  2-C ,  3-C ) :   1.9612 B(  2-C ,  5-H ) :   0.9567 B(  3-C ,  6-H ) :   0.9448
B(  3-C ,  7-H ) :   0.9591

-----------------------------------------------------------------------------
         ABSORPTION SPECTRUM VIA TRANSITION ELECTRIC DIPOLE MOMENTS
-----------------------------------------------------------------------------
State   Energy    Wavelength  fosc         T2        TX        TY        TZ
        (cm-1)      (nm)                 (au**2)    (au)      (au)      (au)
-----------------------------------------------------------------------------
   1   34921.3    286.4   0.000051607   0.00049  -0.01367  -0.00030   0.01731

Dispersion correction           -0.026266114
FINAL SINGLE POINT ENERGY      -189.301747017509

DIPOLE MOMENT
-------------
                                X             Y             Z
Electronic contribution:     -1.86234      -1.90596      -0.23456
Nuclear contribution   :      2.02614       2.85921       0.30610
                        -----------------------------------------
Total Dipole Moment    :      0.16380       0.95325       0.07154
                        -----------------------------------------
Magnitude (a.u.)       :      0.96986
Magnitude (Debye)      :      2.46519

Rotational constants in cm-1:     0.764650     0.219444     0.170878
Rotational constants in MHz : 22923.619195  6578.760563  5122.778717

                             ****ORCA TERMINATED NORMALLY****
TOTAL RUN TIME: 0 days 0 hours 0 minutes 11 seconds 874 msec
