                         Program Version 5.0.3 -  RELEASE  -
|  1> ! B3LYP cc-pVDZ
|  2> !TightSCF
|  3> %scf
|  4>  ConvForced true
|  5>  convergence tight
|  6>  MaxIter 500
|  7> end
|  8>
|  9> %tddft
| 10>  nroots 1
| 11> end
| 12>
| 13> # 	28139
| 14> * xyz 0 1
| 15> 		C   -0.544496  -0.460971   0.008414
| 16> 		O   -0.610886  -1.638657   0.000909
| 17> 		C    0.637960   0.455908  -0.007154
| 18> 		C    1.837259  -0.119967  -0.024529
| 19> 		H   -1.499857  -0.034144  -0.035065
| 20> 		H    0.471224   1.494097   0.072251
| 21> 		H    1.924236  -1.237003   0.098999
| 22> 		H    2.778520   0.497688   0.136123
| 23> *
| 24>
| 25>                          ****END OF INPUT****

CARTESIAN COORDINATES (ANGSTROEM)
---------------------------------
  C     -0.544496   -0.460971    0.008414
  O     -0.610886   -1.638657    0.000909
  C      0.637960    0.455908   -0.007154
  C      1.837259   -0.119967   -0.024529
  H     -1.499857   -0.034144   -0.035065
  H      0.471224    1.494097    0.072251
  H      1.924236   -1.237003    0.098999
  H      2.778520    0.497688    0.136123

 Total Charge           Charge          ....    0
 Multiplicity           Mult            ....    1
 Number of Electrons    NEL             ....   30
 Basis Dimension        Dim             ....   76

ORBITAL ENERGIES
----------------

  NO   OCC          E(Eh)            E(eV)
   0   2.0000     -19.133178      -520.6402
   1   2.0000     -10.263047      -279.2717
   2   2.0000     -10.218291      -278.0538
   3   2.0000     -10.202950      -277.6364
   4   2.0000      -1.061438       -28.8832
   5   2.0000      -0.796936       -21.6857
   6   2.0000      -0.649230       -17.6664
   7   2.0000      -0.546321       -14.8662
   8   2.0000      -0.515062       -14.0155
   9   2.0000      -0.446823       -12.1587
  10   2.0000      -0.425504       -11.5786
  11   2.0000      -0.404481       -11.0065
  12   2.0000      -0.382288       -10.4026
  13   2.0000      -0.291731        -7.9384
  14   2.0000      -0.248419        -6.7598
  15   0.0000      -0.063950        -1.7402
  16   0.0000       0.063164         1.7188
  17   0.0000       0.069866         1.9011
  18   0.0000       0.092345         2.5128
  19   0.0000       0.130978         3.5641

MULLIKEN ATOMIC CHARGES
-----------------------
   0 C :    0.202779
   1 O :   -0.170941
   2 C :   -0.094512
   3 C :    0.037507
   4 H :   -0.052451
   5 H :   -0.017200
   6 H :    0.052301
   7 H :    0.042516
Sum of atomic charges:   -0.0000000

LOEWDIN ATOMIC CHARGES
----------------------
   0 C :   -0.047893
   1 O :    0.023456
   2 C :   -0.075774
   3 C :    0.017637
   4 H :   -0.020695
   5 H :    0.021916
   6 H :    0.041949
   7 H :    0.039404

  Mayer bond orders larger than 0.100000
B(  0-C ,  1-O ) :   2.2230 B(  0-C ,  2-C ) :   1.0342 B(  0-C ,  4-H ) :   0.9344
B(  2-C ,  3-C ) :   1.9569 B(  2-C ,  5-H ) :   0.9537 B(  3-C ,  6-H ) :   0.9291
B(  3-C ,  7-H ) :   0.9439

-----------------------------------------------------------------------------
         ABSORPTION SPECTRUM VIA TRANSITION ELECTRIC DIPOLE MOMENTS
-----------------------------------------------------------------------------
State   Energy    Wavelength  fosc         T2        TX        TY        TZ
        (cm-1)      (nm)                 (au**2)    (au)      (au)      (au)
-----------------------------------------------------------------------------
   1   27921.0    358.2   0.000096920   0.00114   0.00165   0.01388   0.03078

FINAL SINGLE POINT ENERGY      -191.666341835368

DIPOLE MOMENT
-------------
                                X             Y             Z
Electronic contribution:     -1.88095      -1.59367      -0.17634
Nuclear contribution   :      2.28749       2.46572       0.25484
                        -----------------------------------------
Total Dipole Moment    :      0.40654       0.87205       0.07851
                        -----------------------------------------
Magnitude (a.u.)       :      0.96536
Magnitude (Debye)      :      2.45374

Rotational constants in cm-1:     0.799716     0.205633     0.163712
Rotational constants in MHz : 23974.877429  6164.729406  4907.968368

                             ****ORCA TERMINATED NORMALLY****
TOTAL RUN TIME: 0 days 0 hours 3 minutes 21 seconds 895 msec
