                         Program Version 5.0.3 -  RELEASE  -
|  1> ! B3LYP cc-pVDZ
|  2> !TightSCF
|  3> %scf
|  4>  ConvForced true
|  5>  convergence tight
|  6>  MaxIter 500
|  7> end
|  8>
|  9> %tddft
| 10>  nroots 1
| 11> end
| 12>
| 13> # 	6545
| 14> * xyz 0 1
| 15> 		C   -1.196134  -0.338795  -0.006952
| 16> 		O   -1.364625  -1.363497   0.564971
| 17> 		C    0.012875   0.514964   0.174439
| 18> 		C    1.208539   0.008790  -0.135036
| 19> 		H   -1.953903   0.071499  -0.872891
| 20> 		H   -0.043051   1.462833   0.705807
| 21> 		H    1.186486  -1.016798  -0.459008
| 22> 		H    2.155642   0.657588   0.029033
| 23> *
| 24>
| 25>                          ****END OF INPUT****

CARTESIAN COORDINATES (ANGSTROEM)
---------------------------------
  C     -1.196134   -0.338795   -0.006952
  O     -1.364625   -1.363497    0.564971
  C      0.012875    0.514964    0.174439
  C      1.208539    0.008790   -0.135036
  H     -1.953903    0.071499   -0.872891
  H     -0.043051    1.462833    0.705807
  H      1.186486   -1.016798   -0.459008
  H      2.155642    0.657588    0.029033

 Total Charge           Charge          ....    0
 Multiplicity           Mult            ....    1
 Number of Electrons    NEL             ....   30
 Basis Dimension        Dim             ....   76

ORBITAL ENERGIES
----------------

  NO   OCC          E(Eh)            E(eV)
   0   2.0000     -19.151155      -521.1294
   1   2.0000     -10.289356      -279.9876
   2   2.0000     -10.208630      -277.7910
   3   2.0000     -10.203267      -277.6450
   4   2.0000      -1.070360       -29.1260
   5   2.0000      -0.795609       -21.6496
   6   2.0000      -0.640165       -17.4198
   7   2.0000      -0.544855       -14.8263
   8   2.0000      -0.498060       -13.5529
   9   2.0000      -0.453002       -12.3268
  10   2.0000      -0.439417       -11.9571
  11   2.0000      -0.394615       -10.7380
  12   2.0000      -0.385061       -10.4780
  13   2.0000      -0.286393        -7.7932
  14   2.0000      -0.257530        -7.0077
  15   0.0000      -0.037482        -1.0199
  16   0.0000      -0.000412        -0.0112
  17   0.0000       0.073720         2.0060
  18   0.0000       0.080833         2.1996
  19   0.0000       0.104196         2.8353

MULLIKEN ATOMIC CHARGES
-----------------------
   0 C :    0.133882
   1 O :   -0.150889
   2 C :   -0.079948
   3 C :    0.026405
   4 H :   -0.009125
   5 H :    0.012519
   6 H :    0.020310
   7 H :    0.046846
Sum of atomic charges:   -0.0000000

LOEWDIN ATOMIC CHARGES
----------------------
   0 C :   -0.043887
   1 O :    0.035307
   2 C :   -0.068734
   3 C :   -0.022312
   4 H :   -0.005069
   5 H :    0.032626
   6 H :    0.024970
   7 H :    0.047100

  Mayer bond orders larger than 0.100000
B(  0-C ,  1-O ) :   2.2516 B(  0-C ,  2-C ) :   0.9731 B(  0-C ,  4-H ) :   0.8835
B(  2-C ,  3-C ) :   2.0271 B(  2-C ,  5-H ) :   0.9396 B(  3-C ,  6-H ) :   0.9370
B(  3-C ,  7-H ) :   0.9422

-----------------------------------------------------------------------------
         ABSORPTION SPECTRUM VIA TRANSITION ELECTRIC DIPOLE MOMENTS
-----------------------------------------------------------------------------
State   Energy    Wavelength  fosc         T2        TX        TY        TZ
        (cm-1)      (nm)                 (au**2)    (au)      (au)      (au)
-----------------------------------------------------------------------------
   1   34011.0    294.0   0.000211280   0.00205   0.03635   0.01955   0.01849

FINAL SINGLE POINT ENERGY      -191.633269817603

DIPOLE MOMENT
-------------
                                X             Y             Z
Electronic contribution:     -2.22118      -1.60433       0.89484
Nuclear contribution   :      2.59746       2.31936      -1.14496
                        -----------------------------------------
Total Dipole Moment    :      0.37628       0.71503      -0.25012
                        -----------------------------------------
Magnitude (a.u.)       :      0.84582
Magnitude (Debye)      :      2.14991

Rotational constants in cm-1:     0.832145     0.190446     0.166841
Rotational constants in MHz : 24947.077810  5709.433848  5001.772001

                             ****ORCA TERMINATED NORMALLY****
TOTAL RUN TIME: 0 days 0 hours 3 minutes 23 seconds 131 msec
