                         Program Version 5.0.3 -  RELEASE  -
|  1> ! HF-3c
|  2> !TightSCF
|  3> %scf
|  4>  ConvForced true
|  5>  convergence tight
|  6>  MaxIter 500
|  7> end
|  8>
|  9> %tddft
| 10>  nroots 1
| 11> end
| 12>
| 13> # 	30559
| 14> * xyz 0 1
| 15> 		C   -0.572827  -0.398428   0.017461
| 16> 		O   -0.564886  -1.647013  -0.012008
| 17> 		C    0.595356   0.391879   0.010635
| 18> 		C    1.822111  -0.119908  -0.000865
| 19> 		H   -1.509775   0.217281  -0.080340
| 20> 		H    0.632260   1.474678  -0.034861
| 21> 		H    1.969898  -1.195732   0.130944
| 22> 		H    2.856353   0.419699  -0.160687
| 23> *
| 24>
| 25>                          ****END OF INPUT****

CARTESIAN COORDINATES (ANGSTROEM)
---------------------------------
  C     -0.572827   -0.398428    0.017461
  O     -0.564886   -1.647013   -0.012008
  C      0.595356    0.391879    0.010635
  C      1.822111   -0.119908   -0.000865
  H     -1.509775    0.217281   -0.080340
  H      0.632260    1.474678   -0.034861
  H      1.969898   -1.195732    0.130944
  H      2.856353    0.419699   -0.160687

 Total Charge           Charge          ....    0
 Multiplicity           Mult            ....    1
 Number of Electrons    NEL             ....   30
 Basis Dimension        Dim             ....   24

ORBITAL ENERGIES
----------------

  NO   OCC          E(Eh)            E(eV)
   0   2.0000     -20.348031      -553.6981
   1   2.0000     -11.289627      -307.2064
   2   2.0000     -11.193763      -304.5978
   3   2.0000     -11.185409      -304.3705
   4   2.0000      -1.370832       -37.3022
   5   2.0000      -1.085562       -29.5396
   6   2.0000      -0.897770       -24.4296
   7   2.0000      -0.741826       -20.1861
   8   2.0000      -0.701488       -19.0885
   9   2.0000      -0.608708       -16.5638
  10   2.0000      -0.574094       -15.6219
  11   2.0000      -0.534141       -14.5347
  12   2.0000      -0.510771       -13.8988
  13   2.0000      -0.416648       -11.3376
  14   2.0000      -0.384373       -10.4593
  15   0.0000       0.119088         3.2405
  16   0.0000       0.319119         8.6837
  17   0.0000       0.517439        14.0802
  18   0.0000       0.623275        16.9602
  19   0.0000       0.638518        17.3750

MULLIKEN ATOMIC CHARGES
-----------------------
   0 C :    0.151527
   1 O :   -0.349891
   2 C :   -0.207535
   3 C :   -0.179445
   4 H :    0.139243
   5 H :    0.147626
   6 H :    0.149536
   7 H :    0.148939
Sum of atomic charges:    0.0000000

LOEWDIN ATOMIC CHARGES
----------------------
   0 C :    0.144633
   1 O :   -0.269902
   2 C :   -0.162643
   3 C :   -0.084791
   4 H :    0.078187
   5 H :    0.095290
   6 H :    0.095604
   7 H :    0.103622

  Mayer bond orders larger than 0.100000
B(  0-C ,  1-O ) :   1.8764 B(  0-C ,  2-C ) :   1.0730 B(  0-C ,  4-H ) :   0.9249
B(  2-C ,  3-C ) :   1.9068 B(  2-C ,  5-H ) :   0.9559 B(  3-C ,  6-H ) :   0.9609
B(  3-C ,  7-H ) :   0.9631

-----------------------------------------------------------------------------
         ABSORPTION SPECTRUM VIA TRANSITION ELECTRIC DIPOLE MOMENTS
-----------------------------------------------------------------------------
State   Energy    Wavelength  fosc         T2        TX        TY        TZ
        (cm-1)      (nm)                 (au**2)    (au)      (au)      (au)
-----------------------------------------------------------------------------
   1   30354.8    329.4   0.000015377   0.00017   0.00379   0.00188  -0.01220

Dispersion correction           -0.025837737
FINAL SINGLE POINT ENERGY      -189.336698275000

DIPOLE MOMENT
-------------
                                X             Y             Z
Electronic contribution:     -2.06469      -1.66557       0.11556
Nuclear contribution   :      2.54723       2.64572      -0.13541
                        -----------------------------------------
Total Dipole Moment    :      0.48254       0.98015      -0.01985
                        -----------------------------------------
Magnitude (a.u.)       :      1.09268
Magnitude (Debye)      :      2.77736

Rotational constants in cm-1:     0.755931     0.213795     0.166852
Rotational constants in MHz : 22662.242830  6409.408941  5002.099520

                             ****ORCA TERMINATED NORMALLY****
TOTAL RUN TIME: 0 days 0 hours 0 minutes 10 seconds 688 msec
