                         Program Version 5.0.3 -  RELEASE  -
|  1> ! HF-3c
|  2> !TightSCF
|  3> %scf
|  4>  ConvForced true
|  5>  convergence tight
|  6>  MaxIter 500
|  7> end
|  8>
|  9> %tddft
| 10>  nroots 1
| 11> end
| 12>
| 13> # 	19633
| 14> * xyz 0 1
| 15> 		C   -1.176434  -0.414669  -0.149085
| 16> 		O   -1.678216  -1.076547  -1.056875
| 17> 		C    0.047465   0.413147  -0.242405
| 18> 		C    1.158049   0.092858   0.262655
| 19> 		H   -1.629859  -0.420558   1.018677
| 20> 		H   -0.007582   1.506822  -0.908883
| 21> 		H    1.114638  -0.886571   0.864032
| 22> 		H    2.159895   0.821294   0.172838
| 23> *
| 24>
| 25>                          ****END OF INPUT****

CARTESIAN COORDINATES (ANGSTROEM)
---------------------------------
  C     -1.176434   -0.414669   -0.149085
  O     -1.678216   -1.076547   -1.056875
  C      0.047465    0.413147   -0.242405
  C      1.158049    0.092858    0.262655
  H     -1.629859   -0.420558    1.018677
  H     -0.007582    1.506822   -0.908883
  H      1.114638   -0.886571    0.864032
  H      2.159895    0.821294    0.172838

 Total Charge           Charge          ....    0
 Multiplicity           Mult            ....    1
 Number of Electrons    NEL             ....   30
 Basis Dimension        Dim             ....   24

ORBITAL ENERGIES
----------------

  NO   OCC          E(Eh)            E(eV)
   0   2.0000     -20.367424      -554.2258
   1   2.0000     -11.292307      -307.2793
   2   2.0000     -11.183822      -304.3273
   3   2.0000     -11.174785      -304.0814
   4   2.0000      -1.386369       -37.7250
   5   2.0000      -1.087754       -29.5993
   6   2.0000      -0.857618       -23.3370
   7   2.0000      -0.713077       -19.4038
   8   2.0000      -0.650247       -17.6941
   9   2.0000      -0.616158       -16.7665
  10   2.0000      -0.583888       -15.8884
  11   2.0000      -0.511398       -13.9159
  12   2.0000      -0.477160       -12.9842
  13   2.0000      -0.415689       -11.3115
  14   2.0000      -0.390728       -10.6323
  15   0.0000       0.176406         4.8003
  16   0.0000       0.260469         7.0877
  17   0.0000       0.462772        12.5927
  18   0.0000       0.487313        13.2605
  19   0.0000       0.525950        14.3118

MULLIKEN ATOMIC CHARGES
-----------------------
   0 C :    0.181315
   1 O :   -0.347368
   2 C :   -0.168357
   3 C :   -0.237063
   4 H :    0.132375
   5 H :    0.151687
   6 H :    0.135377
   7 H :    0.152034
Sum of atomic charges:   -0.0000000

LOEWDIN ATOMIC CHARGES
----------------------
   0 C :    0.155429
   1 O :   -0.256739
   2 C :   -0.135296
   3 C :   -0.163048
   4 H :    0.081671
   5 H :    0.113499
   6 H :    0.091884
   7 H :    0.112598

  Mayer bond orders larger than 0.100000
B(  0-C ,  1-O ) :   1.9456 B(  0-C ,  2-C ) :   0.9935 B(  0-C ,  4-H ) :   0.9009
B(  2-C ,  3-C ) :   2.0108 B(  2-C ,  5-H ) :   0.9287 B(  3-C ,  6-H ) :   0.9551
B(  3-C ,  7-H ) :   0.9505

-----------------------------------------------------------------------------
         ABSORPTION SPECTRUM VIA TRANSITION ELECTRIC DIPOLE MOMENTS
-----------------------------------------------------------------------------
State   Energy    Wavelength  fosc         T2        TX        TY        TZ
        (cm-1)      (nm)                 (au**2)    (au)      (au)      (au)
-----------------------------------------------------------------------------
   1   33588.5    297.7   0.000019047   0.00019  -0.00321   0.01319  -0.00157

Dispersion correction           -0.024884536
FINAL SINGLE POINT ENERGY      -189.269293967722

DIPOLE MOMENT
-------------
                                X             Y             Z
Electronic contribution:     -2.60638      -1.30285      -1.49287
Nuclear contribution   :      3.18100       1.95649       2.22274
                        -----------------------------------------
Total Dipole Moment    :      0.57462       0.65364       0.72987
                        -----------------------------------------
Magnitude (a.u.)       :      1.13584
Magnitude (Debye)      :      2.88708

Rotational constants in cm-1:     1.079730     0.158716     0.155652
Rotational constants in MHz : 32369.485132  4758.170989  4666.326854

                             ****ORCA TERMINATED NORMALLY****
TOTAL RUN TIME: 0 days 0 hours 0 minutes 16 seconds 67 msec
