                         Program Version 5.0.3 -  RELEASE  -
|  1> ! B3LYP cc-pVDZ
|  2> !TightSCF
|  3> %scf
|  4>  ConvForced true
|  5>  convergence tight
|  6>  MaxIter 500
|  7> end
|  8>
|  9> %tddft
| 10>  nroots 1
| 11> end
| 12>
| 13> # 	14
| 14> * xyz 0 1
| 15> 		C   -1.190907  -0.418127  -0.032339
| 16> 		O   -1.715959  -1.106730  -0.911725
| 17> 		C    0.061259   0.399063  -0.223832
| 18> 		C    1.223018   0.152031   0.220185
| 19> 		H   -1.715665  -0.297517   1.027614
| 20> 		H   -0.090864   1.342302  -0.792773
| 21> 		H    1.335024  -0.823454   0.783060
| 22> 		H    2.087452   0.764349  -0.115434
| 23> *
| 24>
| 25>                          ****END OF INPUT****

CARTESIAN COORDINATES (ANGSTROEM)
---------------------------------
  C     -1.190907   -0.418127   -0.032339
  O     -1.715959   -1.106730   -0.911725
  C      0.061259    0.399063   -0.223832
  C      1.223018    0.152031    0.220185
  H     -1.715665   -0.297517    1.027614
  H     -0.090864    1.342302   -0.792773
  H      1.335024   -0.823454    0.783060
  H      2.087452    0.764349   -0.115434

 Total Charge           Charge          ....    0
 Multiplicity           Mult            ....    1
 Number of Electrons    NEL             ....   30
 Basis Dimension        Dim             ....   76

ORBITAL ENERGIES
----------------

  NO   OCC          E(Eh)            E(eV)
   0   2.0000     -19.151835      -521.1479
   1   2.0000     -10.293991      -280.1137
   2   2.0000     -10.203885      -277.6618
   3   2.0000     -10.202414      -277.6218
   4   2.0000      -1.042266       -28.3615
   5   2.0000      -0.808903       -22.0114
   6   2.0000      -0.646132       -17.5822
   7   2.0000      -0.546996       -14.8845
   8   2.0000      -0.490556       -13.3487
   9   2.0000      -0.461187       -12.5495
  10   2.0000      -0.439244       -11.9524
  11   2.0000      -0.389054       -10.5867
  12   2.0000      -0.364892        -9.9292
  13   2.0000      -0.299510        -8.1501
  14   2.0000      -0.259399        -7.0586
  15   0.0000      -0.046437        -1.2636
  16   0.0000       0.004333         0.1179
  17   0.0000       0.075493         2.0543
  18   0.0000       0.086224         2.3463
  19   0.0000       0.091723         2.4959

MULLIKEN ATOMIC CHARGES
-----------------------
   0 C :    0.144163
   1 O :   -0.190982
   2 C :   -0.080842
   3 C :    0.037207
   4 H :    0.009706
   5 H :    0.022378
   6 H :    0.023158
   7 H :    0.035210
Sum of atomic charges:   -0.0000000

LOEWDIN ATOMIC CHARGES
----------------------
   0 C :   -0.004009
   1 O :   -0.009473
   2 C :   -0.073902
   3 C :   -0.041005
   4 H :    0.004181
   5 H :    0.044697
   6 H :    0.037421
   7 H :    0.042091

  Mayer bond orders larger than 0.100000
B(  0-C ,  1-O ) :   2.2033 B(  0-C ,  2-C ) :   0.9663 B(  0-C ,  4-H ) :   0.9000
B(  2-C ,  3-C ) :   2.0728 B(  2-C ,  5-H ) :   0.9263 B(  3-C ,  6-H ) :   0.9322
B(  3-C ,  7-H ) :   0.9256

-----------------------------------------------------------------------------
         ABSORPTION SPECTRUM VIA TRANSITION ELECTRIC DIPOLE MOMENTS
-----------------------------------------------------------------------------
State   Energy    Wavelength  fosc         T2        TX        TY        TZ
        (cm-1)      (nm)                 (au**2)    (au)      (au)      (au)
-----------------------------------------------------------------------------
   1   31583.5    316.6   0.000477678   0.00498   0.07024   0.00203   0.00638

FINAL SINGLE POINT ENERGY      -191.641990705060

DIPOLE MOMENT
-------------
                                X             Y             Z
Electronic contribution:     -2.59116      -1.34026      -1.28044
Nuclear contribution   :      3.15072       1.92416       1.78133
                        -----------------------------------------
Total Dipole Moment    :      0.55957       0.58390       0.50089
                        -----------------------------------------
Magnitude (a.u.)       :      0.95129
Magnitude (Debye)      :      2.41799

Rotational constants in cm-1:     1.132786     0.154910     0.153683
Rotational constants in MHz : 33960.079836  4644.094605  4607.285882

                             ****ORCA TERMINATED NORMALLY****
TOTAL RUN TIME: 0 days 0 hours 3 minutes 5 seconds 721 msec
