                         Program Version 5.0.3 -  RELEASE  -
|  1> ! B3LYP cc-pVDZ
|  2> !TightSCF
|  3> %scf
|  4>  ConvForced true
|  5>  convergence tight
|  6>  MaxIter 500
|  7> end
|  8>
|  9> %tddft
| 10>  nroots 1
| 11> end
| 12>
| 13> # 	32146
| 14> * xyz 0 1
| 15> 		C   -0.631578  -0.489249  -0.048242
| 16> 		O   -0.605643  -1.612344   0.023483
| 17> 		C    0.666075   0.353359   0.063779
| 18> 		C    1.881547  -0.056954  -0.012144
| 19> 		H   -1.591317   0.183007  -0.155132
| 20> 		H    0.595917   1.445255  -0.026344
| 21> 		H    1.915005  -1.161576  -0.128069
| 22> 		H    2.824492   0.656617  -0.105663
| 23> *
| 24>
| 25>                          ****END OF INPUT****

CARTESIAN COORDINATES (ANGSTROEM)
---------------------------------
  C     -0.631578   -0.489249   -0.048242
  O     -0.605643   -1.612344    0.023483
  C      0.666075    0.353359    0.063779
  C      1.881547   -0.056954   -0.012144
  H     -1.591317    0.183007   -0.155132
  H      0.595917    1.445255   -0.026344
  H      1.915005   -1.161576   -0.128069
  H      2.824492    0.656617   -0.105663

 Total Charge           Charge          ....    0
 Multiplicity           Mult            ....    1
 Number of Electrons    NEL             ....   30
 Basis Dimension        Dim             ....   76

ORBITAL ENERGIES
----------------

  NO   OCC          E(Eh)            E(eV)
   0   2.0000     -19.151510      -521.1391
   1   2.0000     -10.285321      -279.8778
   2   2.0000     -10.206230      -277.7256
   3   2.0000     -10.189805      -277.2787
   4   2.0000      -1.107567       -30.1384
   5   2.0000      -0.793098       -21.5813
   6   2.0000      -0.633478       -17.2378
   7   2.0000      -0.528341       -14.3769
   8   2.0000      -0.511415       -13.9163
   9   2.0000      -0.461310       -12.5529
  10   2.0000      -0.434318       -11.8184
  11   2.0000      -0.430808       -11.7229
  12   2.0000      -0.359365        -9.7788
  13   2.0000      -0.293658        -7.9909
  14   2.0000      -0.260437        -7.0869
  15   0.0000      -0.049590        -1.3494
  16   0.0000       0.055595         1.5128
  17   0.0000       0.071732         1.9519
  18   0.0000       0.085440         2.3250
  19   0.0000       0.123074         3.3490

MULLIKEN ATOMIC CHARGES
-----------------------
   0 C :    0.149312
   1 O :   -0.098169
   2 C :   -0.117304
   3 C :    0.023315
   4 H :   -0.017929
   5 H :   -0.020736
   6 H :    0.026289
   7 H :    0.055223
Sum of atomic charges:   -0.0000000

LOEWDIN ATOMIC CHARGES
----------------------
   0 C :   -0.077521
   1 O :    0.093512
   2 C :   -0.100918
   3 C :   -0.017253
   4 H :   -0.007226
   5 H :    0.022391
   6 H :    0.031973
   7 H :    0.055042

  Mayer bond orders larger than 0.100000
B(  0-C ,  1-O ) :   2.3057 B(  0-C ,  2-C ) :   0.9662 B(  0-C ,  4-H ) :   0.8857
B(  2-C ,  3-C ) :   2.0192 B(  2-C ,  5-H ) :   0.9324 B(  3-C ,  6-H ) :   0.9189
B(  3-C ,  7-H ) :   0.9327

-----------------------------------------------------------------------------
         ABSORPTION SPECTRUM VIA TRANSITION ELECTRIC DIPOLE MOMENTS
-----------------------------------------------------------------------------
State   Energy    Wavelength  fosc         T2        TX        TY        TZ
        (cm-1)      (nm)                 (au**2)    (au)      (au)      (au)
-----------------------------------------------------------------------------
   1   33486.9    298.6   0.000746388   0.00734  -0.07744  -0.02261   0.02879

FINAL SINGLE POINT ENERGY      -191.623846280382

DIPOLE MOMENT
-------------
                                X             Y             Z
Electronic contribution:     -2.11600      -2.15169       0.27183
Nuclear contribution   :      2.35468       2.84305      -0.38905
                        -----------------------------------------
Total Dipole Moment    :      0.23868       0.69136      -0.11722
                        -----------------------------------------
Magnitude (a.u.)       :      0.74074
Magnitude (Debye)      :      1.88280

Rotational constants in cm-1:     0.867080     0.196618     0.160702
Rotational constants in MHz : 25994.413685  5894.447090  4817.718917

                             ****ORCA TERMINATED NORMALLY****
TOTAL RUN TIME: 0 days 0 hours 3 minutes 22 seconds 887 msec
