                         Program Version 5.0.3 -  RELEASE  -
|  1> ! HF-3c
|  2> !TightSCF
|  3> %scf
|  4>  ConvForced true
|  5>  convergence tight
|  6>  MaxIter 500
|  7> end
|  8>
|  9> %tddft
| 10>  nroots 1
| 11> end
| 12>
| 13> # 	1623
| 14> * xyz 0 1
| 15> 		C   -1.221638  -0.345161  -0.023965
| 16> 		O   -1.288048  -1.546932  -0.182179
| 17> 		C    0.008534   0.484192  -0.082260
| 18> 		C    1.259303  -0.026735   0.022360
| 19> 		H   -2.174414   0.219254   0.266181
| 20> 		H   -0.103554   1.498271  -0.093278
| 21> 		H    1.417714  -1.036189  -0.073941
| 22> 		H    2.026453   0.750974   0.140212
| 23> *
| 24>
| 25>                          ****END OF INPUT****

CARTESIAN COORDINATES (ANGSTROEM)
---------------------------------
  C     -1.221638   -0.345161   -0.023965
  O     -1.288048   -1.546932   -0.182179
  C      0.008534    0.484192   -0.082260
  C      1.259303   -0.026735    0.022360
  H     -2.174414    0.219254    0.266181
  H     -0.103554    1.498271   -0.093278
  H      1.417714   -1.036189   -0.073941
  H      2.026453    0.750974    0.140212

 Total Charge           Charge          ....    0
 Multiplicity           Mult            ....    1
 Number of Electrons    NEL             ....   30
 Basis Dimension        Dim             ....   24

ORBITAL ENERGIES
----------------

  NO   OCC          E(Eh)            E(eV)
   0   2.0000     -20.362710      -554.0975
   1   2.0000     -11.294151      -307.3295
   2   2.0000     -11.196728      -304.6784
   3   2.0000     -11.189910      -304.4929
   4   2.0000      -1.396685       -38.0057
   5   2.0000      -1.082107       -29.4456
   6   2.0000      -0.894008       -24.3272
   7   2.0000      -0.755168       -20.5492
   8   2.0000      -0.708053       -19.2671
   9   2.0000      -0.616765       -16.7830
  10   2.0000      -0.593118       -16.1396
  11   2.0000      -0.558295       -15.1920
  12   2.0000      -0.531397       -14.4601
  13   2.0000      -0.409928       -11.1547
  14   2.0000      -0.392740       -10.6870
  15   0.0000       0.127046         3.4571
  16   0.0000       0.295357         8.0371
  17   0.0000       0.559842        15.2341
  18   0.0000       0.628874        17.1125
  19   0.0000       0.664584        18.0842

MULLIKEN ATOMIC CHARGES
-----------------------
   0 C :    0.168987
   1 O :   -0.354797
   2 C :   -0.180217
   3 C :   -0.221351
   4 H :    0.133993
   5 H :    0.139819
   6 H :    0.160168
   7 H :    0.153399
Sum of atomic charges:    0.0000000

LOEWDIN ATOMIC CHARGES
----------------------
   0 C :    0.147913
   1 O :   -0.260894
   2 C :   -0.132402
   3 C :   -0.115430
   4 H :    0.074176
   5 H :    0.083200
   6 H :    0.100490
   7 H :    0.102948

  Mayer bond orders larger than 0.100000
B(  0-C ,  1-O ) :   1.9097 B(  0-C ,  2-C ) :   1.0252 B(  0-C ,  4-H ) :   0.9213
B(  2-C ,  3-C ) :   1.9398 B(  2-C ,  5-H ) :   0.9645 B(  3-C ,  6-H ) :   0.9632
B(  3-C ,  7-H ) :   0.9636

-----------------------------------------------------------------------------
         ABSORPTION SPECTRUM VIA TRANSITION ELECTRIC DIPOLE MOMENTS
-----------------------------------------------------------------------------
State   Energy    Wavelength  fosc         T2        TX        TY        TZ
        (cm-1)      (nm)                 (au**2)    (au)      (au)      (au)
-----------------------------------------------------------------------------
   1   32317.6    309.4   0.000027343   0.00028  -0.01461   0.00164  -0.00790

Dispersion correction           -0.025559307
FINAL SINGLE POINT ENERGY      -189.335913664157

DIPOLE MOMENT
-------------
                                X             Y             Z
Electronic contribution:     -1.97178      -1.82981      -0.30225
Nuclear contribution   :      2.34359       2.79638       0.46905
                        -----------------------------------------
Total Dipole Moment    :      0.37181       0.96657       0.16680
                        -----------------------------------------
Magnitude (a.u.)       :      1.04896
Magnitude (Debye)      :      2.66624

Rotational constants in cm-1:     0.803975     0.196473     0.158701
Rotational constants in MHz : 24102.561011  5890.123866  4757.722772

                             ****ORCA TERMINATED NORMALLY****
TOTAL RUN TIME: 0 days 0 hours 0 minutes 10 seconds 672 msec
