                         Program Version 5.0.3 -  RELEASE  -
|  1> ! HF-3c
|  2> !TightSCF
|  3> %scf
|  4>  ConvForced true
|  5>  convergence tight
|  6>  MaxIter 500
|  7> end
|  8>
|  9> %tddft
| 10>  nroots 1
| 11> end
| 12>
| 13> # 	19289
| 14> * xyz 0 1
| 15> 		C   -1.172273  -0.371327  -0.087516
| 16> 		O   -1.563680  -1.362077  -0.701407
| 17> 		C   -0.019296   0.505650  -0.275778
| 18> 		C    1.210128   0.099695   0.112320
| 19> 		H   -1.797417  -0.072803   0.947797
| 20> 		H   -0.093027   1.594800  -0.340909
| 21> 		H    1.304850  -1.031071   0.283183
| 22> 		H    2.153231   0.671373   0.046824
| 23> *
| 24>
| 25>                          ****END OF INPUT****

CARTESIAN COORDINATES (ANGSTROEM)
---------------------------------
  C     -1.172273   -0.371327   -0.087516
  O     -1.563680   -1.362077   -0.701407
  C     -0.019296    0.505650   -0.275778
  C      1.210128    0.099695    0.112320
  H     -1.797417   -0.072803    0.947797
  H     -0.093027    1.594800   -0.340909
  H      1.304850   -1.031071    0.283183
  H      2.153231    0.671373    0.046824

 Total Charge           Charge          ....    0
 Multiplicity           Mult            ....    1
 Number of Electrons    NEL             ....   30
 Basis Dimension        Dim             ....   24

ORBITAL ENERGIES
----------------

  NO   OCC          E(Eh)            E(eV)
   0   2.0000     -20.368754      -554.2620
   1   2.0000     -11.296892      -307.4041
   2   2.0000     -11.192323      -304.5586
   3   2.0000     -11.181364      -304.2604
   4   2.0000      -1.387826       -37.7647
   5   2.0000      -1.080483       -29.4014
   6   2.0000      -0.875025       -23.8107
   7   2.0000      -0.735981       -20.0271
   8   2.0000      -0.679178       -18.4814
   9   2.0000      -0.620406       -16.8821
  10   2.0000      -0.597890       -16.2694
  11   2.0000      -0.528028       -14.3684
  12   2.0000      -0.492812       -13.4101
  13   2.0000      -0.419023       -11.4022
  14   2.0000      -0.381610       -10.3841
  15   0.0000       0.163431         4.4472
  16   0.0000       0.223382         6.0785
  17   0.0000       0.512987        13.9591
  18   0.0000       0.584778        15.9126
  19   0.0000       0.615301        16.7432

MULLIKEN ATOMIC CHARGES
-----------------------
   0 C :    0.182461
   1 O :   -0.345875
   2 C :   -0.185595
   3 C :   -0.218373
   4 H :    0.129003
   5 H :    0.154681
   6 H :    0.137883
   7 H :    0.145813
Sum of atomic charges:   -0.0000000

LOEWDIN ATOMIC CHARGES
----------------------
   0 C :    0.158330
   1 O :   -0.256469
   2 C :   -0.139532
   3 C :   -0.131762
   4 H :    0.077847
   5 H :    0.102864
   6 H :    0.092397
   7 H :    0.096326

  Mayer bond orders larger than 0.100000
B(  0-C ,  1-O ) :   1.9415 B(  0-C ,  2-C ) :   1.0128 B(  0-C ,  4-H ) :   0.8982
B(  2-C ,  3-C ) :   1.9645 B(  2-C ,  5-H ) :   0.9479 B(  3-C ,  6-H ) :   0.9643
B(  3-C ,  7-H ) :   0.9639

-----------------------------------------------------------------------------
         ABSORPTION SPECTRUM VIA TRANSITION ELECTRIC DIPOLE MOMENTS
-----------------------------------------------------------------------------
State   Energy    Wavelength  fosc         T2        TX        TY        TZ
        (cm-1)      (nm)                 (au**2)    (au)      (au)      (au)
-----------------------------------------------------------------------------
   1   33479.1    298.7   0.000414921   0.00408  -0.05914  -0.00325  -0.02391

Dispersion correction           -0.025000034
FINAL SINGLE POINT ENERGY      -189.306681152690

DIPOLE MOMENT
-------------
                                X             Y             Z
Electronic contribution:     -2.46573      -1.46189      -1.17046
Nuclear contribution   :      3.00759       2.26709       1.76181
                        -----------------------------------------
Total Dipole Moment    :      0.54186       0.80521       0.59135
                        -----------------------------------------
Magnitude (a.u.)       :      1.13651
Magnitude (Debye)      :      2.88879

Rotational constants in cm-1:     0.932551     0.170380     0.154090
Rotational constants in MHz : 27957.170818  5107.862104  4619.493005

                             ****ORCA TERMINATED NORMALLY****
TOTAL RUN TIME: 0 days 0 hours 0 minutes 10 seconds 960 msec
