                         Program Version 5.0.3 -  RELEASE  -
|  1> ! B3LYP cc-pVDZ
|  2> !TightSCF
|  3> %scf
|  4>  ConvForced true
|  5>  convergence tight
|  6>  MaxIter 500
|  7> end
|  8>
|  9> %tddft
| 10>  nroots 1
| 11> end
| 12>
| 13> # 	12271
| 14> * xyz 0 1
| 15> 		C   -1.180556  -0.298861   0.013576
| 16> 		O   -1.689721  -0.994039  -0.831107
| 17> 		C    0.005568   0.500692  -0.214287
| 18> 		C    1.233139   0.002272   0.139716
| 19> 		H   -1.594442  -0.236271   1.005398
| 20> 		H   -0.057900   1.402107  -0.892387
| 21> 		H    1.192380  -0.988038   0.744881
| 22> 		H    2.109531   0.589181   0.055652
| 23> *
| 24>
| 25>                          ****END OF INPUT****

CARTESIAN COORDINATES (ANGSTROEM)
---------------------------------
  C     -1.180556   -0.298861    0.013576
  O     -1.689721   -0.994039   -0.831107
  C      0.005568    0.500692   -0.214287
  C      1.233139    0.002272    0.139716
  H     -1.594442   -0.236271    1.005398
  H     -0.057900    1.402107   -0.892387
  H      1.192380   -0.988038    0.744881
  H      2.109531    0.589181    0.055652

 Total Charge           Charge          ....    0
 Multiplicity           Mult            ....    1
 Number of Electrons    NEL             ....   30
 Basis Dimension        Dim             ....   76

ORBITAL ENERGIES
----------------

  NO   OCC          E(Eh)            E(eV)
   0   2.0000     -19.143368      -520.9175
   1   2.0000     -10.275872      -279.6207
   2   2.0000     -10.213303      -277.9181
   3   2.0000     -10.209918      -277.8260
   4   2.0000      -1.053533       -28.6681
   5   2.0000      -0.793690       -21.5974
   6   2.0000      -0.653663       -17.7871
   7   2.0000      -0.560679       -15.2568
   8   2.0000      -0.492839       -13.4108
   9   2.0000      -0.460765       -12.5380
  10   2.0000      -0.437765       -11.9122
  11   2.0000      -0.393488       -10.7074
  12   2.0000      -0.370400       -10.0791
  13   2.0000      -0.282386        -7.6841
  14   2.0000      -0.256419        -6.9775
  15   0.0000      -0.045454        -1.2369
  16   0.0000      -0.008089        -0.2201
  17   0.0000       0.081759         2.2248
  18   0.0000       0.087020         2.3679
  19   0.0000       0.106812         2.9065

MULLIKEN ATOMIC CHARGES
-----------------------
   0 C :    0.190744
   1 O :   -0.180581
   2 C :   -0.108247
   3 C :    0.011962
   4 H :   -0.015930
   5 H :    0.036580
   6 H :    0.037906
   7 H :    0.027565
Sum of atomic charges:   -0.0000000

LOEWDIN ATOMIC CHARGES
----------------------
   0 C :   -0.030296
   1 O :    0.015669
   2 C :   -0.059804
   3 C :   -0.025573
   4 H :   -0.008288
   5 H :    0.046468
   6 H :    0.040962
   7 H :    0.020862

  Mayer bond orders larger than 0.100000
B(  0-C ,  1-O ) :   2.2332 B(  0-C ,  2-C ) :   1.0038 B(  0-C ,  4-H ) :   0.9212
B(  2-C ,  3-C ) :   2.0121 B(  2-C ,  5-H ) :   0.9336 B(  3-C ,  6-H ) :   0.9452
B(  3-C ,  7-H ) :   0.9466

-----------------------------------------------------------------------------
         ABSORPTION SPECTRUM VIA TRANSITION ELECTRIC DIPOLE MOMENTS
-----------------------------------------------------------------------------
State   Energy    Wavelength  fosc         T2        TX        TY        TZ
        (cm-1)      (nm)                 (au**2)    (au)      (au)      (au)
-----------------------------------------------------------------------------
   1   32089.8    311.6   0.001334936   0.01370  -0.11441  -0.01745  -0.01733

FINAL SINGLE POINT ENERGY      -191.640679596470

DIPOLE MOMENT
-------------
                                X             Y             Z
Electronic contribution:     -2.64928      -0.97437      -1.19760
Nuclear contribution   :      3.18060       1.55689       1.72567
                        -----------------------------------------
Total Dipole Moment    :      0.53132       0.58252       0.52808
                        -----------------------------------------
Magnitude (a.u.)       :      0.94894
Magnitude (Debye)      :      2.41203

Rotational constants in cm-1:     0.986085     0.169601     0.163283
Rotational constants in MHz : 29562.069716  5084.503351  4895.104013

                             ****ORCA TERMINATED NORMALLY****
TOTAL RUN TIME: 0 days 0 hours 3 minutes 25 seconds 728 msec
