                         Program Version 5.0.3 -  RELEASE  -
|  1> ! HF-3c
|  2> !TightSCF
|  3> %scf
|  4>  ConvForced true
|  5>  convergence tight
|  6>  MaxIter 500
|  7> end
|  8>
|  9> %tddft
| 10>  nroots 1
| 11> end
| 12>
| 13> # 	29850
| 14> * xyz 0 1
| 15> 		C   -0.603860  -0.472899  -0.060045
| 16> 		O   -0.641472  -1.656694   0.036469
| 17> 		C    0.660057   0.381458   0.026532
| 18> 		C    1.913502  -0.043830  -0.033130
| 19> 		H   -1.588266   0.138549  -0.113123
| 20> 		H    0.384261   1.541578   0.295526
| 21> 		H    2.155847  -1.088371   0.007584
| 22> 		H    2.720016   0.579021   0.042599
| 23> *
| 24>
| 25>                          ****END OF INPUT****

CARTESIAN COORDINATES (ANGSTROEM)
---------------------------------
  C     -0.603860   -0.472899   -0.060045
  O     -0.641472   -1.656694    0.036469
  C      0.660057    0.381458    0.026532
  C      1.913502   -0.043830   -0.033130
  H     -1.588266    0.138549   -0.113123
  H      0.384261    1.541578    0.295526
  H      2.155847   -1.088371    0.007584
  H      2.720016    0.579021    0.042599

 Total Charge           Charge          ....    0
 Multiplicity           Mult            ....    1
 Number of Electrons    NEL             ....   30
 Basis Dimension        Dim             ....   24

ORBITAL ENERGIES
----------------

  NO   OCC          E(Eh)            E(eV)
   0   2.0000     -20.378576      -554.5292
   1   2.0000     -11.302171      -307.5477
   2   2.0000     -11.189382      -304.4786
   3   2.0000     -11.186704      -304.4057
   4   2.0000      -1.420073       -38.6422
   5   2.0000      -1.068208       -29.0674
   6   2.0000      -0.884900       -24.0793
   7   2.0000      -0.742739       -20.2110
   8   2.0000      -0.685018       -18.6403
   9   2.0000      -0.620737       -16.8911
  10   2.0000      -0.607944       -16.5430
  11   2.0000      -0.549539       -14.9537
  12   2.0000      -0.514016       -13.9871
  13   2.0000      -0.408526       -11.1166
  14   2.0000      -0.395215       -10.7543
  15   0.0000       0.138959         3.7813
  16   0.0000       0.303555         8.2601
  17   0.0000       0.488575        13.2948
  18   0.0000       0.546381        14.8678
  19   0.0000       0.644977        17.5507

MULLIKEN ATOMIC CHARGES
-----------------------
   0 C :    0.178915
   1 O :   -0.354030
   2 C :   -0.141403
   3 C :   -0.254882
   4 H :    0.132602
   5 H :    0.139214
   6 H :    0.155906
   7 H :    0.143678
Sum of atomic charges:   -0.0000000

LOEWDIN ATOMIC CHARGES
----------------------
   0 C :    0.147560
   1 O :   -0.248983
   2 C :   -0.109733
   3 C :   -0.150931
   4 H :    0.073336
   5 H :    0.097952
   6 H :    0.101941
   7 H :    0.088860

  Mayer bond orders larger than 0.100000
B(  0-C ,  1-O ) :   1.9291 B(  0-C ,  2-C ) :   0.9938 B(  0-C ,  4-H ) :   0.9159
B(  2-C ,  3-C ) :   1.9719 B(  2-C ,  5-H ) :   0.9539 B(  3-C ,  6-H ) :   0.9587
B(  3-C ,  7-H ) :   0.9649

-----------------------------------------------------------------------------
         ABSORPTION SPECTRUM VIA TRANSITION ELECTRIC DIPOLE MOMENTS
-----------------------------------------------------------------------------
State   Energy    Wavelength  fosc         T2        TX        TY        TZ
        (cm-1)      (nm)                 (au**2)    (au)      (au)      (au)
-----------------------------------------------------------------------------
   1   33704.1    296.7   0.000011807   0.00012  -0.01030   0.00037  -0.00303

Dispersion correction           -0.024836974
FINAL SINGLE POINT ENERGY      -189.320229894495

DIPOLE MOMENT
-------------
                                X             Y             Z
Electronic contribution:     -2.08811      -1.91739      -0.19734
Nuclear contribution   :      2.28649       2.88493       0.21757
                        -----------------------------------------
Total Dipole Moment    :      0.19838       0.96755       0.02023
                        -----------------------------------------
Magnitude (a.u.)       :      0.98788
Magnitude (Debye)      :      2.51099

Rotational constants in cm-1:     0.806934     0.190177     0.154438
Rotational constants in MHz : 24191.275698  5701.350084  4629.920308

                             ****ORCA TERMINATED NORMALLY****
TOTAL RUN TIME: 0 days 0 hours 0 minutes 14 seconds 497 msec
