                         Program Version 5.0.3 -  RELEASE  -
|  1> ! B3LYP cc-pVDZ
|  2> !TightSCF
|  3> %scf
|  4>  ConvForced true
|  5>  convergence tight
|  6>  MaxIter 500
|  7> end
|  8>
|  9> %tddft
| 10>  nroots 1
| 11> end
| 12>
| 13> # 	4996
| 14> * xyz 0 1
| 15> 		C   -1.231386  -0.349966   0.005524
| 16> 		O   -2.002053  -0.680897   0.945656
| 17> 		C    0.065063   0.407492   0.262274
| 18> 		C    1.204969  -0.006759  -0.246463
| 19> 		H   -1.474214  -0.596106  -0.995865
| 20> 		H    0.017386   1.183675   0.991166
| 21> 		H    1.458216  -0.578600  -0.725375
| 22> 		H    1.967551   0.579833  -0.214047
| 23> *
| 24>
| 25>                          ****END OF INPUT****

CARTESIAN COORDINATES (ANGSTROEM)
---------------------------------
  C     -1.231386   -0.349966    0.005524
  O     -2.002053   -0.680897    0.945656
  C      0.065063    0.407492    0.262274
  C      1.204969   -0.006759   -0.246463
  H     -1.474214   -0.596106   -0.995865
  H      0.017386    1.183675    0.991166
  H      1.458216   -0.578600   -0.725375
  H      1.967551    0.579833   -0.214047

 Total Charge           Charge          ....    0
 Multiplicity           Mult            ....    1
 Number of Electrons    NEL             ....   30
 Basis Dimension        Dim             ....   76

ORBITAL ENERGIES
----------------

  NO   OCC          E(Eh)            E(eV)
   0   2.0000     -19.141300      -520.8613
   1   2.0000     -10.278516      -279.6926
   2   2.0000     -10.210151      -277.8323
   3   2.0000     -10.171137      -276.7707
   4   2.0000      -1.020686       -27.7743
   5   2.0000      -0.815297       -22.1854
   6   2.0000      -0.684944       -18.6383
   7   2.0000      -0.598310       -16.2808
   8   2.0000      -0.500199       -13.6111
   9   2.0000      -0.481521       -13.1029
  10   2.0000      -0.430288       -11.7087
  11   2.0000      -0.395888       -10.7727
  12   2.0000      -0.370151       -10.0723
  13   2.0000      -0.293118        -7.9761
  14   2.0000      -0.253042        -6.8856
  15   0.0000      -0.064509        -1.7554
  16   0.0000       0.017462         0.4752
  17   0.0000       0.088866         2.4182
  18   0.0000       0.097499         2.6531
  19   0.0000       0.128564         3.4984

MULLIKEN ATOMIC CHARGES
-----------------------
   0 C :    0.197828
   1 O :   -0.228501
   2 C :   -0.103627
   3 C :    0.359034
   4 H :   -0.005888
   5 H :    0.009109
   6 H :   -0.204615
   7 H :   -0.023340
Sum of atomic charges:    0.0000000

LOEWDIN ATOMIC CHARGES
----------------------
   0 C :    0.019767
   1 O :   -0.041041
   2 C :   -0.009147
   3 C :    0.069063
   4 H :   -0.006848
   5 H :    0.034682
   6 H :   -0.092025
   7 H :    0.025550

  Mayer bond orders larger than 0.100000
B(  0-C ,  1-O ) :   2.1423 B(  0-C ,  2-C ) :   1.0235 B(  0-C ,  4-H ) :   0.9343
B(  2-C ,  3-C ) :   2.0024 B(  2-C ,  5-H ) :   0.9367 B(  3-C ,  6-H ) :   0.9035
B(  3-C ,  7-H ) :   0.9282

-----------------------------------------------------------------------------
         ABSORPTION SPECTRUM VIA TRANSITION ELECTRIC DIPOLE MOMENTS
-----------------------------------------------------------------------------
State   Energy    Wavelength  fosc         T2        TX        TY        TZ
        (cm-1)      (nm)                 (au**2)    (au)      (au)      (au)
-----------------------------------------------------------------------------
   1   27729.2    360.6   0.001701715   0.02020  -0.13744  -0.01520   0.03292

FINAL SINGLE POINT ENERGY      -191.527346538078

DIPOLE MOMENT
-------------
                                X             Y             Z
Electronic contribution:     -2.97271      -0.85506       1.15058
Nuclear contribution   :      3.80551       1.19352      -1.84174
                        -----------------------------------------
Total Dipole Moment    :      0.83280       0.33846      -0.69115
                        -----------------------------------------
Magnitude (a.u.)       :      1.13394
Magnitude (Debye)      :      2.88223

Rotational constants in cm-1:     1.345122     0.153179     0.146499
Rotational constants in MHz : 40325.745613  4592.193709  4391.931873

                             ****ORCA TERMINATED NORMALLY****
TOTAL RUN TIME: 0 days 0 hours 3 minutes 23 seconds 406 msec
