                         Program Version 5.0.3 -  RELEASE  -
|  1> ! B3LYP cc-pVDZ
|  2> !TightSCF
|  3> %scf
|  4>  ConvForced true
|  5>  convergence tight
|  6>  MaxIter 500
|  7> end
|  8>
|  9> %tddft
| 10>  nroots 1
| 11> end
| 12>
| 13> # 	18042
| 14> * xyz 0 1
| 15> 		C   -1.150069  -0.321283  -0.030016
| 16> 		O   -1.214833  -1.500087  -0.107975
| 17> 		C    0.018830   0.485183   0.008605
| 18> 		C    1.209650  -0.055113   0.003281
| 19> 		H   -2.143234   0.319877  -0.025849
| 20> 		H   -0.109221   1.503570   0.041044
| 21> 		H    1.310985  -1.151466  -0.061157
| 22> 		H    2.117303   0.686227   0.126579
| 23> *
| 24>
| 25>                          ****END OF INPUT****

CARTESIAN COORDINATES (ANGSTROEM)
---------------------------------
  C     -1.150069   -0.321283   -0.030016
  O     -1.214833   -1.500087   -0.107975
  C      0.018830    0.485183    0.008605
  C      1.209650   -0.055113    0.003281
  H     -2.143234    0.319877   -0.025849
  H     -0.109221    1.503570    0.041044
  H      1.310985   -1.151466   -0.061157
  H      2.117303    0.686227    0.126579

 Total Charge           Charge          ....    0
 Multiplicity           Mult            ....    1
 Number of Electrons    NEL             ....   30
 Basis Dimension        Dim             ....   76

ORBITAL ENERGIES
----------------

  NO   OCC          E(Eh)            E(eV)
   0   2.0000     -19.137266      -520.7515
   1   2.0000     -10.270752      -279.4814
   2   2.0000     -10.220337      -278.1095
   3   2.0000     -10.191037      -277.3122
   4   2.0000      -1.061623       -28.8882
   5   2.0000      -0.811417       -22.0798
   6   2.0000      -0.658148       -17.9091
   7   2.0000      -0.539331       -14.6759
   8   2.0000      -0.509880       -13.8746
   9   2.0000      -0.453219       -12.3327
  10   2.0000      -0.415858       -11.3161
  11   2.0000      -0.410865       -11.1802
  12   2.0000      -0.387002       -10.5309
  13   2.0000      -0.295618        -8.0442
  14   2.0000      -0.253447        -6.8967
  15   0.0000      -0.068069        -1.8523
  16   0.0000       0.057471         1.5639
  17   0.0000       0.078894         2.1468
  18   0.0000       0.084783         2.3071
  19   0.0000       0.127628         3.4729

MULLIKEN ATOMIC CHARGES
-----------------------
   0 C :    0.150726
   1 O :   -0.166402
   2 C :   -0.041818
   3 C :    0.048717
   4 H :   -0.041542
   5 H :   -0.040819
   6 H :    0.041453
   7 H :    0.049685
Sum of atomic charges:    0.0000000

LOEWDIN ATOMIC CHARGES
----------------------
   0 C :   -0.065061
   1 O :    0.022270
   2 C :   -0.086462
   3 C :    0.033650
   4 H :   -0.012161
   5 H :    0.017741
   6 H :    0.037843
   7 H :    0.052179

  Mayer bond orders larger than 0.100000
B(  0-C ,  1-O ) :   2.2267 B(  0-C ,  2-C ) :   1.0865 B(  0-C ,  4-H ) :   0.8969
B(  2-C ,  3-C ) :   1.9600 B(  2-C ,  5-H ) :   0.9443 B(  3-C ,  6-H ) :   0.9245
B(  3-C ,  7-H ) :   0.9338

-----------------------------------------------------------------------------
         ABSORPTION SPECTRUM VIA TRANSITION ELECTRIC DIPOLE MOMENTS
-----------------------------------------------------------------------------
State   Energy    Wavelength  fosc         T2        TX        TY        TZ
        (cm-1)      (nm)                 (au**2)    (au)      (au)      (au)
-----------------------------------------------------------------------------
   1   28097.9    355.9   0.000251429   0.00295  -0.00551   0.00687  -0.05356

FINAL SINGLE POINT ENERGY      -191.666225344888

DIPOLE MOMENT
-------------
                                X             Y             Z
Electronic contribution:     -1.71840      -1.84563      -0.13386
Nuclear contribution   :      2.24834       2.68504       0.19930
                        -----------------------------------------
Total Dipole Moment    :      0.52994       0.83941       0.06543
                        -----------------------------------------
Magnitude (a.u.)       :      0.99485
Magnitude (Debye)      :      2.52870

Rotational constants in cm-1:     0.810243     0.215636     0.170339
Rotational constants in MHz : 24290.485393  6464.595129  5106.637862

                             ****ORCA TERMINATED NORMALLY****
TOTAL RUN TIME: 0 days 0 hours 3 minutes 25 seconds 731 msec
