                         Program Version 5.0.3 -  RELEASE  -
|  1> ! HF-3c
|  2> !TightSCF
|  3> %scf
|  4>  ConvForced true
|  5>  convergence tight
|  6>  MaxIter 500
|  7> end
|  8>
|  9> %tddft
| 10>  nroots 1
| 11> end
| 12>
| 13> # 	25635
| 14> * xyz 0 1
| 15> 		C   -0.566394  -0.411347  -0.022083
| 16> 		O   -0.580808  -1.670683   0.006099
| 17> 		C    0.639355   0.417199   0.032720
| 18> 		C    1.801051  -0.097498  -0.009851
| 19> 		H   -1.553108   0.201530  -0.019189
| 20> 		H    0.546331   1.490279  -0.050361
| 21> 		H    1.929144  -1.180438   0.020206
| 22> 		H    2.932764   0.359429  -0.062111
| 23> *
| 24>
| 25>                          ****END OF INPUT****

CARTESIAN COORDINATES (ANGSTROEM)
---------------------------------
  C     -0.566394   -0.411347   -0.022083
  O     -0.580808   -1.670683    0.006099
  C      0.639355    0.417199    0.032720
  C      1.801051   -0.097498   -0.009851
  H     -1.553108    0.201530   -0.019189
  H      0.546331    1.490279   -0.050361
  H      1.929144   -1.180438    0.020206
  H      2.932764    0.359429   -0.062111

 Total Charge           Charge          ....    0
 Multiplicity           Mult            ....    1
 Number of Electrons    NEL             ....   30
 Basis Dimension        Dim             ....   24

ORBITAL ENERGIES
----------------

  NO   OCC          E(Eh)            E(eV)
   0   2.0000     -20.348306      -553.7055
   1   2.0000     -11.284773      -307.0743
   2   2.0000     -11.193581      -304.5928
   3   2.0000     -11.192139      -304.5536
   4   2.0000      -1.362701       -37.0810
   5   2.0000      -1.096041       -29.8248
   6   2.0000      -0.883645       -24.0452
   7   2.0000      -0.740747       -20.1567
   8   2.0000      -0.689862       -18.7721
   9   2.0000      -0.616636       -16.7795
  10   2.0000      -0.571469       -15.5505
  11   2.0000      -0.526503       -14.3269
  12   2.0000      -0.500957       -13.6317
  13   2.0000      -0.411611       -11.2005
  14   2.0000      -0.401622       -10.9287
  15   0.0000       0.132374         3.6021
  16   0.0000       0.321666         8.7530
  17   0.0000       0.464405        12.6371
  18   0.0000       0.601503        16.3677
  19   0.0000       0.625244        17.0137

MULLIKEN ATOMIC CHARGES
-----------------------
   0 C :    0.166196
   1 O :   -0.350594
   2 C :   -0.210350
   3 C :   -0.192791
   4 H :    0.137098
   5 H :    0.146989
   6 H :    0.149943
   7 H :    0.153509
Sum of atomic charges:    0.0000000

LOEWDIN ATOMIC CHARGES
----------------------
   0 C :    0.154313
   1 O :   -0.271605
   2 C :   -0.160699
   3 C :   -0.101860
   4 H :    0.079583
   5 H :    0.093936
   6 H :    0.095788
   7 H :    0.110544

  Mayer bond orders larger than 0.100000
B(  0-C ,  1-O ) :   1.9015 B(  0-C ,  2-C ) :   1.0318 B(  0-C ,  4-H ) :   0.9244
B(  2-C ,  3-C ) :   1.9494 B(  2-C ,  5-H ) :   0.9527 B(  3-C ,  6-H ) :   0.9562
B(  3-C ,  7-H ) :   0.9567

-----------------------------------------------------------------------------
         ABSORPTION SPECTRUM VIA TRANSITION ELECTRIC DIPOLE MOMENTS
-----------------------------------------------------------------------------
State   Energy    Wavelength  fosc         T2        TX        TY        TZ
        (cm-1)      (nm)                 (au**2)    (au)      (au)      (au)
-----------------------------------------------------------------------------
   1   30803.3    324.6   0.000075968   0.00081   0.02532  -0.00124  -0.01300

Dispersion correction           -0.025673590
FINAL SINGLE POINT ENERGY      -189.329124901611

DIPOLE MOMENT
-------------
                                X             Y             Z
Electronic contribution:     -2.01916      -1.63846       0.05410
Nuclear contribution   :      2.45892       2.60344      -0.10412
                        -----------------------------------------
Total Dipole Moment    :      0.43976       0.96498      -0.05002
                        -----------------------------------------
Magnitude (a.u.)       :      1.06164
Magnitude (Debye)      :      2.69847

Rotational constants in cm-1:     0.762607     0.208742     0.163972
Rotational constants in MHz : 22862.391390  6257.923380  4915.750348

                             ****ORCA TERMINATED NORMALLY****
TOTAL RUN TIME: 0 days 0 hours 0 minutes 16 seconds 11 msec
