                         Program Version 5.0.3 -  RELEASE  -
|  1> ! B3LYP cc-pVDZ
|  2> !TightSCF
|  3> %scf
|  4>  ConvForced true
|  5>  convergence tight
|  6>  MaxIter 500
|  7> end
|  8>
|  9> %tddft
| 10>  nroots 1
| 11> end
| 12>
| 13> # 	10702
| 14> * xyz 0 1
| 15> 		C   -1.109460  -0.355989  -0.015320
| 16> 		O   -1.216022  -1.505344   0.197458
| 17> 		C    0.042867   0.445347   0.084336
| 18> 		C    1.256552  -0.002994  -0.071935
| 19> 		H   -2.102021   0.384129  -0.274135
| 20> 		H   -0.116966   1.594896   0.252654
| 21> 		H    1.189968  -1.215014  -0.277516
| 22> 		H    2.046561   0.640557   0.101417
| 23> *
| 24>
| 25>                          ****END OF INPUT****

CARTESIAN COORDINATES (ANGSTROEM)
---------------------------------
  C     -1.109460   -0.355989   -0.015320
  O     -1.216022   -1.505344    0.197458
  C      0.042867    0.445347    0.084336
  C      1.256552   -0.002994   -0.071935
  H     -2.102021    0.384129   -0.274135
  H     -0.116966    1.594896    0.252654
  H      1.189968   -1.215014   -0.277516
  H      2.046561    0.640557    0.101417

 Total Charge           Charge          ....    0
 Multiplicity           Mult            ....    1
 Number of Electrons    NEL             ....   30
 Basis Dimension        Dim             ....   76

ORBITAL ENERGIES
----------------

  NO   OCC          E(Eh)            E(eV)
   0   2.0000     -19.148319      -521.0523
   1   2.0000     -10.280727      -279.7528
   2   2.0000     -10.217432      -278.0305
   3   2.0000     -10.203576      -277.6534
   4   2.0000      -1.075274       -29.2597
   5   2.0000      -0.813376       -22.1331
   6   2.0000      -0.663851       -18.0643
   7   2.0000      -0.518260       -14.1026
   8   2.0000      -0.511784       -13.9263
   9   2.0000      -0.452304       -12.3078
  10   2.0000      -0.439608       -11.9623
  11   2.0000      -0.410271       -11.1640
  12   2.0000      -0.365743        -9.9524
  13   2.0000      -0.299221        -8.1422
  14   2.0000      -0.258682        -7.0391
  15   0.0000      -0.066017        -1.7964
  16   0.0000       0.048938         1.3317
  17   0.0000       0.063827         1.7368
  18   0.0000       0.075980         2.0675
  19   0.0000       0.109403         2.9770

MULLIKEN ATOMIC CHARGES
-----------------------
   0 C :    0.137089
   1 O :   -0.148146
   2 C :   -0.116554
   3 C :    0.080111
   4 H :   -0.042476
   5 H :    0.012405
   6 H :    0.064343
   7 H :    0.013230
Sum of atomic charges:    0.0000000

LOEWDIN ATOMIC CHARGES
----------------------
   0 C :   -0.078525
   1 O :    0.043158
   2 C :   -0.098499
   3 C :    0.017658
   4 H :   -0.016358
   5 H :    0.045658
   6 H :    0.067040
   7 H :    0.019868

  Mayer bond orders larger than 0.100000
B(  0-C ,  1-O ) :   2.2298 B(  0-C ,  2-C ) :   1.0752 B(  0-C ,  4-H ) :   0.8718
B(  2-C ,  3-C ) :   1.9718 B(  2-C ,  5-H ) :   0.9314 B(  3-C ,  6-H ) :   0.9131
B(  3-C ,  7-H ) :   0.9283

-----------------------------------------------------------------------------
         ABSORPTION SPECTRUM VIA TRANSITION ELECTRIC DIPOLE MOMENTS
-----------------------------------------------------------------------------
State   Energy    Wavelength  fosc         T2        TX        TY        TZ
        (cm-1)      (nm)                 (au**2)    (au)      (au)      (au)
-----------------------------------------------------------------------------
   1   29779.6    335.8   0.001056745   0.01168   0.09014  -0.00505  -0.05943

FINAL SINGLE POINT ENERGY      -191.635115364596

DIPOLE MOMENT
-------------
                                X             Y             Z
Electronic contribution:     -1.45677      -1.96496       0.29696
Nuclear contribution   :      2.02178       2.74906      -0.37900
                        -----------------------------------------
Total Dipole Moment    :      0.56502       0.78411      -0.08203
                        -----------------------------------------
Magnitude (a.u.)       :      0.96995
Magnitude (Debye)      :      2.46541

Rotational constants in cm-1:     0.827958     0.209571     0.169347
Rotational constants in MHz : 24821.561446  6282.783492  5076.889111

                             ****ORCA TERMINATED NORMALLY****
TOTAL RUN TIME: 0 days 0 hours 3 minutes 27 seconds 714 msec
