                         Program Version 5.0.3 -  RELEASE  -
|  1> ! B3LYP cc-pVDZ
|  2> !TightSCF
|  3> %scf
|  4>  ConvForced true
|  5>  convergence tight
|  6>  MaxIter 500
|  7> end
|  8>
|  9> %tddft
| 10>  nroots 1
| 11> end
| 12>
| 13> # 	9160
| 14> * xyz 0 1
| 15> 		C   -1.208784  -0.323061  -0.002270
| 16> 		O   -1.180361  -1.554474   0.034223
| 17> 		C    0.044193   0.510807   0.024717
| 18> 		C    1.206937   0.002076   0.039046
| 19> 		H   -2.217809   0.317263  -0.081528
| 20> 		H   -0.235073   1.612846   0.111375
| 21> 		H    1.357271  -1.102617  -0.167995
| 22> 		H    2.201568   0.509758   0.031575
| 23> *
| 24>
| 25>                          ****END OF INPUT****

CARTESIAN COORDINATES (ANGSTROEM)
---------------------------------
  C     -1.208784   -0.323061   -0.002270
  O     -1.180361   -1.554474    0.034223
  C      0.044193    0.510807    0.024717
  C      1.206937    0.002076    0.039046
  H     -2.217809    0.317263   -0.081528
  H     -0.235073    1.612846    0.111375
  H      1.357271   -1.102617   -0.167995
  H      2.201568    0.509758    0.031575

 Total Charge           Charge          ....    0
 Multiplicity           Mult            ....    1
 Number of Electrons    NEL             ....   30
 Basis Dimension        Dim             ....   76

ORBITAL ENERGIES
----------------

  NO   OCC          E(Eh)            E(eV)
   0   2.0000     -19.144584      -520.9506
   1   2.0000     -10.286669      -279.9145
   2   2.0000     -10.210502      -277.8419
   3   2.0000     -10.205653      -277.7099
   4   2.0000      -1.037834       -28.2409
   5   2.0000      -0.803482       -21.8638
   6   2.0000      -0.651502       -17.7283
   7   2.0000      -0.533725       -14.5234
   8   2.0000      -0.496654       -13.5146
   9   2.0000      -0.454905       -12.3786
  10   2.0000      -0.424596       -11.5538
  11   2.0000      -0.395440       -10.7605
  12   2.0000      -0.361384        -9.8338
  13   2.0000      -0.298487        -8.1222
  14   2.0000      -0.258898        -7.0450
  15   0.0000      -0.067835        -1.8459
  16   0.0000       0.052722         1.4346
  17   0.0000       0.062184         1.6921
  18   0.0000       0.087367         2.3774
  19   0.0000       0.112434         3.0595

MULLIKEN ATOMIC CHARGES
-----------------------
   0 C :    0.151520
   1 O :   -0.197482
   2 C :   -0.108057
   3 C :    0.069355
   4 H :    0.000236
   5 H :   -0.000408
   6 H :    0.046153
   7 H :    0.038684
Sum of atomic charges:    0.0000000

LOEWDIN ATOMIC CHARGES
----------------------
   0 C :   -0.018198
   1 O :   -0.019793
   2 C :   -0.095245
   3 C :    0.006888
   4 H :    0.004456
   5 H :    0.036572
   6 H :    0.046012
   7 H :    0.039308

  Mayer bond orders larger than 0.100000
B(  0-C ,  1-O ) :   2.1808 B(  0-C ,  2-C ) :   1.0373 B(  0-C ,  4-H ) :   0.8952
B(  2-C ,  3-C ) :   1.9883 B(  2-C ,  5-H ) :   0.9404 B(  3-C ,  6-H ) :   0.9177
B(  3-C ,  7-H ) :   0.9418

-----------------------------------------------------------------------------
         ABSORPTION SPECTRUM VIA TRANSITION ELECTRIC DIPOLE MOMENTS
-----------------------------------------------------------------------------
State   Energy    Wavelength  fosc         T2        TX        TY        TZ
        (cm-1)      (nm)                 (au**2)    (au)      (au)      (au)
-----------------------------------------------------------------------------
   1   28531.8    350.5   0.000193243   0.00223  -0.02635   0.00817  -0.03832

FINAL SINGLE POINT ENERGY      -191.664286786814

DIPOLE MOMENT
-------------
                                X             Y             Z
Electronic contribution:     -1.79313      -1.79652       0.12735
Nuclear contribution   :      2.18008       2.65906      -0.17869
                        -----------------------------------------
Total Dipole Moment    :      0.38695       0.86253      -0.05133
                        -----------------------------------------
Magnitude (a.u.)       :      0.94674
Magnitude (Debye)      :      2.40643

Rotational constants in cm-1:     0.749039     0.209044     0.163644
Rotational constants in MHz : 22455.631784  6266.985111  4905.932906

                             ****ORCA TERMINATED NORMALLY****
TOTAL RUN TIME: 0 days 0 hours 2 minutes 52 seconds 844 msec
