                         Program Version 5.0.3 -  RELEASE  -
|  1> ! B3LYP cc-pVDZ
|  2> !TightSCF
|  3> %scf
|  4>  ConvForced true
|  5>  convergence tight
|  6>  MaxIter 500
|  7> end
|  8>
|  9> %tddft
| 10>  nroots 1
| 11> end
| 12>
| 13> # 	5088
| 14> * xyz 0 1
| 15> 		C   -1.232673  -0.324961  -0.032466
| 16> 		O   -1.460366  -1.276708   0.632473
| 17> 		C    0.038542   0.484014   0.164271
| 18> 		C    1.171873   0.035510  -0.165282
| 19> 		H   -1.864092   0.105416  -0.761356
| 20> 		H   -0.048018   1.382096   0.699350
| 21> 		H    1.195696  -0.898037  -0.549744
| 22> 		H    2.255915   0.476992  -0.017454
| 23> *
| 24>
| 25>                          ****END OF INPUT****

CARTESIAN COORDINATES (ANGSTROEM)
---------------------------------
  C     -1.232673   -0.324961   -0.032466
  O     -1.460366   -1.276708    0.632473
  C      0.038542    0.484014    0.164271
  C      1.171873    0.035510   -0.165282
  H     -1.864092    0.105416   -0.761356
  H     -0.048018    1.382096    0.699350
  H      1.195696   -0.898037   -0.549744
  H      2.255915    0.476992   -0.017454

 Total Charge           Charge          ....    0
 Multiplicity           Mult            ....    1
 Number of Electrons    NEL             ....   30
 Basis Dimension        Dim             ....   76

ORBITAL ENERGIES
----------------

  NO   OCC          E(Eh)            E(eV)
   0   2.0000     -19.148814      -521.0657
   1   2.0000     -10.278256      -279.6856
   2   2.0000     -10.188954      -277.2555
   3   2.0000     -10.186378      -277.1854
   4   2.0000      -1.070008       -29.1164
   5   2.0000      -0.804506       -21.8917
   6   2.0000      -0.651664       -17.7327
   7   2.0000      -0.566058       -15.4032
   8   2.0000      -0.502873       -13.6839
   9   2.0000      -0.458655       -12.4806
  10   2.0000      -0.451803       -12.2942
  11   2.0000      -0.391712       -10.6590
  12   2.0000      -0.374004       -10.1772
  13   2.0000      -0.295691        -8.0462
  14   2.0000      -0.255358        -6.9487
  15   0.0000      -0.031094        -0.8461
  16   0.0000       0.014321         0.3897
  17   0.0000       0.077410         2.1064
  18   0.0000       0.104825         2.8524
  19   0.0000       0.115129         3.1328

MULLIKEN ATOMIC CHARGES
-----------------------
   0 C :    0.192582
   1 O :   -0.157551
   2 C :   -0.086200
   3 C :    0.060768
   4 H :   -0.018622
   5 H :   -0.011445
   6 H :   -0.016172
   7 H :    0.036640
Sum of atomic charges:   -0.0000000

LOEWDIN ATOMIC CHARGES
----------------------
   0 C :   -0.014743
   1 O :    0.042186
   2 C :   -0.061386
   3 C :   -0.027299
   4 H :   -0.014298
   5 H :    0.024153
   6 H :    0.005551
   7 H :    0.045836

  Mayer bond orders larger than 0.100000
B(  0-C ,  1-O ) :   2.2635 B(  0-C ,  2-C ) :   0.9675 B(  0-C ,  4-H ) :   0.9165
B(  2-C ,  3-C ) :   2.0642 B(  2-C ,  5-H ) :   0.9369 B(  3-C ,  6-H ) :   0.9269
B(  3-C ,  7-H ) :   0.9472

-----------------------------------------------------------------------------
         ABSORPTION SPECTRUM VIA TRANSITION ELECTRIC DIPOLE MOMENTS
-----------------------------------------------------------------------------
State   Energy    Wavelength  fosc         T2        TX        TY        TZ
        (cm-1)      (nm)                 (au**2)    (au)      (au)      (au)
-----------------------------------------------------------------------------
   1   33966.8    294.4   0.000056658   0.00055   0.02272   0.00552  -0.00159

FINAL SINGLE POINT ENERGY      -191.618117317117

DIPOLE MOMENT
-------------
                                X             Y             Z
Electronic contribution:     -2.63855      -1.46768       0.80494
Nuclear contribution   :      2.90649       2.12500      -1.19130
                        -----------------------------------------
Total Dipole Moment    :      0.26794       0.65733      -0.38636
                        -----------------------------------------
Magnitude (a.u.)       :      0.80817
Magnitude (Debye)      :      2.05421

Rotational constants in cm-1:     0.931777     0.184642     0.166793
Rotational constants in MHz : 27933.959451  5535.422448  5000.326447

                             ****ORCA TERMINATED NORMALLY****
TOTAL RUN TIME: 0 days 0 hours 3 minutes 21 seconds 941 msec
