                         Program Version 5.0.3 -  RELEASE  -
|  1> ! B3LYP cc-pVDZ
|  2> !TightSCF
|  3> %scf
|  4>  ConvForced true
|  5>  convergence tight
|  6>  MaxIter 500
|  7> end
|  8>
|  9> %tddft
| 10>  nroots 1
| 11> end
| 12>
| 13> # 	7405
| 14> * xyz 0 1
| 15> 		C   -1.222301  -0.401836   0.015792
| 16> 		O   -1.385460  -1.462320  -0.447822
| 17> 		C    0.085273   0.392987  -0.143108
| 18> 		C    1.300361   0.056833   0.099029
| 19> 		H   -2.049994   0.234013   0.692404
| 20> 		H   -0.147199   1.403308  -0.650466
| 21> 		H    1.388828  -0.892891   0.537486
| 22> 		H    2.074969   0.710848  -0.051571
| 23> *
| 24>
| 25>                          ****END OF INPUT****

CARTESIAN COORDINATES (ANGSTROEM)
---------------------------------
  C     -1.222301   -0.401836    0.015792
  O     -1.385460   -1.462320   -0.447822
  C      0.085273    0.392987   -0.143108
  C      1.300361    0.056833    0.099029
  H     -2.049994    0.234013    0.692404
  H     -0.147199    1.403308   -0.650466
  H      1.388828   -0.892891    0.537486
  H      2.074969    0.710848   -0.051571

 Total Charge           Charge          ....    0
 Multiplicity           Mult            ....    1
 Number of Electrons    NEL             ....   30
 Basis Dimension        Dim             ....   76

ORBITAL ENERGIES
----------------

  NO   OCC          E(Eh)            E(eV)
   0   2.0000     -19.154778      -521.2280
   1   2.0000     -10.293360      -280.0966
   2   2.0000     -10.203859      -277.6611
   3   2.0000     -10.189292      -277.2647
   4   2.0000      -1.081837       -29.4383
   5   2.0000      -0.800474       -21.7820
   6   2.0000      -0.647751       -17.6262
   7   2.0000      -0.533615       -14.5204
   8   2.0000      -0.504395       -13.7253
   9   2.0000      -0.457801       -12.4574
  10   2.0000      -0.454109       -12.3569
  11   2.0000      -0.411410       -11.1950
  12   2.0000      -0.372797       -10.1443
  13   2.0000      -0.295722        -8.0470
  14   2.0000      -0.257771        -7.0143
  15   0.0000      -0.039034        -1.0622
  16   0.0000       0.024168         0.6576
  17   0.0000       0.068491         1.8637
  18   0.0000       0.085453         2.3253
  19   0.0000       0.107394         2.9224

MULLIKEN ATOMIC CHARGES
-----------------------
   0 C :    0.123280
   1 O :   -0.129490
   2 C :   -0.166055
   3 C :    0.163117
   4 H :   -0.010602
   5 H :    0.015139
   6 H :    0.001717
   7 H :    0.002894
Sum of atomic charges:   -0.0000000

LOEWDIN ATOMIC CHARGES
----------------------
   0 C :   -0.053742
   1 O :    0.053664
   2 C :   -0.070977
   3 C :   -0.009168
   4 H :   -0.005710
   5 H :    0.039280
   6 H :    0.025927
   7 H :    0.020725

  Mayer bond orders larger than 0.100000
B(  0-C ,  1-O ) :   2.2784 B(  0-C ,  2-C ) :   0.9605 B(  0-C ,  4-H ) :   0.8683
B(  2-C ,  3-C ) :   2.0679 B(  2-C ,  5-H ) :   0.9223 B(  3-C ,  6-H ) :   0.9246
B(  3-C ,  7-H ) :   0.9258

-----------------------------------------------------------------------------
         ABSORPTION SPECTRUM VIA TRANSITION ELECTRIC DIPOLE MOMENTS
-----------------------------------------------------------------------------
State   Energy    Wavelength  fosc         T2        TX        TY        TZ
        (cm-1)      (nm)                 (au**2)    (au)      (au)      (au)
-----------------------------------------------------------------------------
   1   34177.4    292.6   0.000116388   0.00112  -0.01447  -0.01773  -0.02444

FINAL SINGLE POINT ENERGY      -191.624055088161

DIPOLE MOMENT
-------------
                                X             Y             Z
Electronic contribution:     -2.05938      -2.09095      -0.71410
Nuclear contribution   :      2.43973       2.77856       0.95714
                        -----------------------------------------
Total Dipole Moment    :      0.38035       0.68761       0.24304
                        -----------------------------------------
Magnitude (a.u.)       :      0.82252
Magnitude (Debye)      :      2.09067

Rotational constants in cm-1:     0.917682     0.178010     0.156533
Rotational constants in MHz : 27511.409582  5336.596561  4692.756208

                             ****ORCA TERMINATED NORMALLY****
TOTAL RUN TIME: 0 days 0 hours 3 minutes 21 seconds 435 msec
