                         Program Version 5.0.3 -  RELEASE  -
|  1> ! B3LYP cc-pVDZ
|  2> !TightSCF
|  3> %scf
|  4>  ConvForced true
|  5>  convergence tight
|  6>  MaxIter 500
|  7> end
|  8>
|  9> %tddft
| 10>  nroots 1
| 11> end
| 12>
| 13> # 	29323
| 14> * xyz 0 1
| 15> 		C   -0.579547  -0.411018  -0.002462
| 16> 		O   -0.556137  -1.623996   0.011868
| 17> 		C    0.592865   0.391307   0.004522
| 18> 		C    1.854993  -0.120583  -0.014450
| 19> 		H   -1.476891   0.198744  -0.158962
| 20> 		H    0.405537   1.524201   0.116034
| 21> 		H    1.839039  -1.464158  -0.053562
| 22> 		H    2.748206   0.451434   0.067660
| 23> *
| 24>
| 25>                          ****END OF INPUT****

CARTESIAN COORDINATES (ANGSTROEM)
---------------------------------
  C     -0.579547   -0.411018   -0.002462
  O     -0.556137   -1.623996    0.011868
  C      0.592865    0.391307    0.004522
  C      1.854993   -0.120583   -0.014450
  H     -1.476891    0.198744   -0.158962
  H      0.405537    1.524201    0.116034
  H      1.839039   -1.464158   -0.053562
  H      2.748206    0.451434    0.067660

 Total Charge           Charge          ....    0
 Multiplicity           Mult            ....    1
 Number of Electrons    NEL             ....   30
 Basis Dimension        Dim             ....   76

ORBITAL ENERGIES
----------------

  NO   OCC          E(Eh)            E(eV)
   0   2.0000     -19.137148      -520.7483
   1   2.0000     -10.269112      -279.4367
   2   2.0000     -10.233510      -278.4680
   3   2.0000     -10.207272      -277.7540
   4   2.0000      -1.045028       -28.4367
   5   2.0000      -0.791096       -21.5268
   6   2.0000      -0.665311       -18.1040
   7   2.0000      -0.534635       -14.5482
   8   2.0000      -0.496582       -13.5127
   9   2.0000      -0.442866       -12.0510
  10   2.0000      -0.427864       -11.6428
  11   2.0000      -0.399210       -10.8631
  12   2.0000      -0.352888        -9.6026
  13   2.0000      -0.284084        -7.7303
  14   2.0000      -0.258363        -7.0304
  15   0.0000      -0.077367        -2.1053
  16   0.0000       0.047089         1.2814
  17   0.0000       0.066050         1.7973
  18   0.0000       0.070337         1.9140
  19   0.0000       0.120527         3.2797

MULLIKEN ATOMIC CHARGES
-----------------------
   0 C :    0.205607
   1 O :   -0.198549
   2 C :   -0.123176
   3 C :    0.011124
   4 H :   -0.023311
   5 H :    0.006063
   6 H :    0.087157
   7 H :    0.035085
Sum of atomic charges:    0.0000000

LOEWDIN ATOMIC CHARGES
----------------------
   0 C :   -0.050062
   1 O :   -0.003297
   2 C :   -0.098685
   3 C :    0.019278
   4 H :   -0.002622
   5 H :    0.037656
   6 H :    0.075849
   7 H :    0.021884

  Mayer bond orders larger than 0.100000
B(  0-C ,  1-O ) :   2.1685 B(  0-C ,  2-C ) :   1.1056 B(  0-C ,  4-H ) :   0.9170
B(  1-O ,  3-C ) :   0.1093 B(  2-C ,  3-C ) :   1.9220 B(  2-C ,  5-H ) :   0.9376
B(  3-C ,  6-H ) :   0.9077 B(  3-C ,  7-H ) :   0.9382

-----------------------------------------------------------------------------
         ABSORPTION SPECTRUM VIA TRANSITION ELECTRIC DIPOLE MOMENTS
-----------------------------------------------------------------------------
State   Energy    Wavelength  fosc         T2        TX        TY        TZ
        (cm-1)      (nm)                 (au**2)    (au)      (au)      (au)
-----------------------------------------------------------------------------
   1   26885.1    372.0   0.000180040   0.00220   0.01134  -0.00447   0.04534

FINAL SINGLE POINT ENERGY      -191.653390505217

DIPOLE MOMENT
-------------
                                X             Y             Z
Electronic contribution:     -1.74605      -1.54980       0.04126
Nuclear contribution   :      2.14208       2.45343      -0.02768
                        -----------------------------------------
Total Dipole Moment    :      0.39603       0.90364       0.01358
                        -----------------------------------------
Magnitude (a.u.)       :      0.98670
Magnitude (Debye)      :      2.50799

Rotational constants in cm-1:     0.732923     0.216553     0.167333
Rotational constants in MHz : 21972.476323  6492.083764  5016.530696

                             ****ORCA TERMINATED NORMALLY****
TOTAL RUN TIME: 0 days 0 hours 3 minutes 21 seconds 381 msec
