                         Program Version 5.0.3 -  RELEASE  -
|  1> ! B3LYP cc-pVDZ
|  2> !TightSCF
|  3> %scf
|  4>  ConvForced true
|  5>  convergence tight
|  6>  MaxIter 500
|  7> end
|  8>
|  9> %tddft
| 10>  nroots 1
| 11> end
| 12>
| 13> # 	2753
| 14> * xyz 0 1
| 15> 		C   -1.142100  -0.347999  -0.009911
| 16> 		O   -2.007588  -0.624072  -0.790284
| 17> 		C    0.014512   0.407599  -0.338504
| 18> 		C    1.210410   0.057467   0.205852
| 19> 		H   -1.195854  -0.657641   0.945808
| 20> 		H   -0.145985   1.165832  -1.149958
| 21> 		H    1.204618  -0.611074   1.046960
| 22> 		H    2.116533   0.601903   0.081303
| 23> *
| 24>
| 25>                          ****END OF INPUT****

CARTESIAN COORDINATES (ANGSTROEM)
---------------------------------
  C     -1.142100   -0.347999   -0.009911
  O     -2.007588   -0.624072   -0.790284
  C      0.014512    0.407599   -0.338504
  C      1.210410    0.057467    0.205852
  H     -1.195854   -0.657641    0.945808
  H     -0.145985    1.165832   -1.149958
  H      1.204618   -0.611074    1.046960
  H      2.116533    0.601903    0.081303

 Total Charge           Charge          ....    0
 Multiplicity           Mult            ....    1
 Number of Electrons    NEL             ....   30
 Basis Dimension        Dim             ....   76

ORBITAL ENERGIES
----------------

  NO   OCC          E(Eh)            E(eV)
   0   2.0000     -19.132528      -520.6225
   1   2.0000     -10.258318      -279.1430
   2   2.0000     -10.215684      -277.9829
   3   2.0000     -10.208786      -277.7952
   4   2.0000      -1.051349       -28.6087
   5   2.0000      -0.806137       -21.9361
   6   2.0000      -0.660045       -17.9607
   7   2.0000      -0.582820       -15.8593
   8   2.0000      -0.482046       -13.1171
   9   2.0000      -0.476174       -12.9573
  10   2.0000      -0.430966       -11.7272
  11   2.0000      -0.399256       -10.8643
  12   2.0000      -0.381758       -10.3882
  13   2.0000      -0.289371        -7.8742
  14   2.0000      -0.253522        -6.8987
  15   0.0000      -0.064521        -1.7557
  16   0.0000       0.035913         0.9772
  17   0.0000       0.080230         2.1832
  18   0.0000       0.089058         2.4234
  19   0.0000       0.129734         3.5302

MULLIKEN ATOMIC CHARGES
-----------------------
   0 C :    0.225401
   1 O :   -0.193953
   2 C :   -0.094118
   3 C :    0.054572
   4 H :   -0.060301
   5 H :    0.015560
   6 H :    0.021247
   7 H :    0.031592
Sum of atomic charges:   -0.0000000

LOEWDIN ATOMIC CHARGES
----------------------
   0 C :   -0.047576
   1 O :    0.015252
   2 C :   -0.043912
   3 C :    0.006268
   4 H :   -0.022637
   5 H :    0.040724
   6 H :    0.025896
   7 H :    0.025987

  Mayer bond orders larger than 0.100000
B(  0-C ,  1-O ) :   2.1841 B(  0-C ,  2-C ) :   1.0934 B(  0-C ,  4-H ) :   0.9355
B(  2-C ,  3-C ) :   1.9330 B(  2-C ,  5-H ) :   0.9429 B(  3-C ,  6-H ) :   0.9440
B(  3-C ,  7-H ) :   0.9509

-----------------------------------------------------------------------------
         ABSORPTION SPECTRUM VIA TRANSITION ELECTRIC DIPOLE MOMENTS
-----------------------------------------------------------------------------
State   Energy    Wavelength  fosc         T2        TX        TY        TZ
        (cm-1)      (nm)                 (au**2)    (au)      (au)      (au)
-----------------------------------------------------------------------------
   1   28845.8    346.7   0.000773025   0.00882   0.09212   0.01406   0.01179

FINAL SINGLE POINT ENERGY      -191.659163224881

DIPOLE MOMENT
-------------
                                X             Y             Z
Electronic contribution:     -2.88530      -0.66499      -1.18329
Nuclear contribution   :      3.78475       1.00161       1.75742
                        -----------------------------------------
Total Dipole Moment    :      0.89945       0.33661       0.57413
                        -----------------------------------------
Magnitude (a.u.)       :      1.11891
Magnitude (Debye)      :      2.84404

Rotational constants in cm-1:     1.431078     0.162914     0.151752
Rotational constants in MHz : 42902.647109  4884.031524  4549.417659

                             ****ORCA TERMINATED NORMALLY****
TOTAL RUN TIME: 0 days 0 hours 3 minutes 20 seconds 666 msec
