                         Program Version 5.0.3 -  RELEASE  -
|  1> ! B3LYP cc-pVDZ
|  2> !TightSCF
|  3> %scf
|  4>  ConvForced true
|  5>  convergence tight
|  6>  MaxIter 500
|  7> end
|  8>
|  9> %tddft
| 10>  nroots 1
| 11> end
| 12>
| 13> # 	11871
| 14> * xyz 0 1
| 15> 		C   -1.228337  -0.335234  -0.026354
| 16> 		O   -1.743656  -0.948918  -0.875029
| 17> 		C   -0.060362   0.517438  -0.251339
| 18> 		C    1.177402   0.061514   0.193722
| 19> 		H   -1.363657  -0.430393   0.929322
| 20> 		H   -0.138561   1.576073  -0.750038
| 21> 		H    1.188826  -1.016509   0.709197
| 22> 		H    2.192390   0.585532   0.029169
| 23> *
| 24>
| 25>                          ****END OF INPUT****

CARTESIAN COORDINATES (ANGSTROEM)
---------------------------------
  C     -1.228337   -0.335234   -0.026354
  O     -1.743656   -0.948918   -0.875029
  C     -0.060362    0.517438   -0.251339
  C      1.177402    0.061514    0.193722
  H     -1.363657   -0.430393    0.929322
  H     -0.138561    1.576073   -0.750038
  H      1.188826   -1.016509    0.709197
  H      2.192390    0.585532    0.029169

 Total Charge           Charge          ....    0
 Multiplicity           Mult            ....    1
 Number of Electrons    NEL             ....   30
 Basis Dimension        Dim             ....   76

ORBITAL ENERGIES
----------------

  NO   OCC          E(Eh)            E(eV)
   0   2.0000     -19.144032      -520.9356
   1   2.0000     -10.266520      -279.3662
   2   2.0000     -10.224658      -278.2271
   3   2.0000     -10.212420      -277.8941
   4   2.0000      -1.076926       -29.3046
   5   2.0000      -0.786213       -21.3939
   6   2.0000      -0.652578       -17.7575
   7   2.0000      -0.568349       -15.4656
   8   2.0000      -0.484453       -13.1826
   9   2.0000      -0.464472       -12.6389
  10   2.0000      -0.439782       -11.9671
  11   2.0000      -0.394140       -10.7251
  12   2.0000      -0.371700       -10.1145
  13   2.0000      -0.275052        -7.4845
  14   2.0000      -0.258298        -7.0287
  15   0.0000      -0.041719        -1.1352
  16   0.0000      -0.003301        -0.0898
  17   0.0000       0.071474         1.9449
  18   0.0000       0.080482         2.1900
  19   0.0000       0.122076         3.3219

MULLIKEN ATOMIC CHARGES
-----------------------
   0 C :    0.260125
   1 O :   -0.152860
   2 C :   -0.128072
   3 C :   -0.068779
   4 H :   -0.052520
   5 H :    0.040021
   6 H :    0.044234
   7 H :    0.057851
Sum of atomic charges:   -0.0000000

LOEWDIN ATOMIC CHARGES
----------------------
   0 C :   -0.047119
   1 O :    0.062042
   2 C :   -0.061057
   3 C :   -0.054077
   4 H :   -0.030259
   5 H :    0.047757
   6 H :    0.040630
   7 H :    0.042082

  Mayer bond orders larger than 0.100000
B(  0-C ,  1-O ) :   2.2732 B(  0-C ,  2-C ) :   0.9882 B(  0-C ,  4-H ) :   0.9296
B(  2-C ,  3-C ) :   1.9907 B(  2-C ,  5-H ) :   0.9358 B(  3-C ,  6-H ) :   0.9412
B(  3-C ,  7-H ) :   0.9465

-----------------------------------------------------------------------------
         ABSORPTION SPECTRUM VIA TRANSITION ELECTRIC DIPOLE MOMENTS
-----------------------------------------------------------------------------
State   Energy    Wavelength  fosc         T2        TX        TY        TZ
        (cm-1)      (nm)                 (au**2)    (au)      (au)      (au)
-----------------------------------------------------------------------------
   1   33509.9    298.4   0.000201181   0.00198   0.02012   0.03188   0.02356

FINAL SINGLE POINT ENERGY      -191.607036428997

DIPOLE MOMENT
-------------
                                X             Y             Z
Electronic contribution:     -3.08954      -0.94596      -1.24351
Nuclear contribution   :      3.57426       1.43157       1.79436
                        -----------------------------------------
Total Dipole Moment    :      0.48472       0.48561       0.55085
                        -----------------------------------------
Magnitude (a.u.)       :      0.87989
Magnitude (Debye)      :      2.23651

Rotational constants in cm-1:     1.026437     0.168000     0.160534
Rotational constants in MHz : 30771.806845  5036.515195  4812.683283

                             ****ORCA TERMINATED NORMALLY****
TOTAL RUN TIME: 0 days 0 hours 3 minutes 19 seconds 572 msec
