                         Program Version 5.0.3 -  RELEASE  -
|  1> ! B3LYP cc-pVDZ
|  2> !TightSCF
|  3> %scf
|  4>  ConvForced true
|  5>  convergence tight
|  6>  MaxIter 500
|  7> end
|  8>
|  9> %tddft
| 10>  nroots 1
| 11> end
| 12>
| 13> # 	25610
| 14> * xyz 0 1
| 15> 		C   -0.529361  -0.409318  -0.015347
| 16> 		O   -0.591886  -1.642225   0.008380
| 17> 		C    0.605312   0.419393   0.022212
| 18> 		C    1.845157  -0.135573  -0.007283
| 19> 		H   -1.433157   0.000672  -0.044632
| 20> 		H    0.448999   1.574914  -0.036185
| 21> 		H    1.809480  -1.314760  -0.066227
| 22> 		H    2.664503   0.529507   0.020383
| 23> *
| 24>
| 25>                          ****END OF INPUT****

CARTESIAN COORDINATES (ANGSTROEM)
---------------------------------
  C     -0.529361   -0.409318   -0.015347
  O     -0.591886   -1.642225    0.008380
  C      0.605312    0.419393    0.022212
  C      1.845157   -0.135573   -0.007283
  H     -1.433157    0.000672   -0.044632
  H      0.448999    1.574914   -0.036185
  H      1.809480   -1.314760   -0.066227
  H      2.664503    0.529507    0.020383

 Total Charge           Charge          ....    0
 Multiplicity           Mult            ....    1
 Number of Electrons    NEL             ....   30
 Basis Dimension        Dim             ....   76

ORBITAL ENERGIES
----------------

  NO   OCC          E(Eh)            E(eV)
   0   2.0000     -19.127679      -520.4906
   1   2.0000     -10.254092      -279.0280
   2   2.0000     -10.224198      -278.2146
   3   2.0000     -10.209658      -277.8189
   4   2.0000      -1.028206       -27.9789
   5   2.0000      -0.801176       -21.8011
   6   2.0000      -0.671456       -18.2712
   7   2.0000      -0.546519       -14.8716
   8   2.0000      -0.511210       -13.9107
   9   2.0000      -0.436162       -11.8686
  10   2.0000      -0.423959       -11.5365
  11   2.0000      -0.392814       -10.6890
  12   2.0000      -0.376299       -10.2396
  13   2.0000      -0.285162        -7.7596
  14   2.0000      -0.249905        -6.8003
  15   0.0000      -0.078512        -2.1364
  16   0.0000       0.060414         1.6439
  17   0.0000       0.068835         1.8731
  18   0.0000       0.082982         2.2581
  19   0.0000       0.131099         3.5674

MULLIKEN ATOMIC CHARGES
-----------------------
   0 C :    0.259974
   1 O :   -0.230672
   2 C :   -0.162427
   3 C :    0.081299
   4 H :   -0.060274
   5 H :    0.015558
   6 H :    0.072038
   7 H :    0.024503
Sum of atomic charges:   -0.0000000

LOEWDIN ATOMIC CHARGES
----------------------
   0 C :   -0.029769
   1 O :   -0.032379
   2 C :   -0.088235
   3 C :    0.041413
   4 H :   -0.020142
   5 H :    0.045040
   6 H :    0.061026
   7 H :    0.023045

  Mayer bond orders larger than 0.100000
B(  0-C ,  1-O ) :   2.1287 B(  0-C ,  2-C ) :   1.1204 B(  0-C ,  4-H ) :   0.9460
B(  1-O ,  3-C ) :   0.1119 B(  2-C ,  3-C ) :   1.9207 B(  2-C ,  5-H ) :   0.9408
B(  3-C ,  6-H ) :   0.9157 B(  3-C ,  7-H ) :   0.9366

-----------------------------------------------------------------------------
         ABSORPTION SPECTRUM VIA TRANSITION ELECTRIC DIPOLE MOMENTS
-----------------------------------------------------------------------------
State   Energy    Wavelength  fosc         T2        TX        TY        TZ
        (cm-1)      (nm)                 (au**2)    (au)      (au)      (au)
-----------------------------------------------------------------------------
   1   24829.9    402.7   0.000116877   0.00155   0.00967   0.00709  -0.03749

FINAL SINGLE POINT ENERGY      -191.667551703683

DIPOLE MOMENT
-------------
                                X             Y             Z
Electronic contribution:     -1.64009      -1.54769       0.07897
Nuclear contribution   :      2.11468       2.53055      -0.11880
                        -----------------------------------------
Total Dipole Moment    :      0.47459       0.98287      -0.03983
                        -----------------------------------------
Magnitude (a.u.)       :      1.09218
Magnitude (Debye)      :      2.77609

Rotational constants in cm-1:     0.770487     0.213513     0.167246
Rotational constants in MHz : 23098.632102  6400.950731  5013.900435

                             ****ORCA TERMINATED NORMALLY****
TOTAL RUN TIME: 0 days 0 hours 3 minutes 25 seconds 399 msec
