                         Program Version 5.0.3 -  RELEASE  -
|  1> ! B3LYP cc-pVDZ
|  2> !TightSCF
|  3> %scf
|  4>  ConvForced true
|  5>  convergence tight
|  6>  MaxIter 500
|  7> end
|  8>
|  9> %tddft
| 10>  nroots 1
| 11> end
| 12>
| 13> # 	564
| 14> * xyz 0 1
| 15> 		C   -1.239035  -0.320453  -0.028699
| 16> 		O   -1.400536  -1.419612  -0.487607
| 17> 		C    0.042072   0.531876  -0.201256
| 18> 		C    1.232216   0.070837   0.076097
| 19> 		H   -2.040498   0.018568   0.772867
| 20> 		H   -0.150099   1.423613  -0.642545
| 21> 		H    1.308044  -0.911487   0.405760
| 22> 		H    2.248544   0.623555   0.072907
| 23> *
| 24>
| 25>                          ****END OF INPUT****

CARTESIAN COORDINATES (ANGSTROEM)
---------------------------------
  C     -1.239035   -0.320453   -0.028699
  O     -1.400536   -1.419612   -0.487607
  C      0.042072    0.531876   -0.201256
  C      1.232216    0.070837    0.076097
  H     -2.040498    0.018568    0.772867
  H     -0.150099    1.423613   -0.642545
  H      1.308044   -0.911487    0.405760
  H      2.248544    0.623555    0.072907

 Total Charge           Charge          ....    0
 Multiplicity           Mult            ....    1
 Number of Electrons    NEL             ....   30
 Basis Dimension        Dim             ....   76

ORBITAL ENERGIES
----------------

  NO   OCC          E(Eh)            E(eV)
   0   2.0000     -19.146366      -520.9991
   1   2.0000     -10.287614      -279.9402
   2   2.0000     -10.205383      -277.7026
   3   2.0000     -10.201601      -277.5997
   4   2.0000      -1.056505       -28.7490
   5   2.0000      -0.797435       -21.6993
   6   2.0000      -0.643595       -17.5131
   7   2.0000      -0.555542       -15.1171
   8   2.0000      -0.494679       -13.4609
   9   2.0000      -0.458233       -12.4692
  10   2.0000      -0.443686       -12.0733
  11   2.0000      -0.388990       -10.5850
  12   2.0000      -0.381019       -10.3680
  13   2.0000      -0.293444        -7.9850
  14   2.0000      -0.252903        -6.8819
  15   0.0000      -0.042175        -1.1476
  16   0.0000       0.006378         0.1736
  17   0.0000       0.077501         2.1089
  18   0.0000       0.089716         2.4413
  19   0.0000       0.111879         3.0444

MULLIKEN ATOMIC CHARGES
-----------------------
   0 C :    0.121276
   1 O :   -0.167828
   2 C :   -0.043991
   3 C :    0.056326
   4 H :    0.001974
   5 H :   -0.022575
   6 H :    0.008168
   7 H :    0.046652
Sum of atomic charges:    0.0000000

LOEWDIN ATOMIC CHARGES
----------------------
   0 C :   -0.023069
   1 O :    0.012133
   2 C :   -0.054270
   3 C :   -0.008904
   4 H :    0.000889
   5 H :    0.009499
   6 H :    0.017163
   7 H :    0.046557

  Mayer bond orders larger than 0.100000
B(  0-C ,  1-O ) :   2.2320 B(  0-C ,  2-C ) :   0.9533 B(  0-C ,  4-H ) :   0.8994
B(  2-C ,  3-C ) :   2.0312 B(  2-C ,  5-H ) :   0.9497 B(  3-C ,  6-H ) :   0.9314
B(  3-C ,  7-H ) :   0.9502

-----------------------------------------------------------------------------
         ABSORPTION SPECTRUM VIA TRANSITION ELECTRIC DIPOLE MOMENTS
-----------------------------------------------------------------------------
State   Energy    Wavelength  fosc         T2        TX        TY        TZ
        (cm-1)      (nm)                 (au**2)    (au)      (au)      (au)
-----------------------------------------------------------------------------
   1   31961.2    312.9   0.000719815   0.00741  -0.07286  -0.02178   0.04039

FINAL SINGLE POINT ENERGY      -191.637070572914

DIPOLE MOMENT
-------------
                                X             Y             Z
Electronic contribution:     -2.26449      -1.52763      -0.88857
Nuclear contribution   :      2.64560       2.28215       1.17130
                        -----------------------------------------
Total Dipole Moment    :      0.38112       0.75453       0.28273
                        -----------------------------------------
Magnitude (a.u.)       :      0.89135
Magnitude (Debye)      :      2.26563

Rotational constants in cm-1:     0.861961     0.180715     0.157387
Rotational constants in MHz : 25840.946288  5417.686066  4718.356612

                             ****ORCA TERMINATED NORMALLY****
TOTAL RUN TIME: 0 days 0 hours 3 minutes 7 seconds 478 msec
