                         Program Version 5.0.3 -  RELEASE  -
|  1> ! HF-3c
|  2> !TightSCF
|  3> %scf
|  4>  ConvForced true
|  5>  convergence tight
|  6>  MaxIter 500
|  7> end
|  8>
|  9> %tddft
| 10>  nroots 1
| 11> end
| 12>
| 13> # 	3357
| 14> * xyz 0 1
| 15> 		C   -1.251225  -0.414479  -0.070359
| 16> 		O   -2.031438  -0.543712  -0.962361
| 17> 		C    0.072791   0.339499  -0.307453
| 18> 		C    1.210005   0.132380   0.274063
| 19> 		H   -1.328261  -0.689882   1.137006
| 20> 		H    0.059139   1.159879  -1.188660
| 21> 		H    1.268991  -0.528921   1.051587
| 22> 		H    2.006668   0.618947   0.018488
| 23> *
| 24>
| 25>                          ****END OF INPUT****

CARTESIAN COORDINATES (ANGSTROEM)
---------------------------------
  C     -1.251225   -0.414479   -0.070359
  O     -2.031438   -0.543712   -0.962361
  C      0.072791    0.339499   -0.307453
  C      1.210005    0.132380    0.274063
  H     -1.328261   -0.689882    1.137006
  H      0.059139    1.159879   -1.188660
  H      1.268991   -0.528921    1.051587
  H      2.006668    0.618947    0.018488

 Total Charge           Charge          ....    0
 Multiplicity           Mult            ....    1
 Number of Electrons    NEL             ....   30
 Basis Dimension        Dim             ....   24

ORBITAL ENERGIES
----------------

  NO   OCC          E(Eh)            E(eV)
   0   2.0000     -20.390260      -554.8472
   1   2.0000     -11.310225      -307.7669
   2   2.0000     -11.190127      -304.4988
   3   2.0000     -11.184762      -304.3528
   4   2.0000      -1.425050       -38.7776
   5   2.0000      -1.090104       -29.6632
   6   2.0000      -0.878008       -23.8918
   7   2.0000      -0.755151       -20.5487
   8   2.0000      -0.671493       -18.2722
   9   2.0000      -0.666096       -18.1254
  10   2.0000      -0.599492       -16.3130
  11   2.0000      -0.555298       -15.1104
  12   2.0000      -0.519595       -14.1389
  13   2.0000      -0.415433       -11.3045
  14   2.0000      -0.400669       -10.9027
  15   0.0000       0.149006         4.0547
  16   0.0000       0.290912         7.9161
  17   0.0000       0.477201        12.9853
  18   0.0000       0.542714        14.7680
  19   0.0000       0.577935        15.7264

MULLIKEN ATOMIC CHARGES
-----------------------
   0 C :    0.197772
   1 O :   -0.351344
   2 C :   -0.129703
   3 C :   -0.297034
   4 H :    0.142883
   5 H :    0.151404
   6 H :    0.140314
   7 H :    0.145709
Sum of atomic charges:    0.0000000

LOEWDIN ATOMIC CHARGES
----------------------
   0 C :    0.159939
   1 O :   -0.246124
   2 C :   -0.094322
   3 C :   -0.188337
   4 H :    0.088857
   5 H :    0.106155
   6 H :    0.087053
   7 H :    0.086779

  Mayer bond orders larger than 0.100000
B(  0-C ,  1-O ) :   1.9502 B(  0-C ,  2-C ) :   0.9779 B(  0-C ,  4-H ) :   0.8967
B(  2-C ,  3-C ) :   1.9867 B(  2-C ,  5-H ) :   0.9479 B(  3-C ,  6-H ) :   0.9631
B(  3-C ,  7-H ) :   0.9645

-----------------------------------------------------------------------------
         ABSORPTION SPECTRUM VIA TRANSITION ELECTRIC DIPOLE MOMENTS
-----------------------------------------------------------------------------
State   Energy    Wavelength  fosc         T2        TX        TY        TZ
        (cm-1)      (nm)                 (au**2)    (au)      (au)      (au)
-----------------------------------------------------------------------------
   1   34752.6    287.7   0.000162715   0.00154  -0.03182  -0.01989   0.01156

Dispersion correction           -0.025108030
FINAL SINGLE POINT ENERGY      -189.293856969739

DIPOLE MOMENT
-------------
                                X             Y             Z
Electronic contribution:     -3.25848      -0.83908      -1.31792
Nuclear contribution   :      3.87510       1.01766       1.99064
                        -----------------------------------------
Total Dipole Moment    :      0.61662       0.17857       0.67272
                        -----------------------------------------
Magnitude (a.u.)       :      0.92988
Magnitude (Debye)      :      2.36356

Rotational constants in cm-1:     1.414099     0.153705     0.142155
Rotational constants in MHz : 42393.624578  4607.963077  4261.688811

                             ****ORCA TERMINATED NORMALLY****
TOTAL RUN TIME: 0 days 0 hours 0 minutes 11 seconds 954 msec
