                         Program Version 5.0.3 -  RELEASE  -
|  1> ! HF-3c
|  2> !TightSCF
|  3> %scf
|  4>  ConvForced true
|  5>  convergence tight
|  6>  MaxIter 500
|  7> end
|  8>
|  9> %tddft
| 10>  nroots 1
| 11> end
| 12>
| 13> # 	4387
| 14> * xyz 0 1
| 15> 		C   -1.151919  -0.343582   0.019020
| 16> 		O   -1.542104  -1.312606   0.751060
| 17> 		C   -0.016430   0.396558   0.193212
| 18> 		C    1.191045  -0.026609  -0.080940
| 19> 		H   -1.800355  -0.065922  -0.830630
| 20> 		H   -0.113264   1.480623   0.568985
| 21> 		H    1.430667  -0.920693  -0.592839
| 22> 		H    2.002671   0.797828  -0.009021
| 23> *
| 24>
| 25>                          ****END OF INPUT****

CARTESIAN COORDINATES (ANGSTROEM)
---------------------------------
  C     -1.151919   -0.343582    0.019020
  O     -1.542104   -1.312606    0.751060
  C     -0.016430    0.396558    0.193212
  C      1.191045   -0.026609   -0.080940
  H     -1.800355   -0.065922   -0.830630
  H     -0.113264    1.480623    0.568985
  H      1.430667   -0.920693   -0.592839
  H      2.002671    0.797828   -0.009021

 Total Charge           Charge          ....    0
 Multiplicity           Mult            ....    1
 Number of Electrons    NEL             ....   30
 Basis Dimension        Dim             ....   24

ORBITAL ENERGIES
----------------

  NO   OCC          E(Eh)            E(eV)
   0   2.0000     -20.352312      -553.8146
   1   2.0000     -11.286336      -307.1168
   2   2.0000     -11.199696      -304.7592
   3   2.0000     -11.187741      -304.4339
   4   2.0000      -1.358170       -36.9577
   5   2.0000      -1.104061       -30.0430
   6   2.0000      -0.910153       -24.7665
   7   2.0000      -0.750462       -20.4211
   8   2.0000      -0.694364       -18.8946
   9   2.0000      -0.622020       -16.9260
  10   2.0000      -0.600856       -16.3501
  11   2.0000      -0.533960       -14.5298
  12   2.0000      -0.467976       -12.7343
  13   2.0000      -0.420392       -11.4394
  14   2.0000      -0.404002       -10.9935
  15   0.0000       0.159083         4.3289
  16   0.0000       0.222274         6.0484
  17   0.0000       0.549190        14.9442
  18   0.0000       0.631231        17.1767
  19   0.0000       0.648487        17.6462

MULLIKEN ATOMIC CHARGES
-----------------------
   0 C :    0.136212
   1 O :   -0.326896
   2 C :   -0.181748
   3 C :   -0.222289
   4 H :    0.142766
   5 H :    0.161647
   6 H :    0.145883
   7 H :    0.144425
Sum of atomic charges:    0.0000000

LOEWDIN ATOMIC CHARGES
----------------------
   0 C :    0.137611
   1 O :   -0.254368
   2 C :   -0.133571
   3 C :   -0.135063
   4 H :    0.080653
   5 H :    0.113106
   6 H :    0.092081
   7 H :    0.099550

  Mayer bond orders larger than 0.100000
B(  0-C ,  1-O ) :   1.9109 B(  0-C ,  2-C ) :   1.0549 B(  0-C ,  4-H ) :   0.9221
B(  2-C ,  3-C ) :   1.9656 B(  2-C ,  5-H ) :   0.9314 B(  3-C ,  6-H ) :   0.9648
B(  3-C ,  7-H ) :   0.9605

-----------------------------------------------------------------------------
         ABSORPTION SPECTRUM VIA TRANSITION ELECTRIC DIPOLE MOMENTS
-----------------------------------------------------------------------------
State   Energy    Wavelength  fosc         T2        TX        TY        TZ
        (cm-1)      (nm)                 (au**2)    (au)      (au)      (au)
-----------------------------------------------------------------------------
   1   30273.2    330.3   0.000023930   0.00026   0.01391   0.00805   0.00140

Dispersion correction           -0.025598362
FINAL SINGLE POINT ENERGY      -189.314371976529

DIPOLE MOMENT
-------------
                                X             Y             Z
Electronic contribution:     -2.42061      -1.61242       1.04186
Nuclear contribution   :      2.93966       2.49499      -1.65398
                        -----------------------------------------
Total Dipole Moment    :      0.51906       0.88258      -0.61212
                        -----------------------------------------
Magnitude (a.u.)       :      1.19292
Magnitude (Debye)      :      3.03215

Rotational constants in cm-1:     0.942138     0.180508     0.164051
Rotational constants in MHz : 28244.597723  5411.488018  4918.116582

                             ****ORCA TERMINATED NORMALLY****
TOTAL RUN TIME: 0 days 0 hours 0 minutes 11 seconds 774 msec
