                         Program Version 5.0.3 -  RELEASE  -
|  1> ! B3LYP cc-pVDZ
|  2> !TightSCF
|  3> %scf
|  4>  ConvForced true
|  5>  convergence tight
|  6>  MaxIter 500
|  7> end
|  8>
|  9> %tddft
| 10>  nroots 1
| 11> end
| 12>
| 13> # 	8378
| 14> * xyz 0 1
| 15> 		C   -1.164938  -0.379768  -0.089910
| 16> 		O   -2.091024  -0.438037  -0.822970
| 17> 		C   -0.047480   0.458704  -0.276723
| 18> 		C    1.105405   0.191611   0.330337
| 19> 		H   -0.911933  -1.117137   0.800697
| 20> 		H   -0.136578   1.395189  -1.058017
| 21> 		H    1.201393  -0.792811   1.085718
| 22> 		H    1.967709   0.685737   0.055055
| 23> *
| 24>
| 25>                          ****END OF INPUT****

CARTESIAN COORDINATES (ANGSTROEM)
---------------------------------
  C     -1.164938   -0.379768   -0.089910
  O     -2.091024   -0.438037   -0.822970
  C     -0.047480    0.458704   -0.276723
  C      1.105405    0.191611    0.330337
  H     -0.911933   -1.117137    0.800697
  H     -0.136578    1.395189   -1.058017
  H      1.201393   -0.792811    1.085718
  H      1.967709    0.685737    0.055055

 Total Charge           Charge          ....    0
 Multiplicity           Mult            ....    1
 Number of Electrons    NEL             ....   30
 Basis Dimension        Dim             ....   76

ORBITAL ENERGIES
----------------

  NO   OCC          E(Eh)            E(eV)
   0   2.0000     -19.140282      -520.8336
   1   2.0000     -10.273910      -279.5673
   2   2.0000     -10.226841      -278.2865
   3   2.0000     -10.213612      -277.9265
   4   2.0000      -1.064040       -28.9540
   5   2.0000      -0.812038       -22.0967
   6   2.0000      -0.654392       -17.8069
   7   2.0000      -0.548408       -14.9229
   8   2.0000      -0.482699       -13.1349
   9   2.0000      -0.461369       -12.5545
  10   2.0000      -0.422804       -11.5051
  11   2.0000      -0.411487       -11.1971
  12   2.0000      -0.374751       -10.1975
  13   2.0000      -0.297173        -8.0865
  14   2.0000      -0.257512        -7.0072
  15   0.0000      -0.064200        -1.7470
  16   0.0000       0.041613         1.1323
  17   0.0000       0.054040         1.4705
  18   0.0000       0.077034         2.0962
  19   0.0000       0.117664         3.2018

MULLIKEN ATOMIC CHARGES
-----------------------
   0 C :    0.167004
   1 O :   -0.166743
   2 C :   -0.111190
   3 C :    0.033205
   4 H :   -0.039339
   5 H :    0.035111
   6 H :    0.060443
   7 H :    0.021508
Sum of atomic charges:    0.0000000

LOEWDIN ATOMIC CHARGES
----------------------
   0 C :   -0.083970
   1 O :    0.032355
   2 C :   -0.073320
   3 C :    0.006152
   4 H :   -0.008830
   5 H :    0.055583
   6 H :    0.056413
   7 H :    0.015617

  Mayer bond orders larger than 0.100000
B(  0-C ,  1-O ) :   2.1959 B(  0-C ,  2-C ) :   1.1013 B(  0-C ,  4-H ) :   0.8907
B(  1-O ,  3-C ) :   0.1053 B(  2-C ,  3-C ) :   1.9160 B(  2-C ,  5-H ) :   0.9280
B(  3-C ,  6-H ) :   0.9267 B(  3-C ,  7-H ) :   0.9334

-----------------------------------------------------------------------------
         ABSORPTION SPECTRUM VIA TRANSITION ELECTRIC DIPOLE MOMENTS
-----------------------------------------------------------------------------
State   Energy    Wavelength  fosc         T2        TX        TY        TZ
        (cm-1)      (nm)                 (au**2)    (au)      (au)      (au)
-----------------------------------------------------------------------------
   1   29891.4    334.5   0.000181917   0.00200   0.04093  -0.01188  -0.01370

FINAL SINGLE POINT ENERGY      -191.644867588515

DIPOLE MOMENT
-------------
                                X             Y             Z
Electronic contribution:     -3.13925      -0.17632      -1.26133
Nuclear contribution   :      4.14942       0.39493       1.67092
                        -----------------------------------------
Total Dipole Moment    :      1.01017       0.21860       0.40959
                        -----------------------------------------
Magnitude (a.u.)       :      1.11175
Magnitude (Debye)      :      2.82585

Rotational constants in cm-1:     1.440890     0.164853     0.149581
Rotational constants in MHz : 43196.793527  4942.157136  4484.321172

                             ****ORCA TERMINATED NORMALLY****
TOTAL RUN TIME: 0 days 0 hours 3 minutes 23 seconds 208 msec
