                         Program Version 5.0.3 -  RELEASE  -
|  1> ! B3LYP cc-pVDZ
|  2> !TightSCF
|  3> %scf
|  4>  ConvForced true
|  5>  convergence tight
|  6>  MaxIter 500
|  7> end
|  8>
|  9> %tddft
| 10>  nroots 1
| 11> end
| 12>
| 13> # 	5903
| 14> * xyz 0 1
| 15> 		C   -1.153115  -0.350027   0.057220
| 16> 		O   -1.247525  -1.491148   0.277502
| 17> 		C    0.028468   0.546174   0.022040
| 18> 		C    1.258789  -0.039603  -0.119882
| 19> 		H   -2.236510   0.118043  -0.165085
| 20> 		H   -0.043055   1.704374   0.124928
| 21> 		H    1.220270  -1.141669  -0.123755
| 22> 		H    2.175536   0.679830  -0.122304
| 23> *
| 24>
| 25>                          ****END OF INPUT****

CARTESIAN COORDINATES (ANGSTROEM)
---------------------------------
  C     -1.153115   -0.350027    0.057220
  O     -1.247525   -1.491148    0.277502
  C      0.028468    0.546174    0.022040
  C      1.258789   -0.039603   -0.119882
  H     -2.236510    0.118043   -0.165085
  H     -0.043055    1.704374    0.124928
  H      1.220270   -1.141669   -0.123755
  H      2.175536    0.679830   -0.122304

 Total Charge           Charge          ....    0
 Multiplicity           Mult            ....    1
 Number of Electrons    NEL             ....   30
 Basis Dimension        Dim             ....   76

ORBITAL ENERGIES
----------------

  NO   OCC          E(Eh)            E(eV)
   0   2.0000     -19.140707      -520.8451
   1   2.0000     -10.279375      -279.7160
   2   2.0000     -10.226372      -278.2737
   3   2.0000     -10.217822      -278.0411
   4   2.0000      -1.075022       -29.2528
   5   2.0000      -0.791675       -21.5426
   6   2.0000      -0.640499       -17.4289
   7   2.0000      -0.526790       -14.3347
   8   2.0000      -0.508584       -13.8393
   9   2.0000      -0.447288       -12.1713
  10   2.0000      -0.424004       -11.5377
  11   2.0000      -0.406759       -11.0685
  12   2.0000      -0.387331       -10.5398
  13   2.0000      -0.289150        -7.8682
  14   2.0000      -0.249537        -6.7902
  15   0.0000      -0.065273        -1.7762
  16   0.0000       0.044278         1.2049
  17   0.0000       0.064256         1.7485
  18   0.0000       0.085277         2.3205
  19   0.0000       0.107610         2.9282

MULLIKEN ATOMIC CHARGES
-----------------------
   0 C :    0.152046
   1 O :   -0.147259
   2 C :   -0.136687
   3 C :    0.038972
   4 H :   -0.037521
   5 H :    0.027060
   6 H :    0.046177
   7 H :    0.057212
Sum of atomic charges:    0.0000000

LOEWDIN ATOMIC CHARGES
----------------------
   0 C :   -0.074182
   1 O :    0.037156
   2 C :   -0.090988
   3 C :    0.010881
   4 H :   -0.015284
   5 H :    0.045594
   6 H :    0.035980
   7 H :    0.050843

  Mayer bond orders larger than 0.100000
B(  0-C ,  1-O ) :   2.2343 B(  0-C ,  2-C ) :   1.0085 B(  0-C ,  4-H ) :   0.9029
B(  2-C ,  3-C ) :   1.9470 B(  2-C ,  5-H ) :   0.9445 B(  3-C ,  6-H ) :   0.9271
B(  3-C ,  7-H ) :   0.9405

-----------------------------------------------------------------------------
         ABSORPTION SPECTRUM VIA TRANSITION ELECTRIC DIPOLE MOMENTS
-----------------------------------------------------------------------------
State   Energy    Wavelength  fosc         T2        TX        TY        TZ
        (cm-1)      (nm)                 (au**2)    (au)      (au)      (au)
-----------------------------------------------------------------------------
   1   28343.9    352.8   0.000578343   0.00672  -0.06531   0.00311   0.04943

FINAL SINGLE POINT ENERGY      -191.657365481270

DIPOLE MOMENT
-------------
                                X             Y             Z
Electronic contribution:     -1.65264      -1.84667       0.39113
Nuclear contribution   :      2.18615       2.63907      -0.51059
                        -----------------------------------------
Total Dipole Moment    :      0.53351       0.79240      -0.11947
                        -----------------------------------------
Magnitude (a.u.)       :      0.96271
Magnitude (Debye)      :      2.44701

Rotational constants in cm-1:     0.793390     0.200389     0.161067
Rotational constants in MHz : 23785.248764  6007.510336  4828.655591

                             ****ORCA TERMINATED NORMALLY****
TOTAL RUN TIME: 0 days 0 hours 3 minutes 22 seconds 849 msec
