                         Program Version 5.0.3 -  RELEASE  -
|  1> ! HF-3c
|  2> !TightSCF
|  3> %scf
|  4>  ConvForced true
|  5>  convergence tight
|  6>  MaxIter 500
|  7> end
|  8>
|  9> %tddft
| 10>  nroots 1
| 11> end
| 12>
| 13> # 	23328
| 14> * xyz 0 1
| 15> 		C   -0.594984  -0.398597  -0.017570
| 16> 		O   -0.570694  -1.637241   0.015508
| 17> 		C    0.630679   0.376471   0.039006
| 18> 		C    1.862924  -0.103395  -0.026363
| 19> 		H   -1.649553   0.078879  -0.206221
| 20> 		H    0.423793   1.531741   0.042383
| 21> 		H    1.961171  -1.216040  -0.029816
| 22> 		H    2.638935   0.350031   0.012500
| 23> *
| 24>
| 25>                          ****END OF INPUT****

CARTESIAN COORDINATES (ANGSTROEM)
---------------------------------
  C     -0.594984   -0.398597   -0.017570
  O     -0.570694   -1.637241    0.015508
  C      0.630679    0.376471    0.039006
  C      1.862924   -0.103395   -0.026363
  H     -1.649553    0.078879   -0.206221
  H      0.423793    1.531741    0.042383
  H      1.961171   -1.216040   -0.029816
  H      2.638935    0.350031    0.012500

 Total Charge           Charge          ....    0
 Multiplicity           Mult            ....    1
 Number of Electrons    NEL             ....   30
 Basis Dimension        Dim             ....   24

ORBITAL ENERGIES
----------------

  NO   OCC          E(Eh)            E(eV)
   0   2.0000     -20.354752      -553.8810
   1   2.0000     -11.288459      -307.1746
   2   2.0000     -11.201825      -304.8172
   3   2.0000     -11.199272      -304.7477
   4   2.0000      -1.382354       -37.6158
   5   2.0000      -1.087167       -29.5833
   6   2.0000      -0.910045       -24.7636
   7   2.0000      -0.754670       -20.5356
   8   2.0000      -0.693973       -18.8840
   9   2.0000      -0.638248       -17.3676
  10   2.0000      -0.595408       -16.2019
  11   2.0000      -0.533168       -14.5082
  12   2.0000      -0.510024       -13.8785
  13   2.0000      -0.417068       -11.3490
  14   2.0000      -0.396499       -10.7893
  15   0.0000       0.119820         3.2605
  16   0.0000       0.309273         8.4157
  17   0.0000       0.492931        13.4133
  18   0.0000       0.587239        15.9796
  19   0.0000       0.649243        17.6668

MULLIKEN ATOMIC CHARGES
-----------------------
   0 C :    0.149551
   1 O :   -0.345455
   2 C :   -0.145138
   3 C :   -0.256496
   4 H :    0.145653
   5 H :    0.142592
   6 H :    0.168111
   7 H :    0.141183
Sum of atomic charges:    0.0000000

LOEWDIN ATOMIC CHARGES
----------------------
   0 C :    0.132438
   1 O :   -0.259868
   2 C :   -0.103400
   3 C :   -0.146623
   4 H :    0.088086
   5 H :    0.096457
   6 H :    0.115533
   7 H :    0.077376

  Mayer bond orders larger than 0.100000
B(  0-C ,  1-O ) :   1.8915 B(  0-C ,  2-C ) :   1.0456 B(  0-C ,  4-H ) :   0.9251
B(  2-C ,  3-C ) :   1.9440 B(  2-C ,  5-H ) :   0.9533 B(  3-C ,  6-H ) :   0.9529
B(  3-C ,  7-H ) :   0.9708

-----------------------------------------------------------------------------
         ABSORPTION SPECTRUM VIA TRANSITION ELECTRIC DIPOLE MOMENTS
-----------------------------------------------------------------------------
State   Energy    Wavelength  fosc         T2        TX        TY        TZ
        (cm-1)      (nm)                 (au**2)    (au)      (au)      (au)
-----------------------------------------------------------------------------
   1   29688.3    336.8   0.000015130   0.00017   0.00036  -0.00307   0.01258

Dispersion correction           -0.025694366
FINAL SINGLE POINT ENERGY      -189.304877070291

DIPOLE MOMENT
-------------
                                X             Y             Z
Electronic contribution:     -1.89332      -1.57645       0.11656
Nuclear contribution   :      2.00985       2.48549      -0.17015
                        -----------------------------------------
Total Dipole Moment    :      0.11653       0.90904      -0.05359
                        -----------------------------------------
Magnitude (a.u.)       :      0.91804
Magnitude (Debye)      :      2.33348

Rotational constants in cm-1:     0.757021     0.210484     0.164950
Rotational constants in MHz : 22694.926078  6310.139221  4945.066655

                             ****ORCA TERMINATED NORMALLY****
TOTAL RUN TIME: 0 days 0 hours 0 minutes 10 seconds 546 msec
