                         Program Version 5.0.3 -  RELEASE  -
|  1> ! HF-3c
|  2> !TightSCF
|  3> %scf
|  4>  ConvForced true
|  5>  convergence tight
|  6>  MaxIter 500
|  7> end
|  8>
|  9> %tddft
| 10>  nroots 1
| 11> end
| 12>
| 13> # 	13180
| 14> * xyz 0 1
| 15> 		C   -1.168590  -0.334056  -0.012642
| 16> 		O   -1.098027  -1.513982   0.005885
| 17> 		C    0.028671   0.514135   0.035920
| 18> 		C    1.244457  -0.084456   0.022399
| 19> 		H   -2.274559   0.368779  -0.166904
| 20> 		H   -0.269843   1.593885   0.159336
| 21> 		H    1.427717  -1.062108   0.225992
| 22> 		H    2.084827   0.534050  -0.232557
| 23> *
| 24>
| 25>                          ****END OF INPUT****

CARTESIAN COORDINATES (ANGSTROEM)
---------------------------------
  C     -1.168590   -0.334056   -0.012642
  O     -1.098027   -1.513982    0.005885
  C      0.028671    0.514135    0.035920
  C      1.244457   -0.084456    0.022399
  H     -2.274559    0.368779   -0.166904
  H     -0.269843    1.593885    0.159336
  H      1.427717   -1.062108    0.225992
  H      2.084827    0.534050   -0.232557

 Total Charge           Charge          ....    0
 Multiplicity           Mult            ....    1
 Number of Electrons    NEL             ....   30
 Basis Dimension        Dim             ....   24

ORBITAL ENERGIES
----------------

  NO   OCC          E(Eh)            E(eV)
   0   2.0000     -20.363058      -554.1070
   1   2.0000     -11.290878      -307.2404
   2   2.0000     -11.193206      -304.5826
   3   2.0000     -11.185181      -304.3642
   4   2.0000      -1.416727       -38.5511
   5   2.0000      -1.072300       -29.1788
   6   2.0000      -0.887385       -24.1470
   7   2.0000      -0.721676       -19.6378
   8   2.0000      -0.688924       -18.7466
   9   2.0000      -0.626461       -17.0469
  10   2.0000      -0.582189       -15.8422
  11   2.0000      -0.557020       -15.1573
  12   2.0000      -0.532811       -14.4985
  13   2.0000      -0.391775       -10.6607
  14   2.0000      -0.378555       -10.3010
  15   0.0000       0.129373         3.5204
  16   0.0000       0.307993         8.3809
  17   0.0000       0.442666        12.0455
  18   0.0000       0.585486        15.9319
  19   0.0000       0.667730        18.1698

MULLIKEN ATOMIC CHARGES
-----------------------
   0 C :    0.196004
   1 O :   -0.372226
   2 C :   -0.165021
   3 C :   -0.230070
   4 H :    0.118887
   5 H :    0.145133
   6 H :    0.161013
   7 H :    0.146281
Sum of atomic charges:    0.0000000

LOEWDIN ATOMIC CHARGES
----------------------
   0 C :    0.149017
   1 O :   -0.266443
   2 C :   -0.125047
   3 C :   -0.122181
   4 H :    0.072905
   5 H :    0.096355
   6 H :    0.100355
   7 H :    0.095040

  Mayer bond orders larger than 0.100000
B(  0-C ,  1-O ) :   1.9121 B(  0-C ,  2-C ) :   1.0233 B(  0-C ,  4-H ) :   0.8922
B(  2-C ,  3-C ) :   1.9388 B(  2-C ,  5-H ) :   0.9610 B(  3-C ,  6-H ) :   0.9624
B(  3-C ,  7-H ) :   0.9658

-----------------------------------------------------------------------------
         ABSORPTION SPECTRUM VIA TRANSITION ELECTRIC DIPOLE MOMENTS
-----------------------------------------------------------------------------
State   Energy    Wavelength  fosc         T2        TX        TY        TZ
        (cm-1)      (nm)                 (au**2)    (au)      (au)      (au)
-----------------------------------------------------------------------------
   1   33417.4    299.2   0.000018139   0.00018   0.00522   0.00301   0.01193

Dispersion correction           -0.025832937
FINAL SINGLE POINT ENERGY      -189.294955014093

DIPOLE MOMENT
-------------
                                X             Y             Z
Electronic contribution:     -1.71341      -1.78273       0.03891
Nuclear contribution   :      1.92262       2.77689      -0.05541
                        -----------------------------------------
Total Dipole Moment    :      0.20920       0.99416      -0.01650
                        -----------------------------------------
Magnitude (a.u.)       :      1.01607
Magnitude (Debye)      :      2.58264

Rotational constants in cm-1:     0.707150     0.223610     0.170461
Rotational constants in MHz : 21199.833863  6703.656240  5110.304863

                             ****ORCA TERMINATED NORMALLY****
TOTAL RUN TIME: 0 days 0 hours 0 minutes 13 seconds 239 msec
