                         Program Version 5.0.3 -  RELEASE  -
|  1> ! HF-3c
|  2> !TightSCF
|  3> %scf
|  4>  ConvForced true
|  5>  convergence tight
|  6>  MaxIter 500
|  7> end
|  8>
|  9> %tddft
| 10>  nroots 1
| 11> end
| 12>
| 13> # 	27676
| 14> * xyz 0 1
| 15> 		C   -0.535038  -0.440157  -0.025436
| 16> 		O   -0.626177  -1.661258   0.013147
| 17> 		C    0.607076   0.426431   0.029993
| 18> 		C    1.866285  -0.081803  -0.022910
| 19> 		H   -1.551163  -0.062881  -0.043083
| 20> 		H    0.572992   1.576670  -0.002360
| 21> 		H    2.014520  -1.254194  -0.006705
| 22> 		H    2.806077   0.470456   0.066719
| 23> *
| 24>
| 25>                          ****END OF INPUT****

CARTESIAN COORDINATES (ANGSTROEM)
---------------------------------
  C     -0.535038   -0.440157   -0.025436
  O     -0.626177   -1.661258    0.013147
  C      0.607076    0.426431    0.029993
  C      1.866285   -0.081803   -0.022910
  H     -1.551163   -0.062881   -0.043083
  H      0.572992    1.576670   -0.002360
  H      2.014520   -1.254194   -0.006705
  H      2.806077    0.470456    0.066719

 Total Charge           Charge          ....    0
 Multiplicity           Mult            ....    1
 Number of Electrons    NEL             ....   30
 Basis Dimension        Dim             ....   24

ORBITAL ENERGIES
----------------

  NO   OCC          E(Eh)            E(eV)
   0   2.0000     -20.345172      -553.6203
   1   2.0000     -11.286557      -307.1228
   2   2.0000     -11.194128      -304.6077
   3   2.0000     -11.190367      -304.5054
   4   2.0000      -1.385170       -37.6924
   5   2.0000      -1.072918       -29.1956
   6   2.0000      -0.886198       -24.1147
   7   2.0000      -0.743348       -20.2275
   8   2.0000      -0.696168       -18.9437
   9   2.0000      -0.608045       -16.5457
  10   2.0000      -0.578595       -15.7444
  11   2.0000      -0.534380       -14.5412
  12   2.0000      -0.507470       -13.8090
  13   2.0000      -0.407983       -11.1018
  14   2.0000      -0.383552       -10.4370
  15   0.0000       0.122728         3.3396
  16   0.0000       0.316097         8.6014
  17   0.0000       0.515155        14.0181
  18   0.0000       0.565550        15.3894
  19   0.0000       0.600124        16.3302

MULLIKEN ATOMIC CHARGES
-----------------------
   0 C :    0.138417
   1 O :   -0.354175
   2 C :   -0.189357
   3 C :   -0.186904
   4 H :    0.139544
   5 H :    0.153126
   6 H :    0.155394
   7 H :    0.143955
Sum of atomic charges:    0.0000000

LOEWDIN ATOMIC CHARGES
----------------------
   0 C :    0.131061
   1 O :   -0.268675
   2 C :   -0.150366
   3 C :   -0.092780
   4 H :    0.074025
   5 H :    0.105243
   6 H :    0.108315
   7 H :    0.093177

  Mayer bond orders larger than 0.100000
B(  0-C ,  1-O ) :   1.8777 B(  0-C ,  2-C ) :   1.0611 B(  0-C ,  4-H ) :   0.9368
B(  2-C ,  3-C ) :   1.9135 B(  2-C ,  5-H ) :   0.9533 B(  3-C ,  6-H ) :   0.9573
B(  3-C ,  7-H ) :   0.9660

-----------------------------------------------------------------------------
         ABSORPTION SPECTRUM VIA TRANSITION ELECTRIC DIPOLE MOMENTS
-----------------------------------------------------------------------------
State   Energy    Wavelength  fosc         T2        TX        TY        TZ
        (cm-1)      (nm)                 (au**2)    (au)      (au)      (au)
-----------------------------------------------------------------------------
   1   30098.3    332.2   0.000083435   0.00091   0.02349   0.00310  -0.01874

Dispersion correction           -0.025243190
FINAL SINGLE POINT ENERGY      -189.330610301183

DIPOLE MOMENT
-------------
                                X             Y             Z
Electronic contribution:     -1.90069      -1.54223      -0.03350
Nuclear contribution   :      2.44406       2.47407       0.01356
                        -----------------------------------------
Total Dipole Moment    :      0.54338       0.93184      -0.01995
                        -----------------------------------------
Magnitude (a.u.)       :      1.07888
Magnitude (Debye)      :      2.74230

Rotational constants in cm-1:     0.789490     0.199961     0.159653
Rotational constants in MHz : 23668.317097  5994.670275  4786.275755

                             ****ORCA TERMINATED NORMALLY****
TOTAL RUN TIME: 0 days 0 hours 0 minutes 13 seconds 476 msec
