                         Program Version 5.0.3 -  RELEASE  -
|  1> ! HF-3c
|  2> !TightSCF
|  3> %scf
|  4>  ConvForced true
|  5>  convergence tight
|  6>  MaxIter 500
|  7> end
|  8>
|  9> %tddft
| 10>  nroots 1
| 11> end
| 12>
| 13> # 	21786
| 14> * xyz 0 1
| 15> 		C   -0.586591  -0.471244  -0.042471
| 16> 		O   -0.575788  -1.640276   0.007734
| 17> 		C    0.617858   0.486989   0.027030
| 18> 		C    1.865622  -0.161462  -0.015294
| 19> 		H   -1.688277   0.011685   0.149337
| 20> 		H    0.579096   1.614420  -0.003164
| 21> 		H    1.883747  -1.100068   0.147464
| 22> 		H    2.740538   0.473283  -0.057384
| 23> *
| 24>
| 25>                          ****END OF INPUT****

CARTESIAN COORDINATES (ANGSTROEM)
---------------------------------
  C     -0.586591   -0.471244   -0.042471
  O     -0.575788   -1.640276    0.007734
  C      0.617858    0.486989    0.027030
  C      1.865622   -0.161462   -0.015294
  H     -1.688277    0.011685    0.149337
  H      0.579096    1.614420   -0.003164
  H      1.883747   -1.100068    0.147464
  H      2.740538    0.473283   -0.057384

 Total Charge           Charge          ....    0
 Multiplicity           Mult            ....    1
 Number of Electrons    NEL             ....   30
 Basis Dimension        Dim             ....   24

ORBITAL ENERGIES
----------------

  NO   OCC          E(Eh)            E(eV)
   0   2.0000     -20.375896      -554.4563
   1   2.0000     -11.302381      -307.5534
   2   2.0000     -11.188222      -304.4470
   3   2.0000     -11.186294      -304.3945
   4   2.0000      -1.431466       -38.9522
   5   2.0000      -1.060306       -28.8524
   6   2.0000      -0.871714       -23.7205
   7   2.0000      -0.743505       -20.2318
   8   2.0000      -0.703244       -19.1362
   9   2.0000      -0.617553       -16.8045
  10   2.0000      -0.583929       -15.8895
  11   2.0000      -0.555879       -15.1262
  12   2.0000      -0.551493       -15.0069
  13   2.0000      -0.394594       -10.7374
  14   2.0000      -0.380646       -10.3579
  15   0.0000       0.128344         3.4924
  16   0.0000       0.291548         7.9334
  17   0.0000       0.506298        13.7771
  18   0.0000       0.540257        14.7011
  19   0.0000       0.658247        17.9118

MULLIKEN ATOMIC CHARGES
-----------------------
   0 C :    0.191021
   1 O :   -0.367837
   2 C :   -0.150787
   3 C :   -0.245058
   4 H :    0.122521
   5 H :    0.148954
   6 H :    0.152626
   7 H :    0.148561
Sum of atomic charges:   -0.0000000

LOEWDIN ATOMIC CHARGES
----------------------
   0 C :    0.149846
   1 O :   -0.257618
   2 C :   -0.113084
   3 C :   -0.133300
   4 H :    0.067631
   5 H :    0.099829
   6 H :    0.088596
   7 H :    0.098101

  Mayer bond orders larger than 0.100000
B(  0-C ,  1-O ) :   1.9253 B(  0-C ,  2-C ) :   0.9947 B(  0-C ,  4-H ) :   0.9085
B(  2-C ,  3-C ) :   1.9449 B(  2-C ,  5-H ) :   0.9618 B(  3-C ,  6-H ) :   0.9676
B(  3-C ,  7-H ) :   0.9677

-----------------------------------------------------------------------------
         ABSORPTION SPECTRUM VIA TRANSITION ELECTRIC DIPOLE MOMENTS
-----------------------------------------------------------------------------
State   Energy    Wavelength  fosc         T2        TX        TY        TZ
        (cm-1)      (nm)                 (au**2)    (au)      (au)      (au)
-----------------------------------------------------------------------------
   1   33907.4    294.9   0.000681671   0.00662  -0.07751  -0.01369   0.02056

Dispersion correction           -0.025311923
FINAL SINGLE POINT ENERGY      -189.291619933049

DIPOLE MOMENT
-------------
                                X             Y             Z
Electronic contribution:     -1.87227      -1.72167      -0.20817
Nuclear contribution   :      2.13916       2.72671       0.22225
                        -----------------------------------------
Total Dipole Moment    :      0.26689       1.00504       0.01408
                        -----------------------------------------
Magnitude (a.u.)       :      1.03997
Magnitude (Debye)      :      2.64339

Rotational constants in cm-1:     0.734085     0.205284     0.160673
Rotational constants in MHz : 22007.313415  6154.252836  4816.842470

                             ****ORCA TERMINATED NORMALLY****
TOTAL RUN TIME: 0 days 0 hours 0 minutes 15 seconds 277 msec
