                         Program Version 5.0.3 -  RELEASE  -
|  1> ! HF-3c
|  2> !TightSCF
|  3> %scf
|  4>  ConvForced true
|  5>  convergence tight
|  6>  MaxIter 500
|  7> end
|  8>
|  9> %tddft
| 10>  nroots 1
| 11> end
| 12>
| 13> # 	25532
| 14> * xyz 0 1
| 15> 		C   -0.606961  -0.418190   0.021564
| 16> 		O   -0.527790  -1.602491  -0.008468
| 17> 		C    0.618585   0.416928   0.000262
| 18> 		C    1.805864  -0.170265  -0.017254
| 19> 		H   -1.668198   0.109412  -0.019792
| 20> 		H    0.416196   1.603767  -0.083660
| 21> 		H    2.085174  -1.197480   0.058380
| 22> 		H    2.821644   0.259451   0.127487
| 23> *
| 24>
| 25>                          ****END OF INPUT****

CARTESIAN COORDINATES (ANGSTROEM)
---------------------------------
  C     -0.606961   -0.418190    0.021564
  O     -0.527790   -1.602491   -0.008468
  C      0.618585    0.416928    0.000262
  C      1.805864   -0.170265   -0.017254
  H     -1.668198    0.109412   -0.019792
  H      0.416196    1.603767   -0.083660
  H      2.085174   -1.197480    0.058380
  H      2.821644    0.259451    0.127487

 Total Charge           Charge          ....    0
 Multiplicity           Mult            ....    1
 Number of Electrons    NEL             ....   30
 Basis Dimension        Dim             ....   24

ORBITAL ENERGIES
----------------

  NO   OCC          E(Eh)            E(eV)
   0   2.0000     -20.362966      -554.1045
   1   2.0000     -11.294306      -307.3337
   2   2.0000     -11.188536      -304.4555
   3   2.0000     -11.183903      -304.3295
   4   2.0000      -1.415380       -38.5144
   5   2.0000      -1.065151       -28.9842
   6   2.0000      -0.878735       -23.9116
   7   2.0000      -0.742914       -20.2157
   8   2.0000      -0.682920       -18.5832
   9   2.0000      -0.622748       -16.9458
  10   2.0000      -0.577070       -15.7029
  11   2.0000      -0.547813       -14.9067
  12   2.0000      -0.502806       -13.6821
  13   2.0000      -0.403673       -10.9845
  14   2.0000      -0.389828       -10.6078
  15   0.0000       0.141604         3.8532
  16   0.0000       0.318528         8.6676
  17   0.0000       0.465147        12.6573
  18   0.0000       0.558252        15.1908
  19   0.0000       0.638240        17.3674

MULLIKEN ATOMIC CHARGES
-----------------------
   0 C :    0.176435
   1 O :   -0.361895
   2 C :   -0.164232
   3 C :   -0.225459
   4 H :    0.133365
   5 H :    0.145957
   6 H :    0.153856
   7 H :    0.141972
Sum of atomic charges:   -0.0000000

LOEWDIN ATOMIC CHARGES
----------------------
   0 C :    0.144266
   1 O :   -0.259621
   2 C :   -0.129311
   3 C :   -0.126803
   4 H :    0.076433
   5 H :    0.102855
   6 H :    0.098491
   7 H :    0.093690

  Mayer bond orders larger than 0.100000
B(  0-C ,  1-O ) :   1.9119 B(  0-C ,  2-C ) :   1.0143 B(  0-C ,  4-H ) :   0.9146
B(  2-C ,  3-C ) :   1.9578 B(  2-C ,  5-H ) :   0.9527 B(  3-C ,  6-H ) :   0.9601
B(  3-C ,  7-H ) :   0.9634

-----------------------------------------------------------------------------
         ABSORPTION SPECTRUM VIA TRANSITION ELECTRIC DIPOLE MOMENTS
-----------------------------------------------------------------------------
State   Energy    Wavelength  fosc         T2        TX        TY        TZ
        (cm-1)      (nm)                 (au**2)    (au)      (au)      (au)
-----------------------------------------------------------------------------
   1   33645.4    297.2   0.000007462   0.00007  -0.00332   0.00197  -0.00762

Dispersion correction           -0.025287527
FINAL SINGLE POINT ENERGY      -189.312100666931

DIPOLE MOMENT
-------------
                                X             Y             Z
Electronic contribution:     -2.02207      -1.58550      -0.04293
Nuclear contribution   :      2.27397       2.51235       0.07703
                        -----------------------------------------
Total Dipole Moment    :      0.25190       0.92686       0.03409
                        -----------------------------------------
Magnitude (a.u.)       :      0.96108
Magnitude (Debye)      :      2.44288

Rotational constants in cm-1:     0.716274     0.221246     0.169161
Rotational constants in MHz : 21473.351503  6632.793454  5071.330577

                             ****ORCA TERMINATED NORMALLY****
TOTAL RUN TIME: 0 days 0 hours 0 minutes 10 seconds 866 msec
