                         Program Version 5.0.3 -  RELEASE  -
|  1> ! B3LYP cc-pVDZ
|  2> !TightSCF
|  3> %scf
|  4>  ConvForced true
|  5>  convergence tight
|  6>  MaxIter 500
|  7> end
|  8>
|  9> %tddft
| 10>  nroots 1
| 11> end
| 12>
| 13> # 	20478
| 14> * xyz 0 1
| 15> 		C   -0.626861  -0.442245   0.043207
| 16> 		O   -0.552585  -1.625791  -0.023676
| 17> 		C    0.644984   0.414099  -0.093166
| 18> 		C    1.861662  -0.144457   0.033467
| 19> 		H   -1.546047   0.203470   0.318337
| 20> 		H    0.448036   1.492288   0.056697
| 21> 		H    1.683437  -1.194050   0.065112
| 22> 		H    2.730461   0.598472   0.135624
| 23> *
| 24>
| 25>                          ****END OF INPUT****

CARTESIAN COORDINATES (ANGSTROEM)
---------------------------------
  C     -0.626861   -0.442245    0.043207
  O     -0.552585   -1.625791   -0.023676
  C      0.644984    0.414099   -0.093166
  C      1.861662   -0.144457    0.033467
  H     -1.546047    0.203470    0.318337
  H      0.448036    1.492288    0.056697
  H      1.683437   -1.194050    0.065112
  H      2.730461    0.598472    0.135624

 Total Charge           Charge          ....    0
 Multiplicity           Mult            ....    1
 Number of Electrons    NEL             ....   30
 Basis Dimension        Dim             ....   76

ORBITAL ENERGIES
----------------

  NO   OCC          E(Eh)            E(eV)
   0   2.0000     -19.147853      -521.0396
   1   2.0000     -10.284144      -279.8458
   2   2.0000     -10.210670      -277.8465
   3   2.0000     -10.200006      -277.5563
   4   2.0000      -1.067037       -29.0356
   5   2.0000      -0.788040       -21.4437
   6   2.0000      -0.644630       -17.5413
   7   2.0000      -0.528206       -14.3732
   8   2.0000      -0.509731       -13.8705
   9   2.0000      -0.452750       -12.3199
  10   2.0000      -0.418245       -11.3810
  11   2.0000      -0.407098       -11.0777
  12   2.0000      -0.377903       -10.2833
  13   2.0000      -0.285024        -7.7559
  14   2.0000      -0.260311        -7.0834
  15   0.0000      -0.063411        -1.7255
  16   0.0000       0.048713         1.3255
  17   0.0000       0.061877         1.6837
  18   0.0000       0.082712         2.2507
  19   0.0000       0.128086         3.4854

MULLIKEN ATOMIC CHARGES
-----------------------
   0 C :    0.161520
   1 O :   -0.169111
   2 C :   -0.136665
   3 C :    0.078767
   4 H :   -0.001441
   5 H :   -0.013241
   6 H :    0.026294
   7 H :    0.053878
Sum of atomic charges:   -0.0000000

LOEWDIN ATOMIC CHARGES
----------------------
   0 C :   -0.041689
   1 O :    0.021957
   2 C :   -0.086379
   3 C :    0.005404
   4 H :    0.001176
   5 H :    0.018405
   6 H :    0.027829
   7 H :    0.053297

  Mayer bond orders larger than 0.100000
B(  0-C ,  1-O ) :   2.1952 B(  0-C ,  2-C ) :   1.0240 B(  0-C ,  4-H ) :   0.9006
B(  2-C ,  3-C ) :   1.9695 B(  2-C ,  5-H ) :   0.9429 B(  3-C ,  6-H ) :   0.9113
B(  3-C ,  7-H ) :   0.9399

-----------------------------------------------------------------------------
         ABSORPTION SPECTRUM VIA TRANSITION ELECTRIC DIPOLE MOMENTS
-----------------------------------------------------------------------------
State   Energy    Wavelength  fosc         T2        TX        TY        TZ
        (cm-1)      (nm)                 (au**2)    (au)      (au)      (au)
-----------------------------------------------------------------------------
   1   30328.8    329.7   0.000317126   0.00344   0.03726   0.02677   0.03657

FINAL SINGLE POINT ENERGY      -191.650721871997

DIPOLE MOMENT
-------------
                                X             Y             Z
Electronic contribution:     -1.72464      -1.99129      -0.40299
Nuclear contribution   :      1.95496       2.82085       0.53959
                        -----------------------------------------
Total Dipole Moment    :      0.23032       0.82955       0.13660
                        -----------------------------------------
Magnitude (a.u.)       :      0.87170
Magnitude (Debye)      :      2.21570

Rotational constants in cm-1:     0.753922     0.210045     0.165169
Rotational constants in MHz : 22602.011382  6296.989220  4951.640703

                             ****ORCA TERMINATED NORMALLY****
TOTAL RUN TIME: 0 days 0 hours 3 minutes 23 seconds 260 msec
