                         Program Version 5.0.3 -  RELEASE  -
|  1> ! B3LYP cc-pVDZ
|  2> !TightSCF
|  3> %scf
|  4>  ConvForced true
|  5>  convergence tight
|  6>  MaxIter 500
|  7> end
|  8>
|  9> %tddft
| 10>  nroots 1
| 11> end
| 12>
| 13> # 	19107
| 14> * xyz 0 1
| 15> 		C   -1.211801  -0.297474  -0.071657
| 16> 		O   -1.432087  -1.325502  -0.657208
| 17> 		C   -0.013985   0.537788  -0.222607
| 18> 		C    1.188725   0.029447   0.173456
| 19> 		H   -1.859142   0.145709   0.814933
| 20> 		H   -0.168951   1.448448  -0.651649
| 21> 		H    1.272994  -1.090432   0.506765
| 22> 		H    2.173692   0.518884   0.072038
| 23> *
| 24>
| 25>                          ****END OF INPUT****

CARTESIAN COORDINATES (ANGSTROEM)
---------------------------------
  C     -1.211801   -0.297474   -0.071657
  O     -1.432087   -1.325502   -0.657208
  C     -0.013985    0.537788   -0.222607
  C      1.188725    0.029447    0.173456
  H     -1.859142    0.145709    0.814933
  H     -0.168951    1.448448   -0.651649
  H      1.272994   -1.090432    0.506765
  H      2.173692    0.518884    0.072038

 Total Charge           Charge          ....    0
 Multiplicity           Mult            ....    1
 Number of Electrons    NEL             ....   30
 Basis Dimension        Dim             ....   76

ORBITAL ENERGIES
----------------

  NO   OCC          E(Eh)            E(eV)
   0   2.0000     -19.150021      -521.0986
   1   2.0000     -10.286041      -279.8974
   2   2.0000     -10.218763      -278.0667
   3   2.0000     -10.204728      -277.6848
   4   2.0000      -1.057738       -28.7825
   5   2.0000      -0.794531       -21.6203
   6   2.0000      -0.651769       -17.7355
   7   2.0000      -0.552214       -15.0265
   8   2.0000      -0.495451       -13.4819
   9   2.0000      -0.455547       -12.3961
  10   2.0000      -0.446966       -12.1626
  11   2.0000      -0.383549       -10.4369
  12   2.0000      -0.382662       -10.4128
  13   2.0000      -0.281813        -7.6685
  14   2.0000      -0.258128        -7.0240
  15   0.0000      -0.042248        -1.1496
  16   0.0000      -0.005407        -0.1471
  17   0.0000       0.080272         2.1843
  18   0.0000       0.082750         2.2518
  19   0.0000       0.100310         2.7296

MULLIKEN ATOMIC CHARGES
-----------------------
   0 C :    0.143393
   1 O :   -0.168701
   2 C :   -0.019713
   3 C :   -0.020805
   4 H :   -0.008699
   5 H :   -0.014877
   6 H :    0.049690
   7 H :    0.039710
Sum of atomic charges:    0.0000000

LOEWDIN ATOMIC CHARGES
----------------------
   0 C :   -0.032077
   1 O :    0.019284
   2 C :   -0.050811
   3 C :   -0.023619
   4 H :   -0.002351
   5 H :    0.014412
   6 H :    0.045016
   7 H :    0.030145

  Mayer bond orders larger than 0.100000
B(  0-C ,  1-O ) :   2.2406 B(  0-C ,  2-C ) :   1.0011 B(  0-C ,  4-H ) :   0.8874
B(  2-C ,  3-C ) :   1.9963 B(  2-C ,  5-H ) :   0.9467 B(  3-C ,  6-H ) :   0.9440
B(  3-C ,  7-H ) :   0.9536

-----------------------------------------------------------------------------
         ABSORPTION SPECTRUM VIA TRANSITION ELECTRIC DIPOLE MOMENTS
-----------------------------------------------------------------------------
State   Energy    Wavelength  fosc         T2        TX        TY        TZ
        (cm-1)      (nm)                 (au**2)    (au)      (au)      (au)
-----------------------------------------------------------------------------
   1   33122.1    301.9   0.000115969   0.00115   0.01538  -0.01657   0.02533

FINAL SINGLE POINT ENERGY      -191.634729403772

DIPOLE MOMENT
-------------
                                X             Y             Z
Electronic contribution:     -2.36423      -1.33167      -1.13259
Nuclear contribution   :      2.78321       2.07787       1.44032
                        -----------------------------------------
Total Dipole Moment    :      0.41898       0.74620       0.30773
                        -----------------------------------------
Magnitude (a.u.)       :      0.90943
Magnitude (Debye)      :      2.31158

Rotational constants in cm-1:     0.825036     0.186540     0.163513
Rotational constants in MHz : 24733.970831  5592.321737  4901.991366

                             ****ORCA TERMINATED NORMALLY****
TOTAL RUN TIME: 0 days 0 hours 3 minutes 25 seconds 991 msec
