                         Program Version 5.0.3 -  RELEASE  -
|  1> ! HF-3c
|  2> !TightSCF
|  3> %scf
|  4>  ConvForced true
|  5>  convergence tight
|  6>  MaxIter 500
|  7> end
|  8>
|  9> %tddft
| 10>  nroots 1
| 11> end
| 12>
| 13> # 	10985
| 14> * xyz 0 1
| 15> 		C   -1.184724  -0.250221  -0.130594
| 16> 		O   -1.335182  -1.294840  -0.574738
| 17> 		C    0.051525   0.523779  -0.180159
| 18> 		C    1.211729  -0.003207   0.092353
| 19> 		H   -1.945881   0.006441   0.701745
| 20> 		H   -0.096159   1.484004  -0.247535
| 21> 		H    1.197590  -1.143722   0.269739
| 22> 		H    2.176824   0.639083   0.067098
| 23> *
| 24>
| 25>                          ****END OF INPUT****

CARTESIAN COORDINATES (ANGSTROEM)
---------------------------------
  C     -1.184724   -0.250221   -0.130594
  O     -1.335182   -1.294840   -0.574738
  C      0.051525    0.523779   -0.180159
  C      1.211729   -0.003207    0.092353
  H     -1.945881    0.006441    0.701745
  H     -0.096159    1.484004   -0.247535
  H      1.197590   -1.143722    0.269739
  H      2.176824    0.639083    0.067098

 Total Charge           Charge          ....    0
 Multiplicity           Mult            ....    1
 Number of Electrons    NEL             ....   30
 Basis Dimension        Dim             ....   24

ORBITAL ENERGIES
----------------

  NO   OCC          E(Eh)            E(eV)
   0   2.0000     -20.382566      -554.6378
   1   2.0000     -11.308944      -307.7320
   2   2.0000     -11.192457      -304.5622
   3   2.0000     -11.188207      -304.4466
   4   2.0000      -1.454921       -39.5904
   5   2.0000      -1.095734       -29.8164
   6   2.0000      -0.880832       -23.9687
   7   2.0000      -0.753497       -20.5037
   8   2.0000      -0.720743       -19.6124
   9   2.0000      -0.626906       -17.0590
  10   2.0000      -0.615078       -16.7371
  11   2.0000      -0.548197       -14.9172
  12   2.0000      -0.534207       -14.5365
  13   2.0000      -0.418127       -11.3778
  14   2.0000      -0.396571       -10.7913
  15   0.0000       0.170195         4.6312
  16   0.0000       0.272793         7.4231
  17   0.0000       0.549684        14.9576
  18   0.0000       0.553798        15.0696
  19   0.0000       0.656769        17.8716

MULLIKEN ATOMIC CHARGES
-----------------------
   0 C :    0.190191
   1 O :   -0.361521
   2 C :   -0.209340
   3 C :   -0.202536
   4 H :    0.131378
   5 H :    0.142326
   6 H :    0.155076
   7 H :    0.154425
Sum of atomic charges:   -0.0000000

LOEWDIN ATOMIC CHARGES
----------------------
   0 C :    0.148446
   1 O :   -0.244175
   2 C :   -0.156616
   3 C :   -0.115796
   4 H :    0.070589
   5 H :    0.082380
   6 H :    0.107319
   7 H :    0.107853

  Mayer bond orders larger than 0.100000
B(  0-C ,  1-O ) :   1.9319 B(  0-C ,  2-C ) :   0.9967 B(  0-C ,  4-H ) :   0.9082
B(  2-C ,  3-C ) :   1.9720 B(  2-C ,  5-H ) :   0.9580 B(  3-C ,  6-H ) :   0.9566
B(  3-C ,  7-H ) :   0.9578

-----------------------------------------------------------------------------
         ABSORPTION SPECTRUM VIA TRANSITION ELECTRIC DIPOLE MOMENTS
-----------------------------------------------------------------------------
State   Energy    Wavelength  fosc         T2        TX        TY        TZ
        (cm-1)      (nm)                 (au**2)    (au)      (au)      (au)
-----------------------------------------------------------------------------
   1   36351.4    275.1   0.000279011   0.00253   0.02694   0.01550  -0.03951

Dispersion correction           -0.026092045
FINAL SINGLE POINT ENERGY      -189.283062949117

DIPOLE MOMENT
-------------
                                X             Y             Z
Electronic contribution:     -2.07447      -1.31532      -1.00579
Nuclear contribution   :      2.51211       2.01285       1.47426
                        -----------------------------------------
Total Dipole Moment    :      0.43765       0.69752       0.46846
                        -----------------------------------------
Magnitude (a.u.)       :      0.94738
Magnitude (Debye)      :      2.40805

Rotational constants in cm-1:     0.887281     0.200239     0.170473
Rotational constants in MHz : 26600.015000  6003.028806  5110.665052

                             ****ORCA TERMINATED NORMALLY****
TOTAL RUN TIME: 0 days 0 hours 0 minutes 10 seconds 76 msec
