                         Program Version 5.0.3 -  RELEASE  -
|  1> ! B3LYP cc-pVDZ
|  2> !TightSCF
|  3> %scf
|  4>  ConvForced true
|  5>  convergence tight
|  6>  MaxIter 500
|  7> end
|  8>
|  9> %tddft
| 10>  nroots 1
| 11> end
| 12>
| 13> # 	31252
| 14> * xyz 0 1
| 15> 		C   -0.617587  -0.407666   0.001834
| 16> 		O   -0.508386  -1.604787  -0.009769
| 17> 		C    0.576600   0.413506   0.003674
| 18> 		C    1.846857  -0.194540  -0.008189
| 19> 		H   -1.560495   0.281469   0.082995
| 20> 		H    0.412210   1.511682  -0.031162
| 21> 		H    1.799937  -1.266501   0.192000
| 22> 		H    2.817222   0.472762  -0.065825
| 23> *
| 24>
| 25>                          ****END OF INPUT****

CARTESIAN COORDINATES (ANGSTROEM)
---------------------------------
  C     -0.617587   -0.407666    0.001834
  O     -0.508386   -1.604787   -0.009769
  C      0.576600    0.413506    0.003674
  C      1.846857   -0.194540   -0.008189
  H     -1.560495    0.281469    0.082995
  H      0.412210    1.511682   -0.031162
  H      1.799937   -1.266501    0.192000
  H      2.817222    0.472762   -0.065825

 Total Charge           Charge          ....    0
 Multiplicity           Mult            ....    1
 Number of Electrons    NEL             ....   30
 Basis Dimension        Dim             ....   76

ORBITAL ENERGIES
----------------

  NO   OCC          E(Eh)            E(eV)
   0   2.0000     -19.140251      -520.8327
   1   2.0000     -10.277310      -279.6598
   2   2.0000     -10.228336      -278.3272
   3   2.0000     -10.206389      -277.7300
   4   2.0000      -1.054467       -28.6935
   5   2.0000      -0.780384       -21.2353
   6   2.0000      -0.655964       -17.8497
   7   2.0000      -0.526904       -14.3378
   8   2.0000      -0.501017       -13.6334
   9   2.0000      -0.449427       -12.2295
  10   2.0000      -0.410412       -11.1679
  11   2.0000      -0.402982       -10.9657
  12   2.0000      -0.383777       -10.4431
  13   2.0000      -0.275351        -7.4927
  14   2.0000      -0.258422        -7.0320
  15   0.0000      -0.078552        -2.1375
  16   0.0000       0.058785         1.5996
  17   0.0000       0.061206         1.6655
  18   0.0000       0.078603         2.1389
  19   0.0000       0.123212         3.3528

MULLIKEN ATOMIC CHARGES
-----------------------
   0 C :    0.175174
   1 O :   -0.186408
   2 C :   -0.120179
   3 C :    0.034378
   4 H :   -0.011680
   5 H :   -0.005681
   6 H :    0.051551
   7 H :    0.062845
Sum of atomic charges:    0.0000000

LOEWDIN ATOMIC CHARGES
----------------------
   0 C :   -0.058584
   1 O :    0.006447
   2 C :   -0.084792
   3 C :    0.026869
   4 H :    0.001368
   5 H :    0.024874
   6 H :    0.032830
   7 H :    0.050989

  Mayer bond orders larger than 0.100000
B(  0-C ,  1-O ) :   2.1743 B(  0-C ,  2-C ) :   1.0867 B(  0-C ,  4-H ) :   0.9012
B(  1-O ,  3-C ) :   0.1018 B(  2-C ,  3-C ) :   1.9157 B(  2-C ,  5-H ) :   0.9464
B(  3-C ,  6-H ) :   0.9245 B(  3-C ,  7-H ) :   0.9437

-----------------------------------------------------------------------------
         ABSORPTION SPECTRUM VIA TRANSITION ELECTRIC DIPOLE MOMENTS
-----------------------------------------------------------------------------
State   Energy    Wavelength  fosc         T2        TX        TY        TZ
        (cm-1)      (nm)                 (au**2)    (au)      (au)      (au)
-----------------------------------------------------------------------------
   1   27000.3    370.4   0.000210296   0.00256  -0.02945   0.01237   0.03929

FINAL SINGLE POINT ENERGY      -191.668167199988

DIPOLE MOMENT
-------------
                                X             Y             Z
Electronic contribution:     -1.74314      -1.88321      -0.12937
Nuclear contribution   :      2.10092       2.72386       0.16747
                        -----------------------------------------
Total Dipole Moment    :      0.35778       0.84065       0.03810
                        -----------------------------------------
Magnitude (a.u.)       :      0.91441
Magnitude (Debye)      :      2.32425

Rotational constants in cm-1:     0.693777     0.224228     0.169636
Rotational constants in MHz : 20798.918680  6722.173346  5085.553545

                             ****ORCA TERMINATED NORMALLY****
TOTAL RUN TIME: 0 days 0 hours 3 minutes 26 seconds 904 msec
