                         Program Version 5.0.3 -  RELEASE  -
|  1> ! HF-3c
|  2> !TightSCF
|  3> %scf
|  4>  ConvForced true
|  5>  convergence tight
|  6>  MaxIter 500
|  7> end
|  8>
|  9> %tddft
| 10>  nroots 1
| 11> end
| 12>
| 13> # 	16406
| 14> * xyz 0 1
| 15> 		C   -1.176259  -0.344309   0.002932
| 16> 		O   -1.360911  -1.489229  -0.385388
| 17> 		C   -0.002715   0.480979  -0.141564
| 18> 		C    1.218069   0.027825   0.105994
| 19> 		H   -2.063313   0.179957   0.474594
| 20> 		H   -0.104841   1.577079  -0.379258
| 21> 		H    1.376804  -1.046353   0.346377
| 22> 		H    2.082580   0.569130  -0.001596
| 23> *
| 24>
| 25>                          ****END OF INPUT****

CARTESIAN COORDINATES (ANGSTROEM)
---------------------------------
  C     -1.176259   -0.344309    0.002932
  O     -1.360911   -1.489229   -0.385388
  C     -0.002715    0.480979   -0.141564
  C      1.218069    0.027825    0.105994
  H     -2.063313    0.179957    0.474594
  H     -0.104841    1.577079   -0.379258
  H      1.376804   -1.046353    0.346377
  H      2.082580    0.569130   -0.001596

 Total Charge           Charge          ....    0
 Multiplicity           Mult            ....    1
 Number of Electrons    NEL             ....   30
 Basis Dimension        Dim             ....   24

ORBITAL ENERGIES
----------------

  NO   OCC          E(Eh)            E(eV)
   0   2.0000     -20.365809      -554.1818
   1   2.0000     -11.295912      -307.3774
   2   2.0000     -11.197016      -304.6863
   3   2.0000     -11.192252      -304.5567
   4   2.0000      -1.393353       -37.9151
   5   2.0000      -1.089742       -29.6534
   6   2.0000      -0.900692       -24.5091
   7   2.0000      -0.747991       -20.3539
   8   2.0000      -0.701802       -19.0970
   9   2.0000      -0.626867       -17.0579
  10   2.0000      -0.604680       -16.4542
  11   2.0000      -0.539945       -14.6927
  12   2.0000      -0.512171       -13.9369
  13   2.0000      -0.416117       -11.3231
  14   2.0000      -0.399976       -10.8839
  15   0.0000       0.138565         3.7706
  16   0.0000       0.278752         7.5852
  17   0.0000       0.559114        15.2143
  18   0.0000       0.605471        16.4757
  19   0.0000       0.649568        17.6756

MULLIKEN ATOMIC CHARGES
-----------------------
   0 C :    0.162979
   1 O :   -0.344668
   2 C :   -0.174237
   3 C :   -0.226076
   4 H :    0.133543
   5 H :    0.153455
   6 H :    0.151894
   7 H :    0.143110
Sum of atomic charges:    0.0000000

LOEWDIN ATOMIC CHARGES
----------------------
   0 C :    0.146981
   1 O :   -0.254799
   2 C :   -0.130400
   3 C :   -0.126621
   4 H :    0.072796
   5 H :    0.103444
   6 H :    0.100975
   7 H :    0.087623

  Mayer bond orders larger than 0.100000
B(  0-C ,  1-O ) :   1.9131 B(  0-C ,  2-C ) :   1.0333 B(  0-C ,  4-H ) :   0.9205
B(  2-C ,  3-C ) :   1.9537 B(  2-C ,  5-H ) :   0.9491 B(  3-C ,  6-H ) :   0.9609
B(  3-C ,  7-H ) :   0.9670

-----------------------------------------------------------------------------
         ABSORPTION SPECTRUM VIA TRANSITION ELECTRIC DIPOLE MOMENTS
-----------------------------------------------------------------------------
State   Energy    Wavelength  fosc         T2        TX        TY        TZ
        (cm-1)      (nm)                 (au**2)    (au)      (au)      (au)
-----------------------------------------------------------------------------
   1   32300.5    309.6   0.000284963   0.00290   0.05370   0.00311   0.00332

Dispersion correction           -0.025461463
FINAL SINGLE POINT ENERGY      -189.336009335858

DIPOLE MOMENT
-------------
                                X             Y             Z
Electronic contribution:     -2.13549      -1.64816      -0.50565
Nuclear contribution   :      2.53541       2.56032       0.81808
                        -----------------------------------------
Total Dipole Moment    :      0.39992       0.91216       0.31243
                        -----------------------------------------
Magnitude (a.u.)       :      1.04383
Magnitude (Debye)      :      2.65321

Rotational constants in cm-1:     0.843369     0.191950     0.161114
Rotational constants in MHz : 25283.561821  5754.522420  4830.089316

                             ****ORCA TERMINATED NORMALLY****
TOTAL RUN TIME: 0 days 0 hours 0 minutes 11 seconds 242 msec
