                         Program Version 5.0.3 -  RELEASE  -
|  1> ! HF-3c
|  2> !TightSCF
|  3> %scf
|  4>  ConvForced true
|  5>  convergence tight
|  6>  MaxIter 500
|  7> end
|  8>
|  9> %tddft
| 10>  nroots 1
| 11> end
| 12>
| 13> # 	10992
| 14> * xyz 0 1
| 15> 		C   -1.184661  -0.226755  -0.089339
| 16> 		O   -1.811479  -0.841286  -0.888306
| 17> 		C    0.027650   0.500050  -0.256227
| 18> 		C    1.211116  -0.013636   0.155944
| 19> 		H   -1.462415  -0.502622   0.910298
| 20> 		H   -0.030348   1.435407  -0.610673
| 21> 		H    1.137580  -1.008895   0.709051
| 22> 		H    2.106849   0.746846   0.100783
| 23> *
| 24>
| 25>                          ****END OF INPUT****

CARTESIAN COORDINATES (ANGSTROEM)
---------------------------------
  C     -1.184661   -0.226755   -0.089339
  O     -1.811479   -0.841286   -0.888306
  C      0.027650    0.500050   -0.256227
  C      1.211116   -0.013636    0.155944
  H     -1.462415   -0.502622    0.910298
  H     -0.030348    1.435407   -0.610673
  H      1.137580   -1.008895    0.709051
  H      2.106849    0.746846    0.100783

 Total Charge           Charge          ....    0
 Multiplicity           Mult            ....    1
 Number of Electrons    NEL             ....   30
 Basis Dimension        Dim             ....   24

ORBITAL ENERGIES
----------------

  NO   OCC          E(Eh)            E(eV)
   0   2.0000     -20.376655      -554.4770
   1   2.0000     -11.301390      -307.5265
   2   2.0000     -11.189116      -304.4713
   3   2.0000     -11.186866      -304.4101
   4   2.0000      -1.424177       -38.7538
   5   2.0000      -1.090492       -29.6738
   6   2.0000      -0.882065       -24.0022
   7   2.0000      -0.783340       -21.3158
   8   2.0000      -0.697344       -18.9757
   9   2.0000      -0.631753       -17.1909
  10   2.0000      -0.597584       -16.2611
  11   2.0000      -0.553323       -15.0567
  12   2.0000      -0.512627       -13.9493
  13   2.0000      -0.418044       -11.3756
  14   2.0000      -0.392989       -10.6938
  15   0.0000       0.167108         4.5472
  16   0.0000       0.230890         6.2828
  17   0.0000       0.525830        14.3086
  18   0.0000       0.607279        16.5249
  19   0.0000       0.687884        18.7183

MULLIKEN ATOMIC CHARGES
-----------------------
   0 C :    0.157106
   1 O :   -0.339153
   2 C :   -0.197574
   3 C :   -0.208519
   4 H :    0.135298
   5 H :    0.149374
   6 H :    0.147464
   7 H :    0.156004
Sum of atomic charges:   -0.0000000

LOEWDIN ATOMIC CHARGES
----------------------
   0 C :    0.139745
   1 O :   -0.238491
   2 C :   -0.145809
   3 C :   -0.126121
   4 H :    0.067993
   5 H :    0.090303
   6 H :    0.101173
   7 H :    0.111207

  Mayer bond orders larger than 0.100000
B(  0-C ,  1-O ) :   1.9323 B(  0-C ,  2-C ) :   1.0108 B(  0-C ,  4-H ) :   0.9224
B(  2-C ,  3-C ) :   1.9715 B(  2-C ,  5-H ) :   0.9544 B(  3-C ,  6-H ) :   0.9622
B(  3-C ,  7-H ) :   0.9578

-----------------------------------------------------------------------------
         ABSORPTION SPECTRUM VIA TRANSITION ELECTRIC DIPOLE MOMENTS
-----------------------------------------------------------------------------
State   Energy    Wavelength  fosc         T2        TX        TY        TZ
        (cm-1)      (nm)                 (au**2)    (au)      (au)      (au)
-----------------------------------------------------------------------------
   1   33866.7    295.3   0.000417574   0.00406  -0.05437  -0.02621   0.02039

Dispersion correction           -0.025827427
FINAL SINGLE POINT ENERGY      -189.293710962308

DIPOLE MOMENT
-------------
                                X             Y             Z
Electronic contribution:     -2.64843      -0.81679      -1.36271
Nuclear contribution   :      3.40184       1.26630       2.06068
                        -----------------------------------------
Total Dipole Moment    :      0.75340       0.44952       0.69797
                        -----------------------------------------
Magnitude (a.u.)       :      1.12109
Magnitude (Debye)      :      2.84958

Rotational constants in cm-1:     1.151667     0.166346     0.159466
Rotational constants in MHz : 34526.114757  4986.937526  4780.684327

                             ****ORCA TERMINATED NORMALLY****
TOTAL RUN TIME: 0 days 0 hours 0 minutes 13 seconds 847 msec
