                         Program Version 5.0.3 -  RELEASE  -
|  1> ! HF-3c
|  2> !TightSCF
|  3> %scf
|  4>  ConvForced true
|  5>  convergence tight
|  6>  MaxIter 500
|  7> end
|  8>
|  9> %tddft
| 10>  nroots 1
| 11> end
| 12>
| 13> # 	18555
| 14> * xyz 0 1
| 15> 		C   -1.166899  -0.243264  -0.030224
| 16> 		O   -1.855583  -0.725660   0.852520
| 17> 		C    0.042859   0.538676   0.175391
| 18> 		C    1.270186   0.087697  -0.198878
| 19> 		H   -1.473342  -0.537772  -0.992452
| 20> 		H   -0.140616   1.230076   0.763632
| 21> 		H    1.368889  -1.002750  -0.723633
| 22> 		H    2.026366   0.696158   0.037720
| 23> *
| 24>
| 25>                          ****END OF INPUT****

CARTESIAN COORDINATES (ANGSTROEM)
---------------------------------
  C     -1.166899   -0.243264   -0.030224
  O     -1.855583   -0.725660    0.852520
  C      0.042859    0.538676    0.175391
  C      1.270186    0.087697   -0.198878
  H     -1.473342   -0.537772   -0.992452
  H     -0.140616    1.230076    0.763632
  H      1.368889   -1.002750   -0.723633
  H      2.026366    0.696158    0.037720

 Total Charge           Charge          ....    0
 Multiplicity           Mult            ....    1
 Number of Electrons    NEL             ....   30
 Basis Dimension        Dim             ....   24

ORBITAL ENERGIES
----------------

  NO   OCC          E(Eh)            E(eV)
   0   2.0000     -20.364520      -554.1468
   1   2.0000     -11.293075      -307.3002
   2   2.0000     -11.202290      -304.8298
   3   2.0000     -11.198875      -304.7369
   4   2.0000      -1.399422       -38.0802
   5   2.0000      -1.093952       -29.7680
   6   2.0000      -0.900571       -24.5058
   7   2.0000      -0.803252       -21.8576
   8   2.0000      -0.690595       -18.7920
   9   2.0000      -0.651287       -17.7224
  10   2.0000      -0.593592       -16.1525
  11   2.0000      -0.564642       -15.3647
  12   2.0000      -0.512154       -13.9364
  13   2.0000      -0.417074       -11.3492
  14   2.0000      -0.399993       -10.8844
  15   0.0000       0.146042         3.9740
  16   0.0000       0.240761         6.5514
  17   0.0000       0.498531        13.5657
  18   0.0000       0.643311        17.5054
  19   0.0000       0.741799        20.1854

MULLIKEN ATOMIC CHARGES
-----------------------
   0 C :    0.153764
   1 O :   -0.341512
   2 C :   -0.200335
   3 C :   -0.213936
   4 H :    0.139399
   5 H :    0.152882
   6 H :    0.161862
   7 H :    0.147877
Sum of atomic charges:    0.0000000

LOEWDIN ATOMIC CHARGES
----------------------
   0 C :    0.144134
   1 O :   -0.251128
   2 C :   -0.140180
   3 C :   -0.118280
   4 H :    0.071048
   5 H :    0.086298
   6 H :    0.118955
   7 H :    0.089154

  Mayer bond orders larger than 0.100000
B(  0-C ,  1-O ) :   1.9252 B(  0-C ,  2-C ) :   1.0130 B(  0-C ,  4-H ) :   0.9322
B(  2-C ,  3-C ) :   1.9641 B(  2-C ,  5-H ) :   0.9584 B(  3-C ,  6-H ) :   0.9590
B(  3-C ,  7-H ) :   0.9665

-----------------------------------------------------------------------------
         ABSORPTION SPECTRUM VIA TRANSITION ELECTRIC DIPOLE MOMENTS
-----------------------------------------------------------------------------
State   Energy    Wavelength  fosc         T2        TX        TY        TZ
        (cm-1)      (nm)                 (au**2)    (au)      (au)      (au)
-----------------------------------------------------------------------------
   1   32699.2    305.8   0.000098183   0.00099   0.01781  -0.01504  -0.02110

Dispersion correction           -0.025659252
FINAL SINGLE POINT ENERGY      -189.277306935573

DIPOLE MOMENT
-------------
                                X             Y             Z
Electronic contribution:     -2.61106      -0.57460       0.98741
Nuclear contribution   :      3.40010       0.79596      -1.65683
                        -----------------------------------------
Total Dipole Moment    :      0.78904       0.22137      -0.66942
                        -----------------------------------------
Magnitude (a.u.)       :      1.05817
Magnitude (Debye)      :      2.68964

Rotational constants in cm-1:     1.187550     0.159782     0.155260
Rotational constants in MHz : 35601.865086  4790.152208  4654.568653

                             ****ORCA TERMINATED NORMALLY****
TOTAL RUN TIME: 0 days 0 hours 0 minutes 8 seconds 619 msec
