                         Program Version 5.0.3 -  RELEASE  -
|  1> ! HF-3c
|  2> !TightSCF
|  3> %scf
|  4>  ConvForced true
|  5>  convergence tight
|  6>  MaxIter 500
|  7> end
|  8>
|  9> %tddft
| 10>  nroots 1
| 11> end
| 12>
| 13> # 	17860
| 14> * xyz 0 1
| 15> 		C   -1.182610  -0.320998  -0.058704
| 16> 		O   -1.249909  -1.554500  -0.023187
| 17> 		C   -0.021213   0.501425  -0.080734
| 18> 		C    1.218349  -0.021845  -0.026762
| 19> 		H   -2.044165   0.366810   0.093475
| 20> 		H   -0.146946   1.581466   0.158354
| 21> 		H    1.378679  -1.093928  -0.052246
| 22> 		H    2.042012   0.559387   0.051270
| 23> *
| 24>
| 25>                          ****END OF INPUT****

CARTESIAN COORDINATES (ANGSTROEM)
---------------------------------
  C     -1.182610   -0.320998   -0.058704
  O     -1.249909   -1.554500   -0.023187
  C     -0.021213    0.501425   -0.080734
  C      1.218349   -0.021845   -0.026762
  H     -2.044165    0.366810    0.093475
  H     -0.146946    1.581466    0.158354
  H      1.378679   -1.093928   -0.052246
  H      2.042012    0.559387    0.051270

 Total Charge           Charge          ....    0
 Multiplicity           Mult            ....    1
 Number of Electrons    NEL             ....   30
 Basis Dimension        Dim             ....   24

ORBITAL ENERGIES
----------------

  NO   OCC          E(Eh)            E(eV)
   0   2.0000     -20.358780      -553.9906
   1   2.0000     -11.290967      -307.2428
   2   2.0000     -11.200582      -304.7833
   3   2.0000     -11.191375      -304.5328
   4   2.0000      -1.380951       -37.5776
   5   2.0000      -1.090807       -29.6824
   6   2.0000      -0.917425       -24.9644
   7   2.0000      -0.746660       -20.3177
   8   2.0000      -0.706580       -19.2270
   9   2.0000      -0.616759       -16.7829
  10   2.0000      -0.596969       -16.2444
  11   2.0000      -0.541375       -14.7316
  12   2.0000      -0.531810       -14.4713
  13   2.0000      -0.414909       -11.2902
  14   2.0000      -0.389862       -10.6087
  15   0.0000       0.113236         3.0813
  16   0.0000       0.307475         8.3668
  17   0.0000       0.570653        15.5283
  18   0.0000       0.630907        17.1679
  19   0.0000       0.663908        18.0659

MULLIKEN ATOMIC CHARGES
-----------------------
   0 C :    0.156469
   1 O :   -0.348982
   2 C :   -0.177538
   3 C :   -0.213476
   4 H :    0.131360
   5 H :    0.146128
   6 H :    0.162067
   7 H :    0.143972
Sum of atomic charges:   -0.0000000

LOEWDIN ATOMIC CHARGES
----------------------
   0 C :    0.145611
   1 O :   -0.263579
   2 C :   -0.137206
   3 C :   -0.104101
   4 H :    0.069790
   5 H :    0.095766
   6 H :    0.106600
   7 H :    0.087120

  Mayer bond orders larger than 0.100000
B(  0-C ,  1-O ) :   1.8864 B(  0-C ,  2-C ) :   1.0614 B(  0-C ,  4-H ) :   0.9238
B(  2-C ,  3-C ) :   1.9138 B(  2-C ,  5-H ) :   0.9576 B(  3-C ,  6-H ) :   0.9599
B(  3-C ,  7-H ) :   0.9687

-----------------------------------------------------------------------------
         ABSORPTION SPECTRUM VIA TRANSITION ELECTRIC DIPOLE MOMENTS
-----------------------------------------------------------------------------
State   Energy    Wavelength  fosc         T2        TX        TY        TZ
        (cm-1)      (nm)                 (au**2)    (au)      (au)      (au)
-----------------------------------------------------------------------------
   1   30475.1    328.1   0.000078061   0.00084   0.02765   0.00541   0.00702

Dispersion correction           -0.025993481
FINAL SINGLE POINT ENERGY      -189.338795471026

DIPOLE MOMENT
-------------
                                X             Y             Z
Electronic contribution:     -1.96538      -1.77850      -0.29484
Nuclear contribution   :      2.38388       2.75087       0.37708
                        -----------------------------------------
Total Dipole Moment    :      0.41850       0.97238       0.08224
                        -----------------------------------------
Magnitude (a.u.)       :      1.06180
Magnitude (Debye)      :      2.69889

Rotational constants in cm-1:     0.768316     0.208381     0.164229
Rotational constants in MHz : 23033.548012  6247.094144  4923.450198

                             ****ORCA TERMINATED NORMALLY****
TOTAL RUN TIME: 0 days 0 hours 0 minutes 10 seconds 239 msec
