                         Program Version 5.0.3 -  RELEASE  -
|  1> ! B3LYP cc-pVDZ
|  2> !TightSCF
|  3> %scf
|  4>  ConvForced true
|  5>  convergence tight
|  6>  MaxIter 500
|  7> end
|  8>
|  9> %tddft
| 10>  nroots 1
| 11> end
| 12>
| 13> # 	5354
| 14> * xyz 0 1
| 15> 		C   -1.210992  -0.376809  -0.051430
| 16> 		O   -1.847538  -1.076607  -0.922879
| 17> 		C    0.129549   0.336124  -0.271314
| 18> 		C    1.169546   0.147604   0.134923
| 19> 		H   -1.728033  -0.327748   1.228689
| 20> 		H    0.051910   1.005321  -1.041882
| 21> 		H    1.263017  -0.596052   0.899091
| 22> 		H    2.122276   0.779471   0.023893
| 23> *
| 24>
| 25>                          ****END OF INPUT****

CARTESIAN COORDINATES (ANGSTROEM)
---------------------------------
  C     -1.210992   -0.376809   -0.051430
  O     -1.847538   -1.076607   -0.922879
  C      0.129549    0.336124   -0.271314
  C      1.169546    0.147604    0.134923
  H     -1.728033   -0.327748    1.228689
  H      0.051910    1.005321   -1.041882
  H      1.263017   -0.596052    0.899091
  H      2.122276    0.779471    0.023893

 Total Charge           Charge          ....    0
 Multiplicity           Mult            ....    1
 Number of Electrons    NEL             ....   30
 Basis Dimension        Dim             ....   76

ORBITAL ENERGIES
----------------

  NO   OCC          E(Eh)            E(eV)
   0   2.0000     -19.160930      -521.3954
   1   2.0000     -10.314077      -280.6603
   2   2.0000     -10.191384      -277.3217
   3   2.0000     -10.186986      -277.2020
   4   2.0000      -1.019918       -27.7534
   5   2.0000      -0.847621       -23.0649
   6   2.0000      -0.643562       -17.5122
   7   2.0000      -0.563046       -15.3213
   8   2.0000      -0.492054       -13.3895
   9   2.0000      -0.466169       -12.6851
  10   2.0000      -0.432527       -11.7696
  11   2.0000      -0.376558       -10.2467
  12   2.0000      -0.356856        -9.7105
  13   2.0000      -0.327585        -8.9140
  14   2.0000      -0.259696        -7.0667
  15   0.0000      -0.061670        -1.6781
  16   0.0000       0.022164         0.6031
  17   0.0000       0.057968         1.5774
  18   0.0000       0.070523         1.9190
  19   0.0000       0.099975         2.7205

MULLIKEN ATOMIC CHARGES
-----------------------
   0 C :    0.090907
   1 O :   -0.213525
   2 C :    0.002039
   3 C :    0.092680
   4 H :    0.011898
   5 H :   -0.012800
   6 H :   -0.005203
   7 H :    0.034004
Sum of atomic charges:    0.0000000

LOEWDIN ATOMIC CHARGES
----------------------
   0 C :    0.035758
   1 O :   -0.051532
   2 C :   -0.083939
   3 C :   -0.029046
   4 H :    0.006702
   5 H :    0.036617
   6 H :    0.030711
   7 H :    0.054730

  Mayer bond orders larger than 0.100000
B(  0-C ,  1-O ) :   2.1540 B(  0-C ,  2-C ) :   0.9334 B(  0-C ,  4-H ) :   0.8548
B(  2-C ,  3-C ) :   2.1248 B(  2-C ,  5-H ) :   0.9123 B(  3-C ,  6-H ) :   0.9022
B(  3-C ,  7-H ) :   0.9062

-----------------------------------------------------------------------------
         ABSORPTION SPECTRUM VIA TRANSITION ELECTRIC DIPOLE MOMENTS
-----------------------------------------------------------------------------
State   Energy    Wavelength  fosc         T2        TX        TY        TZ
        (cm-1)      (nm)                 (au**2)    (au)      (au)      (au)
-----------------------------------------------------------------------------
   1   28939.1    345.6   0.000668142   0.00760  -0.04152   0.03649  -0.06742

FINAL SINGLE POINT ENERGY      -191.553393906927

DIPOLE MOMENT
-------------
                                X             Y             Z
Electronic contribution:     -2.61074      -1.20213      -1.63813
Nuclear contribution   :      3.37564       1.80471       2.09617
                        -----------------------------------------
Total Dipole Moment    :      0.76489       0.60259       0.45804
                        -----------------------------------------
Magnitude (a.u.)       :      1.07609
Magnitude (Debye)      :      2.73521

Rotational constants in cm-1:     1.267791     0.152169     0.148441
Rotational constants in MHz : 38007.424350  4561.900450  4450.148208

                             ****ORCA TERMINATED NORMALLY****
TOTAL RUN TIME: 0 days 0 hours 3 minutes 20 seconds 883 msec
