                         Program Version 5.0.3 -  RELEASE  -
|  1> ! HF-3c
|  2> !TightSCF
|  3> %scf
|  4>  ConvForced true
|  5>  convergence tight
|  6>  MaxIter 500
|  7> end
|  8>
|  9> %tddft
| 10>  nroots 1
| 11> end
| 12>
| 13> # 	28171
| 14> * xyz 0 1
| 15> 		C   -0.550103  -0.443570  -0.023053
| 16> 		O   -0.623644  -1.696515   0.013293
| 17> 		C    0.615380   0.444948   0.022686
| 18> 		C    1.872733  -0.089031   0.007822
| 19> 		H   -1.552862   0.310470  -0.151737
| 20> 		H    0.479075   1.578489   0.113566
| 21> 		H    2.163977  -1.265637  -0.057348
| 22> 		H    2.723399   0.639274  -0.207216
| 23> *
| 24>
| 25>                          ****END OF INPUT****

CARTESIAN COORDINATES (ANGSTROEM)
---------------------------------
  C     -0.550103   -0.443570   -0.023053
  O     -0.623644   -1.696515    0.013293
  C      0.615380    0.444948    0.022686
  C      1.872733   -0.089031    0.007822
  H     -1.552862    0.310470   -0.151737
  H      0.479075    1.578489    0.113566
  H      2.163977   -1.265637   -0.057348
  H      2.723399    0.639274   -0.207216

 Total Charge           Charge          ....    0
 Multiplicity           Mult            ....    1
 Number of Electrons    NEL             ....   30
 Basis Dimension        Dim             ....   24

ORBITAL ENERGIES
----------------

  NO   OCC          E(Eh)            E(eV)
   0   2.0000     -20.340117      -553.4827
   1   2.0000     -11.276733      -306.8555
   2   2.0000     -11.190335      -304.5045
   3   2.0000     -11.180082      -304.2255
   4   2.0000      -1.354705       -36.8634
   5   2.0000      -1.061326       -28.8801
   6   2.0000      -0.870283       -23.6816
   7   2.0000      -0.706928       -19.2365
   8   2.0000      -0.666286       -18.1306
   9   2.0000      -0.591339       -16.0912
  10   2.0000      -0.555616       -15.1191
  11   2.0000      -0.519881       -14.1467
  12   2.0000      -0.506765       -13.7898
  13   2.0000      -0.389492       -10.5986
  14   2.0000      -0.375637       -10.2216
  15   0.0000       0.124126         3.3776
  16   0.0000       0.305612         8.3161
  17   0.0000       0.475566        12.9408
  18   0.0000       0.523122        14.2349
  19   0.0000       0.561300        15.2738

MULLIKEN ATOMIC CHARGES
-----------------------
   0 C :    0.174066
   1 O :   -0.364511
   2 C :   -0.192813
   3 C :   -0.181538
   4 H :    0.117807
   5 H :    0.145379
   6 H :    0.163946
   7 H :    0.137663
Sum of atomic charges:   -0.0000000

LOEWDIN ATOMIC CHARGES
----------------------
   0 C :    0.154454
   1 O :   -0.283946
   2 C :   -0.156694
   3 C :   -0.092827
   4 H :    0.069875
   5 H :    0.098371
   6 H :    0.118844
   7 H :    0.091922

  Mayer bond orders larger than 0.100000
B(  0-C ,  1-O ) :   1.8915 B(  0-C ,  2-C ) :   1.0505 B(  0-C ,  4-H ) :   0.9095
B(  2-C ,  3-C ) :   1.9113 B(  2-C ,  5-H ) :   0.9563 B(  3-C ,  6-H ) :   0.9543
B(  3-C ,  7-H ) :   0.9639

-----------------------------------------------------------------------------
         ABSORPTION SPECTRUM VIA TRANSITION ELECTRIC DIPOLE MOMENTS
-----------------------------------------------------------------------------
State   Energy    Wavelength  fosc         T2        TX        TY        TZ
        (cm-1)      (nm)                 (au**2)    (au)      (au)      (au)
-----------------------------------------------------------------------------
   1   30683.9    325.9   0.000014138   0.00015   0.00433  -0.00255  -0.01124

Dispersion correction           -0.024752512
FINAL SINGLE POINT ENERGY      -189.311355883427

DIPOLE MOMENT
-------------
                                X             Y             Z
Electronic contribution:     -1.87106      -1.93031       0.20171
Nuclear contribution   :      2.41653       2.96865      -0.28362
                        -----------------------------------------
Total Dipole Moment    :      0.54547       1.03834      -0.08192
                        -----------------------------------------
Magnitude (a.u.)       :      1.17575
Magnitude (Debye)      :      2.98853

Rotational constants in cm-1:     0.717552     0.197301     0.155032
Rotational constants in MHz : 21511.656145  5914.939011  4647.733674

                             ****ORCA TERMINATED NORMALLY****
TOTAL RUN TIME: 0 days 0 hours 0 minutes 10 seconds 743 msec
