                         Program Version 5.0.3 -  RELEASE  -
|  1> ! HF-3c
|  2> !TightSCF
|  3> %scf
|  4>  ConvForced true
|  5>  convergence tight
|  6>  MaxIter 500
|  7> end
|  8>
|  9> %tddft
| 10>  nroots 1
| 11> end
| 12>
| 13> # 	10923
| 14> * xyz 0 1
| 15> 		C   -1.153863  -0.312045   0.051833
| 16> 		O   -1.234926  -1.498223   0.252144
| 17> 		C    0.032437   0.472763   0.146433
| 18> 		C    1.205673  -0.040883  -0.033076
| 19> 		H   -2.098944   0.149689  -0.377283
| 20> 		H    0.002582   1.700824   0.160881
| 21> 		H    1.332761  -1.139748   0.007885
| 22> 		H    1.961094   0.646387  -0.205674
| 23> *
| 24>
| 25>                          ****END OF INPUT****

CARTESIAN COORDINATES (ANGSTROEM)
---------------------------------
  C     -1.153863   -0.312045    0.051833
  O     -1.234926   -1.498223    0.252144
  C      0.032437    0.472763    0.146433
  C      1.205673   -0.040883   -0.033076
  H     -2.098944    0.149689   -0.377283
  H      0.002582    1.700824    0.160881
  H      1.332761   -1.139748    0.007885
  H      1.961094    0.646387   -0.205674

 Total Charge           Charge          ....    0
 Multiplicity           Mult            ....    1
 Number of Electrons    NEL             ....   30
 Basis Dimension        Dim             ....   24

ORBITAL ENERGIES
----------------

  NO   OCC          E(Eh)            E(eV)
   0   2.0000     -20.357785      -553.9635
   1   2.0000     -11.295607      -307.3691
   2   2.0000     -11.192451      -304.5621
   3   2.0000     -11.190931      -304.5207
   4   2.0000      -1.403741       -38.1977
   5   2.0000      -1.099465       -29.9180
   6   2.0000      -0.895716       -24.3737
   7   2.0000      -0.735373       -20.0105
   8   2.0000      -0.703961       -19.1558
   9   2.0000      -0.612616       -16.6701
  10   2.0000      -0.603287       -16.4163
  11   2.0000      -0.548724       -14.9315
  12   2.0000      -0.506783       -13.7903
  13   2.0000      -0.411388       -11.1944
  14   2.0000      -0.401609       -10.9283
  15   0.0000       0.140497         3.8231
  16   0.0000       0.308227         8.3873
  17   0.0000       0.492684        13.4066
  18   0.0000       0.606197        16.4955
  19   0.0000       0.634879        17.2759

MULLIKEN ATOMIC CHARGES
-----------------------
   0 C :    0.159558
   1 O :   -0.357070
   2 C :   -0.164285
   3 C :   -0.235525
   4 H :    0.137071
   5 H :    0.147980
   6 H :    0.164843
   7 H :    0.147428
Sum of atomic charges:    0.0000000

LOEWDIN ATOMIC CHARGES
----------------------
   0 C :    0.140563
   1 O :   -0.263717
   2 C :   -0.128872
   3 C :   -0.133419
   4 H :    0.075883
   5 H :    0.105586
   6 H :    0.111235
   7 H :    0.092742

  Mayer bond orders larger than 0.100000
B(  0-C ,  1-O ) :   1.8972 B(  0-C ,  2-C ) :   1.0424 B(  0-C ,  4-H ) :   0.9219
B(  2-C ,  3-C ) :   1.9445 B(  2-C ,  5-H ) :   0.9487 B(  3-C ,  6-H ) :   0.9546
B(  3-C ,  7-H ) :   0.9639

-----------------------------------------------------------------------------
         ABSORPTION SPECTRUM VIA TRANSITION ELECTRIC DIPOLE MOMENTS
-----------------------------------------------------------------------------
State   Energy    Wavelength  fosc         T2        TX        TY        TZ
        (cm-1)      (nm)                 (au**2)    (au)      (au)      (au)
-----------------------------------------------------------------------------
   1   32799.9    304.9   0.000080088   0.00080   0.02321   0.00109  -0.01625

Dispersion correction           -0.026042685
FINAL SINGLE POINT ENERGY      -189.313429534847

DIPOLE MOMENT
-------------
                                X             Y             Z
Electronic contribution:     -1.93852      -1.69999       0.52126
Nuclear contribution   :      2.28379       2.67322      -0.76122
                        -----------------------------------------
Total Dipole Moment    :      0.34527       0.97323      -0.23996
                        -----------------------------------------
Magnitude (a.u.)       :      1.06017
Magnitude (Debye)      :      2.69475

Rotational constants in cm-1:     0.812359     0.211252     0.169767
Rotational constants in MHz : 24353.918233  6333.173935  5089.479078

                             ****ORCA TERMINATED NORMALLY****
TOTAL RUN TIME: 0 days 0 hours 0 minutes 12 seconds 735 msec
