                         Program Version 5.0.3 -  RELEASE  -
|  1> ! B3LYP cc-pVDZ
|  2> !TightSCF
|  3> %scf
|  4>  ConvForced true
|  5>  convergence tight
|  6>  MaxIter 500
|  7> end
|  8>
|  9> %tddft
| 10>  nroots 1
| 11> end
| 12>
| 13> # 	17692
| 14> * xyz 0 1
| 15> 		C   -1.180376  -0.356841   0.053385
| 16> 		O   -1.947363  -0.832304   0.890537
| 17> 		C    0.024526   0.395883   0.323300
| 18> 		C    1.200397   0.080568  -0.142105
| 19> 		H   -1.279350  -0.480770  -1.075343
| 20> 		H   -0.143424   1.223772   1.019561
| 21> 		H    1.241802  -0.715952  -1.054428
| 22> 		H    2.123201   0.731005   0.046197
| 23> *
| 24>
| 25>                          ****END OF INPUT****

CARTESIAN COORDINATES (ANGSTROEM)
---------------------------------
  C     -1.180376   -0.356841    0.053385
  O     -1.947363   -0.832304    0.890537
  C      0.024526    0.395883    0.323300
  C      1.200397    0.080568   -0.142105
  H     -1.279350   -0.480770   -1.075343
  H     -0.143424    1.223772    1.019561
  H      1.241802   -0.715952   -1.054428
  H      2.123201    0.731005    0.046197

 Total Charge           Charge          ....    0
 Multiplicity           Mult            ....    1
 Number of Electrons    NEL             ....   30
 Basis Dimension        Dim             ....   76

ORBITAL ENERGIES
----------------

  NO   OCC          E(Eh)            E(eV)
   0   2.0000     -19.148357      -521.0533
   1   2.0000     -10.283331      -279.8237
   2   2.0000     -10.224609      -278.2257
   3   2.0000     -10.204763      -277.6857
   4   2.0000      -1.041292       -28.3350
   5   2.0000      -0.811400       -22.0793
   6   2.0000      -0.652955       -17.7678
   7   2.0000      -0.558333       -15.1930
   8   2.0000      -0.476539       -12.9673
   9   2.0000      -0.464915       -12.6510
  10   2.0000      -0.439307       -11.9541
  11   2.0000      -0.388631       -10.5752
  12   2.0000      -0.367803       -10.0084
  13   2.0000      -0.296519        -8.0687
  14   2.0000      -0.259607        -7.0643
  15   0.0000      -0.061139        -1.6637
  16   0.0000       0.018932         0.5152
  17   0.0000       0.064080         1.7437
  18   0.0000       0.079203         2.1552
  19   0.0000       0.107029         2.9124

MULLIKEN ATOMIC CHARGES
-----------------------
   0 C :    0.164679
   1 O :   -0.197285
   2 C :   -0.039851
   3 C :   -0.027625
   4 H :   -0.012190
   5 H :    0.013552
   6 H :    0.044676
   7 H :    0.054043
Sum of atomic charges:    0.0000000

LOEWDIN ATOMIC CHARGES
----------------------
   0 C :   -0.019463
   1 O :   -0.007386
   2 C :   -0.071062
   3 C :   -0.033045
   4 H :   -0.002948
   5 H :    0.038784
   6 H :    0.048449
   7 H :    0.046671

  Mayer bond orders larger than 0.100000
B(  0-C ,  1-O ) :   2.1881 B(  0-C ,  2-C ) :   1.0383 B(  0-C ,  4-H ) :   0.9057
B(  2-C ,  3-C ) :   1.9923 B(  2-C ,  5-H ) :   0.9361 B(  3-C ,  6-H ) :   0.9300
B(  3-C ,  7-H ) :   0.9331

-----------------------------------------------------------------------------
         ABSORPTION SPECTRUM VIA TRANSITION ELECTRIC DIPOLE MOMENTS
-----------------------------------------------------------------------------
State   Energy    Wavelength  fosc         T2        TX        TY        TZ
        (cm-1)      (nm)                 (au**2)    (au)      (au)      (au)
-----------------------------------------------------------------------------
   1   29998.5    333.3   0.000121749   0.00134  -0.02570   0.01604   0.02045

FINAL SINGLE POINT ENERGY      -191.650423609548

DIPOLE MOMENT
-------------
                                X             Y             Z
Electronic contribution:     -2.93918      -0.92378       1.51278
Nuclear contribution   :      3.71951       1.44583      -2.05977
                        -----------------------------------------
Total Dipole Moment    :      0.78033       0.52204      -0.54699
                        -----------------------------------------
Magnitude (a.u.)       :      1.08657
Magnitude (Debye)      :      2.76184

Rotational constants in cm-1:     1.288039     0.157581     0.150609
Rotational constants in MHz : 38614.425841  4724.163175  4515.157601

                             ****ORCA TERMINATED NORMALLY****
TOTAL RUN TIME: 0 days 0 hours 3 minutes 20 seconds 457 msec
