                         Program Version 5.0.3 -  RELEASE  -
|  1> ! B3LYP cc-pVDZ
|  2> !TightSCF
|  3> %scf
|  4>  ConvForced true
|  5>  convergence tight
|  6>  MaxIter 500
|  7> end
|  8>
|  9> %tddft
| 10>  nroots 1
| 11> end
| 12>
| 13> # 	12154
| 14> * xyz 0 1
| 15> 		C   -1.192915  -0.324620   0.087595
| 16> 		O   -1.980782  -0.817382   0.866341
| 17> 		C    0.004863   0.417030   0.301657
| 18> 		C    1.212299   0.084754  -0.158540
| 19> 		H   -1.321063  -0.662352  -1.052165
| 20> 		H   -0.099033   1.246907   1.037320
| 21> 		H    1.221103  -0.689921  -1.017527
| 22> 		H    2.145558   0.702767  -0.050368
| 23> *
| 24>
| 25>                          ****END OF INPUT****

CARTESIAN COORDINATES (ANGSTROEM)
---------------------------------
  C     -1.192915   -0.324620    0.087595
  O     -1.980782   -0.817382    0.866341
  C      0.004863    0.417030    0.301657
  C      1.212299    0.084754   -0.158540
  H     -1.321063   -0.662352   -1.052165
  H     -0.099033    1.246907    1.037320
  H      1.221103   -0.689921   -1.017527
  H      2.145558    0.702767   -0.050368

 Total Charge           Charge          ....    0
 Multiplicity           Mult            ....    1
 Number of Electrons    NEL             ....   30
 Basis Dimension        Dim             ....   76

ORBITAL ENERGIES
----------------

  NO   OCC          E(Eh)            E(eV)
   0   2.0000     -19.146456      -521.0015
   1   2.0000     -10.284097      -279.8445
   2   2.0000     -10.227691      -278.3096
   3   2.0000     -10.214506      -277.9508
   4   2.0000      -1.050752       -28.5924
   5   2.0000      -0.810465       -22.0539
   6   2.0000      -0.656889       -17.8749
   7   2.0000      -0.553976       -15.0745
   8   2.0000      -0.478652       -13.0248
   9   2.0000      -0.469998       -12.7893
  10   2.0000      -0.437532       -11.9059
  11   2.0000      -0.396796       -10.7974
  12   2.0000      -0.371698       -10.1144
  13   2.0000      -0.296235        -8.0610
  14   2.0000      -0.255171        -6.9436
  15   0.0000      -0.067314        -1.8317
  16   0.0000       0.019568         0.5325
  17   0.0000       0.072050         1.9606
  18   0.0000       0.077782         2.1166
  19   0.0000       0.109765         2.9868

MULLIKEN ATOMIC CHARGES
-----------------------
   0 C :    0.141527
   1 O :   -0.176837
   2 C :   -0.051700
   3 C :   -0.000939
   4 H :   -0.029347
   5 H :    0.020093
   6 H :    0.041127
   7 H :    0.056076
Sum of atomic charges:   -0.0000000

LOEWDIN ATOMIC CHARGES
----------------------
   0 C :   -0.043864
   1 O :    0.008444
   2 C :   -0.069633
   3 C :   -0.012624
   4 H :   -0.009260
   5 H :    0.041351
   6 H :    0.041506
   7 H :    0.044080

  Mayer bond orders larger than 0.100000
B(  0-C ,  1-O ) :   2.2047 B(  0-C ,  2-C ) :   1.0456 B(  0-C ,  4-H ) :   0.8960
B(  2-C ,  3-C ) :   1.9767 B(  2-C ,  5-H ) :   0.9306 B(  3-C ,  6-H ) :   0.9353
B(  3-C ,  7-H ) :   0.9407

-----------------------------------------------------------------------------
         ABSORPTION SPECTRUM VIA TRANSITION ELECTRIC DIPOLE MOMENTS
-----------------------------------------------------------------------------
State   Energy    Wavelength  fosc         T2        TX        TY        TZ
        (cm-1)      (nm)                 (au**2)    (au)      (au)      (au)
-----------------------------------------------------------------------------
   1   28575.1    350.0   0.000301030   0.00347  -0.00959  -0.03610  -0.04553

FINAL SINGLE POINT ENERGY      -191.658979299429

DIPOLE MOMENT
-------------
                                X             Y             Z
Electronic contribution:     -2.89823      -0.72860       1.58266
Nuclear contribution   :      3.77510       1.24371      -2.04729
                        -----------------------------------------
Total Dipole Moment    :      0.87687       0.51511      -0.46463
                        -----------------------------------------
Magnitude (a.u.)       :      1.11809
Magnitude (Debye)      :      2.84195

Rotational constants in cm-1:     1.338705     0.155065     0.147974
Rotational constants in MHz : 40133.369776  4648.739885  4436.159515

                             ****ORCA TERMINATED NORMALLY****
TOTAL RUN TIME: 0 days 0 hours 2 minutes 54 seconds 289 msec
