                         Program Version 5.0.3 -  RELEASE  -
|  1> ! HF-3c
|  2> !TightSCF
|  3> %scf
|  4>  ConvForced true
|  5>  convergence tight
|  6>  MaxIter 500
|  7> end
|  8>
|  9> %tddft
| 10>  nroots 1
| 11> end
| 12>
| 13> # 	15018
| 14> * xyz 0 1
| 15> 		C   -1.133214  -0.391547   0.088027
| 16> 		O   -2.164227  -0.587074   0.724595
| 17> 		C    0.003125   0.371799   0.278088
| 18> 		C    1.188715   0.219457  -0.297739
| 19> 		H   -1.201560  -0.893358  -0.915220
| 20> 		H   -0.089098   1.244863   1.079643
| 21> 		H    1.271048  -0.486569  -0.912072
| 22> 		H    2.153008   0.510681  -0.048349
| 23> *
| 24>
| 25>                          ****END OF INPUT****

CARTESIAN COORDINATES (ANGSTROEM)
---------------------------------
  C     -1.133214   -0.391547    0.088027
  O     -2.164227   -0.587074    0.724595
  C      0.003125    0.371799    0.278088
  C      1.188715    0.219457   -0.297739
  H     -1.201560   -0.893358   -0.915220
  H     -0.089098    1.244863    1.079643
  H      1.271048   -0.486569   -0.912072
  H      2.153008    0.510681   -0.048349

 Total Charge           Charge          ....    0
 Multiplicity           Mult            ....    1
 Number of Electrons    NEL             ....   30
 Basis Dimension        Dim             ....   24

ORBITAL ENERGIES
----------------

  NO   OCC          E(Eh)            E(eV)
   0   2.0000     -20.366388      -554.1976
   1   2.0000     -11.298575      -307.4499
   2   2.0000     -11.216895      -305.2272
   3   2.0000     -11.210818      -305.0619
   4   2.0000      -1.392602       -37.8946
   5   2.0000      -1.116587       -30.3839
   6   2.0000      -0.929160       -25.2837
   7   2.0000      -0.780300       -21.2330
   8   2.0000      -0.694199       -18.8901
   9   2.0000      -0.667992       -18.1770
  10   2.0000      -0.587893       -15.9974
  11   2.0000      -0.559380       -15.2215
  12   2.0000      -0.521991       -14.2041
  13   2.0000      -0.417352       -11.3567
  14   2.0000      -0.398196       -10.8355
  15   0.0000       0.105492         2.8706
  16   0.0000       0.300107         8.1663
  17   0.0000       0.515290        14.0218
  18   0.0000       0.612471        16.6662
  19   0.0000       0.680727        18.5235

MULLIKEN ATOMIC CHARGES
-----------------------
   0 C :    0.146879
   1 O :   -0.336497
   2 C :   -0.148510
   3 C :   -0.258605
   4 H :    0.132535
   5 H :    0.160816
   6 H :    0.140106
   7 H :    0.163275
Sum of atomic charges:   -0.0000000

LOEWDIN ATOMIC CHARGES
----------------------
   0 C :    0.133690
   1 O :   -0.250283
   2 C :   -0.105368
   3 C :   -0.144618
   4 H :    0.070398
   5 H :    0.112101
   6 H :    0.078787
   7 H :    0.105292

  Mayer bond orders larger than 0.100000
B(  0-C ,  1-O ) :   1.8841 B(  0-C ,  2-C ) :   1.0744 B(  0-C ,  4-H ) :   0.9231
B(  2-C ,  3-C ) :   1.9259 B(  2-C ,  5-H ) :   0.9415 B(  3-C ,  6-H ) :   0.9667
B(  3-C ,  7-H ) :   0.9624

-----------------------------------------------------------------------------
         ABSORPTION SPECTRUM VIA TRANSITION ELECTRIC DIPOLE MOMENTS
-----------------------------------------------------------------------------
State   Energy    Wavelength  fosc         T2        TX        TY        TZ
        (cm-1)      (nm)                 (au**2)    (au)      (au)      (au)
-----------------------------------------------------------------------------
   1   28953.9    345.4   0.000160612   0.00183   0.03291   0.01199  -0.02448

Dispersion correction           -0.025669362
FINAL SINGLE POINT ENERGY      -189.297548647726

DIPOLE MOMENT
-------------
                                X             Y             Z
Electronic contribution:     -3.06541      -0.53449       1.09812
Nuclear contribution   :      4.10449       0.78826      -1.51637
                        -----------------------------------------
Total Dipole Moment    :      1.03909       0.25377      -0.41826
                        -----------------------------------------
Magnitude (a.u.)       :      1.14849
Magnitude (Debye)      :      2.91924

Rotational constants in cm-1:     1.823290     0.151574     0.141694
Rotational constants in MHz : 54660.860734  4544.059709  4247.882453

                             ****ORCA TERMINATED NORMALLY****
TOTAL RUN TIME: 0 days 0 hours 0 minutes 10 seconds 353 msec
