                         Program Version 5.0.3 -  RELEASE  -
|  1> ! HF-3c
|  2> !TightSCF
|  3> %scf
|  4>  ConvForced true
|  5>  convergence tight
|  6>  MaxIter 500
|  7> end
|  8>
|  9> %tddft
| 10>  nroots 1
| 11> end
| 12>
| 13> # 	20277
| 14> * xyz 0 1
| 15> 		C   -0.539412  -0.413654   0.110623
| 16> 		O   -0.586490  -1.649874  -0.060143
| 17> 		C    0.607850   0.466701  -0.045523
| 18> 		C    1.826495  -0.158026  -0.005395
| 19> 		H   -1.514627  -0.004376   0.080095
| 20> 		H    0.427997   1.469432  -0.282158
| 21> 		H    2.033298  -1.240752   0.357284
| 22> 		H    2.755304   0.465617   0.071984
| 23> *
| 24>
| 25>                          ****END OF INPUT****

CARTESIAN COORDINATES (ANGSTROEM)
---------------------------------
  C     -0.539412   -0.413654    0.110623
  O     -0.586490   -1.649874   -0.060143
  C      0.607850    0.466701   -0.045523
  C      1.826495   -0.158026   -0.005395
  H     -1.514627   -0.004376    0.080095
  H      0.427997    1.469432   -0.282158
  H      2.033298   -1.240752    0.357284
  H      2.755304    0.465617    0.071984

 Total Charge           Charge          ....    0
 Multiplicity           Mult            ....    1
 Number of Electrons    NEL             ....   30
 Basis Dimension        Dim             ....   24

ORBITAL ENERGIES
----------------

  NO   OCC          E(Eh)            E(eV)
   0   2.0000     -20.340050      -553.4809
   1   2.0000     -11.277025      -306.8635
   2   2.0000     -11.196462      -304.6712
   3   2.0000     -11.192819      -304.5721
   4   2.0000      -1.367564       -37.2133
   5   2.0000      -1.074235       -29.2314
   6   2.0000      -0.889294       -24.1989
   7   2.0000      -0.752627       -20.4800
   8   2.0000      -0.701824       -19.0976
   9   2.0000      -0.608582       -16.5604
  10   2.0000      -0.569506       -15.4970
  11   2.0000      -0.528634       -14.3849
  12   2.0000      -0.521971       -14.2036
  13   2.0000      -0.409895       -11.1538
  14   2.0000      -0.379132       -10.3167
  15   0.0000       0.119503         3.2518
  16   0.0000       0.286404         7.7935
  17   0.0000       0.530920        14.4471
  18   0.0000       0.612897        16.6778
  19   0.0000       0.642178        17.4746

MULLIKEN ATOMIC CHARGES
-----------------------
   0 C :    0.136267
   1 O :   -0.350261
   2 C :   -0.195721
   3 C :   -0.180445
   4 H :    0.135658
   5 H :    0.151428
   6 H :    0.163549
   7 H :    0.139524
Sum of atomic charges:    0.0000000

LOEWDIN ATOMIC CHARGES
----------------------
   0 C :    0.133257
   1 O :   -0.270401
   2 C :   -0.145853
   3 C :   -0.087522
   4 H :    0.069721
   5 H :    0.095204
   6 H :    0.114012
   7 H :    0.091583

  Mayer bond orders larger than 0.100000
B(  0-C ,  1-O ) :   1.8797 B(  0-C ,  2-C ) :   1.0546 B(  0-C ,  4-H ) :   0.9403
B(  2-C ,  3-C ) :   1.9127 B(  2-C ,  5-H ) :   0.9591 B(  3-C ,  6-H ) :   0.9579
B(  3-C ,  7-H ) :   0.9657

-----------------------------------------------------------------------------
         ABSORPTION SPECTRUM VIA TRANSITION ELECTRIC DIPOLE MOMENTS
-----------------------------------------------------------------------------
State   Energy    Wavelength  fosc         T2        TX        TY        TZ
        (cm-1)      (nm)                 (au**2)    (au)      (au)      (au)
-----------------------------------------------------------------------------
   1   29113.6    343.5   0.000024145   0.00027  -0.00955  -0.00435  -0.01276

Dispersion correction           -0.025577136
FINAL SINGLE POINT ENERGY      -189.332802908800

DIPOLE MOMENT
-------------
                                X             Y             Z
Electronic contribution:     -1.81266      -1.54055      -0.08033
Nuclear contribution   :      2.31475       2.43470       0.21335
                        -----------------------------------------
Total Dipole Moment    :      0.50209       0.89415       0.13302
                        -----------------------------------------
Magnitude (a.u.)       :      1.03406
Magnitude (Debye)      :      2.62838

Rotational constants in cm-1:     0.723242     0.211522     0.165102
Rotational constants in MHz : 21682.261510  6341.280257  4949.628373

                             ****ORCA TERMINATED NORMALLY****
TOTAL RUN TIME: 0 days 0 hours 0 minutes 11 seconds 680 msec
