                         Program Version 5.0.3 -  RELEASE  -
|  1> ! B3LYP cc-pVDZ
|  2> !TightSCF
|  3> %scf
|  4>  ConvForced true
|  5>  convergence tight
|  6>  MaxIter 500
|  7> end
|  8>
|  9> %tddft
| 10>  nroots 1
| 11> end
| 12>
| 13> # 	25755
| 14> * xyz 0 1
| 15> 		C   -0.634585  -0.444300   0.003146
| 16> 		O   -0.571304  -1.622865  -0.003225
| 17> 		C    0.644320   0.371427   0.009633
| 18> 		C    1.857518  -0.103981  -0.011920
| 19> 		H   -1.627167   0.205744   0.005861
| 20> 		H    0.652098   1.477329  -0.062274
| 21> 		H    2.026545  -1.142205   0.052749
| 22> 		H    2.733836   0.590226   0.043386
| 23> *
| 24>
| 25>                          ****END OF INPUT****

CARTESIAN COORDINATES (ANGSTROEM)
---------------------------------
  C     -0.634585   -0.444300    0.003146
  O     -0.571304   -1.622865   -0.003225
  C      0.644320    0.371427    0.009633
  C      1.857518   -0.103981   -0.011920
  H     -1.627167    0.205744    0.005861
  H      0.652098    1.477329   -0.062274
  H      2.026545   -1.142205    0.052749
  H      2.733836    0.590226    0.043386

 Total Charge           Charge          ....    0
 Multiplicity           Mult            ....    1
 Number of Electrons    NEL             ....   30
 Basis Dimension        Dim             ....   76

ORBITAL ENERGIES
----------------

  NO   OCC          E(Eh)            E(eV)
   0   2.0000     -19.147354      -521.0260
   1   2.0000     -10.287208      -279.9292
   2   2.0000     -10.201367      -277.5933
   3   2.0000     -10.197230      -277.4807
   4   2.0000      -1.071142       -29.1473
   5   2.0000      -0.794493       -21.6192
   6   2.0000      -0.644569       -17.5396
   7   2.0000      -0.538653       -14.6575
   8   2.0000      -0.507948       -13.8220
   9   2.0000      -0.452883       -12.3236
  10   2.0000      -0.425705       -11.5840
  11   2.0000      -0.412402       -11.2220
  12   2.0000      -0.372424       -10.1342
  13   2.0000      -0.291475        -7.9314
  14   2.0000      -0.261112        -7.1052
  15   0.0000      -0.061644        -1.6774
  16   0.0000       0.061227         1.6661
  17   0.0000       0.067216         1.8290
  18   0.0000       0.088440         2.4066
  19   0.0000       0.120153         3.2695

MULLIKEN ATOMIC CHARGES
-----------------------
   0 C :    0.163908
   1 O :   -0.151618
   2 C :   -0.121846
   3 C :    0.082169
   4 H :   -0.005665
   5 H :   -0.014384
   6 H :    0.012246
   7 H :    0.035189
Sum of atomic charges:    0.0000000

LOEWDIN ATOMIC CHARGES
----------------------
   0 C :   -0.048251
   1 O :    0.034278
   2 C :   -0.091177
   3 C :    0.015422
   4 H :   -0.000005
   5 H :    0.029466
   6 H :    0.018415
   7 H :    0.041852

  Mayer bond orders larger than 0.100000
B(  0-C ,  1-O ) :   2.2380 B(  0-C ,  2-C ) :   0.9953 B(  0-C ,  4-H ) :   0.8946
B(  2-C ,  3-C ) :   2.0180 B(  2-C ,  5-H ) :   0.9306 B(  3-C ,  6-H ) :   0.9356
B(  3-C ,  7-H ) :   0.9354

-----------------------------------------------------------------------------
         ABSORPTION SPECTRUM VIA TRANSITION ELECTRIC DIPOLE MOMENTS
-----------------------------------------------------------------------------
State   Energy    Wavelength  fosc         T2        TX        TY        TZ
        (cm-1)      (nm)                 (au**2)    (au)      (au)      (au)
-----------------------------------------------------------------------------
   1   30661.9    326.1   0.000188778   0.00203   0.02863   0.00333  -0.03459

FINAL SINGLE POINT ENERGY      -191.658137017198

DIPOLE MOMENT
-------------
                                X             Y             Z
Electronic contribution:     -2.08577      -2.06128      -0.02553
Nuclear contribution   :      2.39353       2.84809       0.03730
                        -----------------------------------------
Total Dipole Moment    :      0.30776       0.78681       0.01178
                        -----------------------------------------
Magnitude (a.u.)       :      0.84494
Magnitude (Debye)      :      2.14767

Rotational constants in cm-1:     0.797883     0.205115     0.163206
Rotational constants in MHz : 23919.933347  6149.184759  4892.779240

                             ****ORCA TERMINATED NORMALLY****
TOTAL RUN TIME: 0 days 0 hours 3 minutes 22 seconds 821 msec
