                         Program Version 5.0.3 -  RELEASE  -
|  1> ! HF-3c
|  2> !TightSCF
|  3> %scf
|  4>  ConvForced true
|  5>  convergence tight
|  6>  MaxIter 500
|  7> end
|  8>
|  9> %tddft
| 10>  nroots 1
| 11> end
| 12>
| 13> # 	10345
| 14> * xyz 0 1
| 15> 		C   -1.227356  -0.313157  -0.046701
| 16> 		O   -1.465310  -1.289084   0.712463
| 17> 		C    0.036363   0.536550   0.122674
| 18> 		C    1.218850  -0.008825  -0.109174
| 19> 		H   -1.902073  -0.108767  -0.782680
| 20> 		H   -0.024749   1.569287   0.599196
| 21> 		H    1.315310  -0.875231  -0.453553
| 22> 		H    2.063535   0.536136  -0.131948
| 23> *
| 24>
| 25>                          ****END OF INPUT****

CARTESIAN COORDINATES (ANGSTROEM)
---------------------------------
  C     -1.227356   -0.313157   -0.046701
  O     -1.465310   -1.289084    0.712463
  C      0.036363    0.536550    0.122674
  C      1.218850   -0.008825   -0.109174
  H     -1.902073   -0.108767   -0.782680
  H     -0.024749    1.569287    0.599196
  H      1.315310   -0.875231   -0.453553
  H      2.063535    0.536136   -0.131948

 Total Charge           Charge          ....    0
 Multiplicity           Mult            ....    1
 Number of Electrons    NEL             ....   30
 Basis Dimension        Dim             ....   24

ORBITAL ENERGIES
----------------

  NO   OCC          E(Eh)            E(eV)
   0   2.0000     -20.372655      -554.3681
   1   2.0000     -11.296888      -307.4039
   2   2.0000     -11.206305      -304.9391
   3   2.0000     -11.188944      -304.4666
   4   2.0000      -1.378925       -37.5225
   5   2.0000      -1.091101       -29.6904
   6   2.0000      -0.905152       -24.6304
   7   2.0000      -0.793800       -21.6004
   8   2.0000      -0.704502       -19.1705
   9   2.0000      -0.635962       -17.3054
  10   2.0000      -0.608938       -16.5700
  11   2.0000      -0.562502       -15.3065
  12   2.0000      -0.491322       -13.3695
  13   2.0000      -0.431593       -11.7442
  14   2.0000      -0.409090       -11.1319
  15   0.0000       0.159404         4.3376
  16   0.0000       0.212209         5.7745
  17   0.0000       0.533415        14.5150
  18   0.0000       0.608692        16.5634
  19   0.0000       0.764383        20.7999

MULLIKEN ATOMIC CHARGES
-----------------------
   0 C :    0.140767
   1 O :   -0.322122
   2 C :   -0.128715
   3 C :   -0.287632
   4 H :    0.147676
   5 H :    0.158868
   6 H :    0.143102
   7 H :    0.148055
Sum of atomic charges:    0.0000000

LOEWDIN ATOMIC CHARGES
----------------------
   0 C :    0.141753
   1 O :   -0.240940
   2 C :   -0.081893
   3 C :   -0.177889
   4 H :    0.077003
   5 H :    0.108580
   6 H :    0.081692
   7 H :    0.091693

  Mayer bond orders larger than 0.100000
B(  0-C ,  1-O ) :   1.9454 B(  0-C ,  2-C ) :   0.9884 B(  0-C ,  4-H ) :   0.9366
B(  2-C ,  3-C ) :   1.9944 B(  2-C ,  5-H ) :   0.9484 B(  3-C ,  6-H ) :   0.9681
B(  3-C ,  7-H ) :   0.9644

-----------------------------------------------------------------------------
         ABSORPTION SPECTRUM VIA TRANSITION ELECTRIC DIPOLE MOMENTS
-----------------------------------------------------------------------------
State   Energy    Wavelength  fosc         T2        TX        TY        TZ
        (cm-1)      (nm)                 (au**2)    (au)      (au)      (au)
-----------------------------------------------------------------------------
   1   31019.3    322.4   0.000032406   0.00034   0.01077  -0.00943  -0.01179

Dispersion correction           -0.025284026
FINAL SINGLE POINT ENERGY      -189.304195937618

DIPOLE MOMENT
-------------
                                X             Y             Z
Electronic contribution:     -2.54766      -1.35696       0.87446
Nuclear contribution   :      2.79514       2.16982      -1.39801
                        -----------------------------------------
Total Dipole Moment    :      0.24749       0.81286      -0.52356
                        -----------------------------------------
Magnitude (a.u.)       :      0.99805
Magnitude (Debye)      :      2.53684

Rotational constants in cm-1:     0.843723     0.180530     0.160740
Rotational constants in MHz : 25294.180272  5412.158029  4818.863659

                             ****ORCA TERMINATED NORMALLY****
TOTAL RUN TIME: 0 days 0 hours 0 minutes 16 seconds 12 msec
