                         Program Version 5.0.3 -  RELEASE  -
|  1> ! HF-3c
|  2> !TightSCF
|  3> %scf
|  4>  ConvForced true
|  5>  convergence tight
|  6>  MaxIter 500
|  7> end
|  8>
|  9> %tddft
| 10>  nroots 1
| 11> end
| 12>
| 13> # 	28889
| 14> * xyz 0 1
| 15> 		C   -0.606921  -0.425819   0.078884
| 16> 		O   -0.516388  -1.586580  -0.037783
| 17> 		C    0.628568   0.386155  -0.090471
| 18> 		C    1.774174  -0.186972   0.044731
| 19> 		H   -1.529099   0.318540   0.164544
| 20> 		H    0.711598   1.554000  -0.029073
| 21> 		H    1.952317  -1.149013   0.044150
| 22> 		H    2.635605   0.453890   0.020969
| 23> *
| 24>
| 25>                          ****END OF INPUT****

CARTESIAN COORDINATES (ANGSTROEM)
---------------------------------
  C     -0.606921   -0.425819    0.078884
  O     -0.516388   -1.586580   -0.037783
  C      0.628568    0.386155   -0.090471
  C      1.774174   -0.186972    0.044731
  H     -1.529099    0.318540    0.164544
  H      0.711598    1.554000   -0.029073
  H      1.952317   -1.149013    0.044150
  H      2.635605    0.453890    0.020969

 Total Charge           Charge          ....    0
 Multiplicity           Mult            ....    1
 Number of Electrons    NEL             ....   30
 Basis Dimension        Dim             ....   24

ORBITAL ENERGIES
----------------

  NO   OCC          E(Eh)            E(eV)
   0   2.0000     -20.385780      -554.7253
   1   2.0000     -11.311013      -307.7883
   2   2.0000     -11.181620      -304.2674
   3   2.0000     -11.178600      -304.1852
   4   2.0000      -1.440041       -39.1855
   5   2.0000      -1.091184       -29.6926
   6   2.0000      -0.887255       -24.1434
   7   2.0000      -0.745445       -20.2846
   8   2.0000      -0.712943       -19.4002
   9   2.0000      -0.628306       -17.0971
  10   2.0000      -0.591116       -16.0851
  11   2.0000      -0.563567       -15.3354
  12   2.0000      -0.529737       -14.4149
  13   2.0000      -0.408316       -11.1109
  14   2.0000      -0.403937       -10.9917
  15   0.0000       0.146171         3.9775
  16   0.0000       0.317807         8.6480
  17   0.0000       0.522471        14.2172
  18   0.0000       0.554168        15.0797
  19   0.0000       0.629711        17.1353

MULLIKEN ATOMIC CHARGES
-----------------------
   0 C :    0.194638
   1 O :   -0.357977
   2 C :   -0.164406
   3 C :   -0.250641
   4 H :    0.141889
   5 H :    0.142912
   6 H :    0.151454
   7 H :    0.142131
Sum of atomic charges:    0.0000000

LOEWDIN ATOMIC CHARGES
----------------------
   0 C :    0.158859
   1 O :   -0.248654
   2 C :   -0.129681
   3 C :   -0.142185
   4 H :    0.082808
   5 H :    0.097892
   6 H :    0.089316
   7 H :    0.091646

  Mayer bond orders larger than 0.100000
B(  0-C ,  1-O ) :   1.9321 B(  0-C ,  2-C ) :   0.9976 B(  0-C ,  4-H ) :   0.9048
B(  2-C ,  3-C ) :   1.9636 B(  2-C ,  5-H ) :   0.9552 B(  3-C ,  6-H ) :   0.9626
B(  3-C ,  7-H ) :   0.9639

-----------------------------------------------------------------------------
         ABSORPTION SPECTRUM VIA TRANSITION ELECTRIC DIPOLE MOMENTS
-----------------------------------------------------------------------------
State   Energy    Wavelength  fosc         T2        TX        TY        TZ
        (cm-1)      (nm)                 (au**2)    (au)      (au)      (au)
-----------------------------------------------------------------------------
   1   35217.8    283.9   0.000446084   0.00417   0.06444  -0.00389   0.00136

Dispersion correction           -0.026373444
FINAL SINGLE POINT ENERGY      -189.294731731905

DIPOLE MOMENT
-------------
                                X             Y             Z
Electronic contribution:     -2.26168      -1.88822      -0.07212
Nuclear contribution   :      2.37999       2.89011       0.18791
                        -----------------------------------------
Total Dipole Moment    :      0.11831       1.00189       0.11579
                        -----------------------------------------
Magnitude (a.u.)       :      1.01548
Magnitude (Debye)      :      2.58114

Rotational constants in cm-1:     0.760568     0.228172     0.176435
Rotational constants in MHz : 22801.245563  6840.412876  5289.399837

                             ****ORCA TERMINATED NORMALLY****
TOTAL RUN TIME: 0 days 0 hours 0 minutes 16 seconds 98 msec
