                         Program Version 5.0.3 -  RELEASE  -
|  1> ! HF-3c
|  2> !TightSCF
|  3> %scf
|  4>  ConvForced true
|  5>  convergence tight
|  6>  MaxIter 500
|  7> end
|  8>
|  9> %tddft
| 10>  nroots 1
| 11> end
| 12>
| 13> # 	27497
| 14> * xyz 0 1
| 15> 		C   -0.624666  -0.395160   0.046083
| 16> 		O   -0.545222  -1.628793  -0.027043
| 17> 		C    0.622998   0.388929  -0.013862
| 18> 		C    1.849483  -0.144446   0.020947
| 19> 		H   -1.588292   0.202664   0.054161
| 20> 		H    0.335504   1.476570  -0.237463
| 21> 		H    2.053353  -1.142149  -0.008354
| 22> 		H    2.748888   0.407382  -0.025483
| 23> *
| 24>
| 25>                          ****END OF INPUT****

CARTESIAN COORDINATES (ANGSTROEM)
---------------------------------
  C     -0.624666   -0.395160    0.046083
  O     -0.545222   -1.628793   -0.027043
  C      0.622998    0.388929   -0.013862
  C      1.849483   -0.144446    0.020947
  H     -1.588292    0.202664    0.054161
  H      0.335504    1.476570   -0.237463
  H      2.053353   -1.142149   -0.008354
  H      2.748888    0.407382   -0.025483

 Total Charge           Charge          ....    0
 Multiplicity           Mult            ....    1
 Number of Electrons    NEL             ....   30
 Basis Dimension        Dim             ....   24

ORBITAL ENERGIES
----------------

  NO   OCC          E(Eh)            E(eV)
   0   2.0000     -20.357087      -553.9445
   1   2.0000     -11.286860      -307.1311
   2   2.0000     -11.192014      -304.5502
   3   2.0000     -11.190576      -304.5111
   4   2.0000      -1.381597       -37.5952
   5   2.0000      -1.071533       -29.1579
   6   2.0000      -0.903600       -24.5882
   7   2.0000      -0.751138       -20.4395
   8   2.0000      -0.687792       -18.7158
   9   2.0000      -0.624374       -16.9901
  10   2.0000      -0.592281       -16.1168
  11   2.0000      -0.536130       -14.5888
  12   2.0000      -0.518937       -14.1210
  13   2.0000      -0.414147       -11.2695
  14   2.0000      -0.386246       -10.5103
  15   0.0000       0.123818         3.3693
  16   0.0000       0.301305         8.1989
  17   0.0000       0.515006        14.0140
  18   0.0000       0.613001        16.6806
  19   0.0000       0.664605        18.0848

MULLIKEN ATOMIC CHARGES
-----------------------
   0 C :    0.153281
   1 O :   -0.343894
   2 C :   -0.153375
   3 C :   -0.240385
   4 H :    0.141566
   5 H :    0.140033
   6 H :    0.156862
   7 H :    0.145912
Sum of atomic charges:    0.0000000

LOEWDIN ATOMIC CHARGES
----------------------
   0 C :    0.138856
   1 O :   -0.257663
   2 C :   -0.112966
   3 C :   -0.133525
   4 H :    0.081527
   5 H :    0.093315
   6 H :    0.097354
   7 H :    0.093102

  Mayer bond orders larger than 0.100000
B(  0-C ,  1-O ) :   1.9015 B(  0-C ,  2-C ) :   1.0341 B(  0-C ,  4-H ) :   0.9251
B(  2-C ,  3-C ) :   1.9473 B(  2-C ,  5-H ) :   0.9579 B(  3-C ,  6-H ) :   0.9616
B(  3-C ,  7-H ) :   0.9652

-----------------------------------------------------------------------------
         ABSORPTION SPECTRUM VIA TRANSITION ELECTRIC DIPOLE MOMENTS
-----------------------------------------------------------------------------
State   Energy    Wavelength  fosc         T2        TX        TY        TZ
        (cm-1)      (nm)                 (au**2)    (au)      (au)      (au)
-----------------------------------------------------------------------------
   1   30049.4    332.8   0.000028204   0.00031   0.01692   0.00460   0.00119

Dispersion correction           -0.025587217
FINAL SINGLE POINT ENERGY      -189.340652373913

DIPOLE MOMENT
-------------
                                X             Y             Z
Electronic contribution:     -2.01877      -1.70058       0.18307
Nuclear contribution   :      2.17626       2.67080      -0.20325
                        -----------------------------------------
Total Dipole Moment    :      0.15749       0.97021      -0.02018
                        -----------------------------------------
Magnitude (a.u.)       :      0.98312
Magnitude (Debye)      :      2.49889

Rotational constants in cm-1:     0.722193     0.214522     0.165736
Rotational constants in MHz : 21650.802139  6431.219570  4968.632788

                             ****ORCA TERMINATED NORMALLY****
TOTAL RUN TIME: 0 days 0 hours 0 minutes 13 seconds 487 msec
