                         Program Version 5.0.3 -  RELEASE  -
|  1> ! HF-3c
|  2> !TightSCF
|  3> %scf
|  4>  ConvForced true
|  5>  convergence tight
|  6>  MaxIter 500
|  7> end
|  8>
|  9> %tddft
| 10>  nroots 1
| 11> end
| 12>
| 13> # 	4968
| 14> * xyz 0 1
| 15> 		C   -1.176783  -0.321587   0.060856
| 16> 		O   -1.380665  -1.380017   0.671754
| 17> 		C    0.040727   0.575206   0.156750
| 18> 		C    1.202090  -0.018941  -0.119358
| 19> 		H   -1.883472  -0.001524  -0.697626
| 20> 		H   -0.160565   1.560950   0.352910
| 21> 		H    1.258549  -1.003865  -0.369936
| 22> 		H    2.082011   0.593535  -0.097081
| 23> *
| 24>
| 25>                          ****END OF INPUT****

CARTESIAN COORDINATES (ANGSTROEM)
---------------------------------
  C     -1.176783   -0.321587    0.060856
  O     -1.380665   -1.380017    0.671754
  C      0.040727    0.575206    0.156750
  C      1.202090   -0.018941   -0.119358
  H     -1.883472   -0.001524   -0.697626
  H     -0.160565    1.560950    0.352910
  H      1.258549   -1.003865   -0.369936
  H      2.082011    0.593535   -0.097081

 Total Charge           Charge          ....    0
 Multiplicity           Mult            ....    1
 Number of Electrons    NEL             ....   30
 Basis Dimension        Dim             ....   24

ORBITAL ENERGIES
----------------

  NO   OCC          E(Eh)            E(eV)
   0   2.0000     -20.367057      -554.2158
   1   2.0000     -11.290543      -307.2313
   2   2.0000     -11.199975      -304.7668
   3   2.0000     -11.193656      -304.5949
   4   2.0000      -1.383484       -37.6465
   5   2.0000      -1.090951       -29.6863
   6   2.0000      -0.895541       -24.3689
   7   2.0000      -0.774942       -21.0873
   8   2.0000      -0.701687       -19.0939
   9   2.0000      -0.627873       -17.0853
  10   2.0000      -0.611976       -16.6527
  11   2.0000      -0.562440       -15.3048
  12   2.0000      -0.502434       -13.6719
  13   2.0000      -0.415266       -11.3000
  14   2.0000      -0.405779       -11.0418
  15   0.0000       0.156565         4.2603
  16   0.0000       0.238569         6.4918
  17   0.0000       0.552727        15.0405
  18   0.0000       0.663872        18.0649
  19   0.0000       0.699973        19.0472

MULLIKEN ATOMIC CHARGES
-----------------------
   0 C :    0.163861
   1 O :   -0.340974
   2 C :   -0.166830
   3 C :   -0.242709
   4 H :    0.135355
   5 H :    0.151232
   6 H :    0.151909
   7 H :    0.148157
Sum of atomic charges:    0.0000000

LOEWDIN ATOMIC CHARGES
----------------------
   0 C :    0.152905
   1 O :   -0.254352
   2 C :   -0.113403
   3 C :   -0.139834
   4 H :    0.071354
   5 H :    0.093171
   6 H :    0.094129
   7 H :    0.096030

  Mayer bond orders larger than 0.100000
B(  0-C ,  1-O ) :   1.9407 B(  0-C ,  2-C ) :   0.9928 B(  0-C ,  4-H ) :   0.9263
B(  2-C ,  3-C ) :   1.9802 B(  2-C ,  5-H ) :   0.9583 B(  3-C ,  6-H ) :   0.9654
B(  3-C ,  7-H ) :   0.9633

-----------------------------------------------------------------------------
         ABSORPTION SPECTRUM VIA TRANSITION ELECTRIC DIPOLE MOMENTS
-----------------------------------------------------------------------------
State   Energy    Wavelength  fosc         T2        TX        TY        TZ
        (cm-1)      (nm)                 (au**2)    (au)      (au)      (au)
-----------------------------------------------------------------------------
   1   32743.2    305.4   0.000005854   0.00006  -0.00315   0.00622   0.00319

Dispersion correction           -0.025660038
FINAL SINGLE POINT ENERGY      -189.330832368500

DIPOLE MOMENT
-------------
                                X             Y             Z
Electronic contribution:     -2.18993      -1.44484       0.97058
Nuclear contribution   :      2.53922       2.27409      -1.49815
                        -----------------------------------------
Total Dipole Moment    :      0.34929       0.82925      -0.52757
                        -----------------------------------------
Magnitude (a.u.)       :      1.04307
Magnitude (Debye)      :      2.65127

Rotational constants in cm-1:     0.816779     0.188985     0.162116
Rotational constants in MHz : 24486.411891  5665.642531  4860.127809

                             ****ORCA TERMINATED NORMALLY****
TOTAL RUN TIME: 0 days 0 hours 0 minutes 16 seconds 67 msec
