                         Program Version 5.0.3 -  RELEASE  -
|  1> ! HF-3c
|  2> !TightSCF
|  3> %scf
|  4>  ConvForced true
|  5>  convergence tight
|  6>  MaxIter 500
|  7> end
|  8>
|  9> %tddft
| 10>  nroots 1
| 11> end
| 12>
| 13> # 	11369
| 14> * xyz 0 1
| 15> 		C   -1.151440  -0.321965  -0.076495
| 16> 		O   -1.681967  -0.992361   0.857937
| 17> 		C   -0.019237   0.532094   0.146133
| 18> 		C    1.248783   0.029582  -0.157084
| 19> 		H   -1.656612  -0.374977  -0.939391
| 20> 		H   -0.145455   1.513241   0.802685
| 21> 		H    1.352241  -1.001641  -0.680866
| 22> 		H    2.113252   0.606820   0.066677
| 23> *
| 24>
| 25>                          ****END OF INPUT****

CARTESIAN COORDINATES (ANGSTROEM)
---------------------------------
  C     -1.151440   -0.321965   -0.076495
  O     -1.681967   -0.992361    0.857937
  C     -0.019237    0.532094    0.146133
  C      1.248783    0.029582   -0.157084
  H     -1.656612   -0.374977   -0.939391
  H     -0.145455    1.513241    0.802685
  H      1.352241   -1.001641   -0.680866
  H      2.113252    0.606820    0.066677

 Total Charge           Charge          ....    0
 Multiplicity           Mult            ....    1
 Number of Electrons    NEL             ....   30
 Basis Dimension        Dim             ....   24

ORBITAL ENERGIES
----------------

  NO   OCC          E(Eh)            E(eV)
   0   2.0000     -20.356447      -553.9271
   1   2.0000     -11.287143      -307.1388
   2   2.0000     -11.188206      -304.4466
   3   2.0000     -11.178938      -304.1944
   4   2.0000      -1.368850       -37.2483
   5   2.0000      -1.062912       -28.9233
   6   2.0000      -0.890229       -24.2244
   7   2.0000      -0.774879       -21.0855
   8   2.0000      -0.666710       -18.1421
   9   2.0000      -0.625671       -17.0254
  10   2.0000      -0.585062       -15.9203
  11   2.0000      -0.538631       -14.6569
  12   2.0000      -0.470147       -12.7933
  13   2.0000      -0.424750       -11.5580
  14   2.0000      -0.380313       -10.3488
  15   0.0000       0.159687         4.3453
  16   0.0000       0.200548         5.4572
  17   0.0000       0.533491        14.5170
  18   0.0000       0.595337        16.1999
  19   0.0000       0.653043        17.7702

MULLIKEN ATOMIC CHARGES
-----------------------
   0 C :    0.117588
   1 O :   -0.324165
   2 C :   -0.158053
   3 C :   -0.225727
   4 H :    0.146670
   5 H :    0.161768
   6 H :    0.142996
   7 H :    0.138923
Sum of atomic charges:   -0.0000000

LOEWDIN ATOMIC CHARGES
----------------------
   0 C :    0.128229
   1 O :   -0.247807
   2 C :   -0.120418
   3 C :   -0.137435
   4 H :    0.074672
   5 H :    0.116189
   6 H :    0.098897
   7 H :    0.087673

  Mayer bond orders larger than 0.100000
B(  0-C ,  1-O ) :   1.9197 B(  0-C ,  2-C ) :   1.0270 B(  0-C ,  4-H ) :   0.9380
B(  2-C ,  3-C ) :   1.9701 B(  2-C ,  5-H ) :   0.9405 B(  3-C ,  6-H ) :   0.9646
B(  3-C ,  7-H ) :   0.9674

-----------------------------------------------------------------------------
         ABSORPTION SPECTRUM VIA TRANSITION ELECTRIC DIPOLE MOMENTS
-----------------------------------------------------------------------------
State   Energy    Wavelength  fosc         T2        TX        TY        TZ
        (cm-1)      (nm)                 (au**2)    (au)      (au)      (au)
-----------------------------------------------------------------------------
   1   29940.0    334.0   0.000205103   0.00226  -0.04576  -0.01004  -0.00779

Dispersion correction           -0.024970513
FINAL SINGLE POINT ENERGY      -189.308309679316

DIPOLE MOMENT
-------------
                                X             Y             Z
Electronic contribution:     -2.57821      -0.97195       0.90337
Nuclear contribution   :      3.16833       1.50588      -1.49273
                        -----------------------------------------
Total Dipole Moment    :      0.59012       0.53393      -0.58936
                        -----------------------------------------
Magnitude (a.u.)       :      0.99029
Magnitude (Debye)      :      2.51712

Rotational constants in cm-1:     0.930658     0.167214     0.160533
Rotational constants in MHz : 27900.438293  5012.937525  4812.654767

                             ****ORCA TERMINATED NORMALLY****
TOTAL RUN TIME: 0 days 0 hours 0 minutes 12 seconds 606 msec
