                         Program Version 5.0.3 -  RELEASE  -
|  1> ! HF-3c
|  2> !TightSCF
|  3> %scf
|  4>  ConvForced true
|  5>  convergence tight
|  6>  MaxIter 500
|  7> end
|  8>
|  9> %tddft
| 10>  nroots 1
| 11> end
| 12>
| 13> # 	29270
| 14> * xyz 0 1
| 15> 		C   -0.624183  -0.463519   0.050436
| 16> 		O   -0.577632  -1.613619  -0.017211
| 17> 		C    0.645783   0.405266  -0.053359
| 18> 		C    1.859306  -0.118544   0.006418
| 19> 		H   -1.509451   0.169640  -0.037622
| 20> 		H    0.499379   1.423841   0.129871
| 21> 		H    1.982389  -1.072002   0.118611
| 22> 		H    2.717088   0.451931   0.025954
| 23> *
| 24>
| 25>                          ****END OF INPUT****

CARTESIAN COORDINATES (ANGSTROEM)
---------------------------------
  C     -0.624183   -0.463519    0.050436
  O     -0.577632   -1.613619   -0.017211
  C      0.645783    0.405266   -0.053359
  C      1.859306   -0.118544    0.006418
  H     -1.509451    0.169640   -0.037622
  H      0.499379    1.423841    0.129871
  H      1.982389   -1.072002    0.118611
  H      2.717088    0.451931    0.025954

 Total Charge           Charge          ....    0
 Multiplicity           Mult            ....    1
 Number of Electrons    NEL             ....   30
 Basis Dimension        Dim             ....   24

ORBITAL ENERGIES
----------------

  NO   OCC          E(Eh)            E(eV)
   0   2.0000     -20.399571      -555.1005
   1   2.0000     -11.318807      -308.0004
   2   2.0000     -11.192267      -304.5571
   3   2.0000     -11.186234      -304.3929
   4   2.0000      -1.456234       -39.6262
   5   2.0000      -1.085291       -29.5323
   6   2.0000      -0.901277       -24.5250
   7   2.0000      -0.773650       -21.0521
   8   2.0000      -0.720517       -19.6063
   9   2.0000      -0.637302       -17.3419
  10   2.0000      -0.621083       -16.9005
  11   2.0000      -0.576143       -15.6777
  12   2.0000      -0.557138       -15.1605
  13   2.0000      -0.412298       -11.2192
  14   2.0000      -0.405388       -11.0312
  15   0.0000       0.138627         3.7722
  16   0.0000       0.298271         8.1164
  17   0.0000       0.545357        14.8399
  18   0.0000       0.666503        18.1365
  19   0.0000       0.702537        19.1170

MULLIKEN ATOMIC CHARGES
-----------------------
   0 C :    0.192910
   1 O :   -0.353780
   2 C :   -0.161355
   3 C :   -0.257232
   4 H :    0.138588
   5 H :    0.138643
   6 H :    0.153331
   7 H :    0.148893
Sum of atomic charges:    0.0000000

LOEWDIN ATOMIC CHARGES
----------------------
   0 C :    0.156899
   1 O :   -0.235629
   2 C :   -0.119033
   3 C :   -0.142414
   4 H :    0.071149
   5 H :    0.084489
   6 H :    0.090706
   7 H :    0.093832

  Mayer bond orders larger than 0.100000
B(  0-C ,  1-O ) :   1.9410 B(  0-C ,  2-C ) :   0.9775 B(  0-C ,  4-H ) :   0.9162
B(  2-C ,  3-C ) :   1.9707 B(  2-C ,  5-H ) :   0.9643 B(  3-C ,  6-H ) :   0.9636
B(  3-C ,  7-H ) :   0.9648

-----------------------------------------------------------------------------
         ABSORPTION SPECTRUM VIA TRANSITION ELECTRIC DIPOLE MOMENTS
-----------------------------------------------------------------------------
State   Energy    Wavelength  fosc         T2        TX        TY        TZ
        (cm-1)      (nm)                 (au**2)    (au)      (au)      (au)
-----------------------------------------------------------------------------
   1   35422.3    282.3   0.000790080   0.00734   0.08512   0.00819  -0.00549

Dispersion correction           -0.025995580
FINAL SINGLE POINT ENERGY      -189.304985329330

DIPOLE MOMENT
-------------
                                X             Y             Z
Electronic contribution:     -2.17798      -1.81077      -0.12047
Nuclear contribution   :      2.30574       2.70098       0.22156
                        -----------------------------------------
Total Dipole Moment    :      0.12776       0.89021       0.10109
                        -----------------------------------------
Magnitude (a.u.)       :      0.90500
Magnitude (Debye)      :      2.30033

Rotational constants in cm-1:     0.803633     0.207131     0.165018
Rotational constants in MHz : 24092.309854  6209.637793  4947.101390

                             ****ORCA TERMINATED NORMALLY****
TOTAL RUN TIME: 0 days 0 hours 0 minutes 13 seconds 11 msec
