                         Program Version 5.0.3 -  RELEASE  -
|  1> ! B3LYP cc-pVDZ
|  2> !TightSCF
|  3> %scf
|  4>  ConvForced true
|  5>  convergence tight
|  6>  MaxIter 500
|  7> end
|  8>
|  9> %tddft
| 10>  nroots 1
| 11> end
| 12>
| 13> # 	17249
| 14> * xyz 0 1
| 15> 		C   -1.191469  -0.301796   0.050671
| 16> 		O   -1.551536  -1.168354   0.832260
| 17> 		C    0.045316   0.522858   0.201508
| 18> 		C    1.266457   0.065927  -0.161763
| 19> 		H   -1.896445  -0.153506  -1.062711
| 20> 		H   -0.149398   1.467660   0.675683
| 21> 		H    1.372007  -0.910365  -0.627651
| 22> 		H    2.083179   0.532469   0.072662
| 23> *
| 24>
| 25>                          ****END OF INPUT****

CARTESIAN COORDINATES (ANGSTROEM)
---------------------------------
  C     -1.191469   -0.301796    0.050671
  O     -1.551536   -1.168354    0.832260
  C      0.045316    0.522858    0.201508
  C      1.266457    0.065927   -0.161763
  H     -1.896445   -0.153506   -1.062711
  H     -0.149398    1.467660    0.675683
  H      1.372007   -0.910365   -0.627651
  H      2.083179    0.532469    0.072662

 Total Charge           Charge          ....    0
 Multiplicity           Mult            ....    1
 Number of Electrons    NEL             ....   30
 Basis Dimension        Dim             ....   76

ORBITAL ENERGIES
----------------

  NO   OCC          E(Eh)            E(eV)
   0   2.0000     -19.154157      -521.2111
   1   2.0000     -10.299550      -280.2650
   2   2.0000     -10.216476      -278.0045
   3   2.0000     -10.201358      -277.5931
   4   2.0000      -1.050985       -28.5987
   5   2.0000      -0.797965       -21.7137
   6   2.0000      -0.659380       -17.9426
   7   2.0000      -0.544435       -14.8148
   8   2.0000      -0.494594       -13.4586
   9   2.0000      -0.459593       -12.5062
  10   2.0000      -0.443389       -12.0652
  11   2.0000      -0.403945       -10.9919
  12   2.0000      -0.377050       -10.2600
  13   2.0000      -0.286035        -7.7834
  14   2.0000      -0.256895        -6.9905
  15   0.0000      -0.036998        -1.0068
  16   0.0000      -0.022494        -0.6121
  17   0.0000       0.063238         1.7208
  18   0.0000       0.088751         2.4150
  19   0.0000       0.096689         2.6310

MULLIKEN ATOMIC CHARGES
-----------------------
   0 C :    0.103811
   1 O :   -0.170869
   2 C :   -0.071555
   3 C :    0.116022
   4 H :   -0.006764
   5 H :    0.017600
   6 H :    0.024022
   7 H :   -0.012266
Sum of atomic charges:    0.0000000

LOEWDIN ATOMIC CHARGES
----------------------
   0 C :   -0.021358
   1 O :    0.003425
   2 C :   -0.047043
   3 C :    0.008478
   4 H :   -0.006266
   5 H :    0.034114
   6 H :    0.033825
   7 H :   -0.005175

  Mayer bond orders larger than 0.100000
B(  0-C ,  1-O ) :   2.2206 B(  0-C ,  2-C ) :   0.9664 B(  0-C ,  4-H ) :   0.8642
B(  2-C ,  3-C ) :   2.0340 B(  2-C ,  5-H ) :   0.9390 B(  3-C ,  6-H ) :   0.9485
B(  3-C ,  7-H ) :   0.9474

-----------------------------------------------------------------------------
         ABSORPTION SPECTRUM VIA TRANSITION ELECTRIC DIPOLE MOMENTS
-----------------------------------------------------------------------------
State   Energy    Wavelength  fosc         T2        TX        TY        TZ
        (cm-1)      (nm)                 (au**2)    (au)      (au)      (au)
-----------------------------------------------------------------------------
   1   32939.0    303.6   0.000397504   0.00397   0.03804  -0.02366  -0.04434

FINAL SINGLE POINT ENERGY      -191.618634476482

DIPOLE MOMENT
-------------
                                X             Y             Z
Electronic contribution:     -2.20376      -1.18113       1.41183
Nuclear contribution   :      2.77480       1.82217      -1.77543
                        -----------------------------------------
Total Dipole Moment    :      0.57104       0.64105      -0.36360
                        -----------------------------------------
Magnitude (a.u.)       :      0.93233
Magnitude (Debye)      :      2.36978

Rotational constants in cm-1:     0.896048     0.168912     0.157573
Rotational constants in MHz : 26862.846989  5063.848267  4723.910342

                             ****ORCA TERMINATED NORMALLY****
TOTAL RUN TIME: 0 days 0 hours 3 minutes 21 seconds 981 msec
