                         Program Version 5.0.3 -  RELEASE  -
|  1> ! B3LYP cc-pVDZ
|  2> !TightSCF
|  3> %scf
|  4>  ConvForced true
|  5>  convergence tight
|  6>  MaxIter 500
|  7> end
|  8>
|  9> %tddft
| 10>  nroots 1
| 11> end
| 12>
| 13> # 	25716
| 14> * xyz 0 1
| 15> 		C   -0.595845  -0.459727  -0.072677
| 16> 		O   -0.619576  -1.660984   0.045963
| 17> 		C    0.629775   0.440177  -0.006227
| 18> 		C    1.910783  -0.098587  -0.021396
| 19> 		H   -1.716514   0.064113   0.074471
| 20> 		H    0.456842   1.424471   0.314101
| 21> 		H    2.121250  -1.153986  -0.179381
| 22> 		H    2.766921   0.683806   0.287824
| 23> *
| 24>
| 25>                          ****END OF INPUT****

CARTESIAN COORDINATES (ANGSTROEM)
---------------------------------
  C     -0.595845   -0.459727   -0.072677
  O     -0.619576   -1.660984    0.045963
  C      0.629775    0.440177   -0.006227
  C      1.910783   -0.098587   -0.021396
  H     -1.716514    0.064113    0.074471
  H      0.456842    1.424471    0.314101
  H      2.121250   -1.153986   -0.179381
  H      2.766921    0.683806    0.287824

 Total Charge           Charge          ....    0
 Multiplicity           Mult            ....    1
 Number of Electrons    NEL             ....   30
 Basis Dimension        Dim             ....   76

ORBITAL ENERGIES
----------------

  NO   OCC          E(Eh)            E(eV)
   0   2.0000     -19.142530      -520.8947
   1   2.0000     -10.287632      -279.9407
   2   2.0000     -10.233076      -278.4562
   3   2.0000     -10.216168      -277.9961
   4   2.0000      -1.050077       -28.5740
   5   2.0000      -0.784237       -21.3402
   6   2.0000      -0.642626       -17.4867
   7   2.0000      -0.538789       -14.6612
   8   2.0000      -0.493252       -13.4221
   9   2.0000      -0.448485       -12.2039
  10   2.0000      -0.413390       -11.2489
  11   2.0000      -0.397628       -10.8200
  12   2.0000      -0.391044       -10.6408
  13   2.0000      -0.285263        -7.7624
  14   2.0000      -0.251661        -6.8481
  15   0.0000      -0.073896        -2.0108
  16   0.0000       0.038642         1.0515
  17   0.0000       0.052132         1.4186
  18   0.0000       0.080554         2.1920
  19   0.0000       0.111814         3.0426

MULLIKEN ATOMIC CHARGES
-----------------------
   0 C :    0.129264
   1 O :   -0.175884
   2 C :   -0.065186
   3 C :    0.017485
   4 H :   -0.014363
   5 H :   -0.003234
   6 H :    0.050547
   7 H :    0.061370
Sum of atomic charges:   -0.0000000

LOEWDIN ATOMIC CHARGES
----------------------
   0 C :   -0.045695
   1 O :   -0.001794
   2 C :   -0.075535
   3 C :    0.020295
   4 H :   -0.004415
   5 H :    0.019961
   6 H :    0.031923
   7 H :    0.055261

  Mayer bond orders larger than 0.100000
B(  0-C ,  1-O ) :   2.1967 B(  0-C ,  2-C ) :   1.0130 B(  0-C ,  4-H ) :   0.8899
B(  2-C ,  3-C ) :   1.9395 B(  2-C ,  5-H ) :   0.9479 B(  3-C ,  6-H ) :   0.9428
B(  3-C ,  7-H ) :   0.9418

-----------------------------------------------------------------------------
         ABSORPTION SPECTRUM VIA TRANSITION ELECTRIC DIPOLE MOMENTS
-----------------------------------------------------------------------------
State   Energy    Wavelength  fosc         T2        TX        TY        TZ
        (cm-1)      (nm)                 (au**2)    (au)      (au)      (au)
-----------------------------------------------------------------------------
   1   26806.0    373.1   0.000239465   0.00294  -0.01893  -0.02737  -0.04282

FINAL SINGLE POINT ENERGY      -191.662304358688

DIPOLE MOMENT
-------------
                                X             Y             Z
Electronic contribution:     -1.74132      -1.92129      -0.41894
Nuclear contribution   :      2.24570       2.74302       0.46484
                        -----------------------------------------
Total Dipole Moment    :      0.50438       0.82173       0.04590
                        -----------------------------------------
Magnitude (a.u.)       :      0.96527
Magnitude (Debye)      :      2.45352

Rotational constants in cm-1:     0.750973     0.192762     0.154299
Rotational constants in MHz : 22513.591417  5778.865971  4625.776188

                             ****ORCA TERMINATED NORMALLY****
TOTAL RUN TIME: 0 days 0 hours 3 minutes 18 seconds 297 msec
