                         Program Version 5.0.3 -  RELEASE  -
|  1> ! B3LYP cc-pVDZ
|  2> !TightSCF
|  3> %scf
|  4>  ConvForced true
|  5>  convergence tight
|  6>  MaxIter 500
|  7> end
|  8>
|  9> %tddft
| 10>  nroots 1
| 11> end
| 12>
| 13> # 	30696
| 14> * xyz 0 1
| 15> 		C   -0.613481  -0.443887  -0.033214
| 16> 		O   -0.528267  -1.597304   0.015746
| 17> 		C    0.616464   0.430051   0.021604
| 18> 		C    1.814024  -0.162139  -0.017402
| 19> 		H   -1.613975   0.072865  -0.009376
| 20> 		H    0.549485   1.597316   0.073040
| 21> 		H    1.900062  -1.281408   0.015097
| 22> 		H    2.852051   0.318001   0.021615
| 23> *
| 24>
| 25>                          ****END OF INPUT****

CARTESIAN COORDINATES (ANGSTROEM)
---------------------------------
  C     -0.613481   -0.443887   -0.033214
  O     -0.528267   -1.597304    0.015746
  C      0.616464    0.430051    0.021604
  C      1.814024   -0.162139   -0.017402
  H     -1.613975    0.072865   -0.009376
  H      0.549485    1.597316    0.073040
  H      1.900062   -1.281408    0.015097
  H      2.852051    0.318001    0.021615

 Total Charge           Charge          ....    0
 Multiplicity           Mult            ....    1
 Number of Electrons    NEL             ....   30
 Basis Dimension        Dim             ....   76

ORBITAL ENERGIES
----------------

  NO   OCC          E(Eh)            E(eV)
   0   2.0000     -19.140048      -520.8272
   1   2.0000     -10.276103      -279.6270
   2   2.0000     -10.213809      -277.9319
   3   2.0000     -10.208147      -277.7778
   4   2.0000      -1.080669       -29.4065
   5   2.0000      -0.782868       -21.3029
   6   2.0000      -0.640402       -17.4262
   7   2.0000      -0.538270       -14.6471
   8   2.0000      -0.501536       -13.6475
   9   2.0000      -0.452255       -12.3065
  10   2.0000      -0.424118       -11.5408
  11   2.0000      -0.416775       -11.3410
  12   2.0000      -0.365024        -9.9328
  13   2.0000      -0.285393        -7.7659
  14   2.0000      -0.257958        -7.0194
  15   0.0000      -0.059494        -1.6189
  16   0.0000       0.063299         1.7225
  17   0.0000       0.065369         1.7788
  18   0.0000       0.089420         2.4332
  19   0.0000       0.111118         3.0237

MULLIKEN ATOMIC CHARGES
-----------------------
   0 C :    0.184451
   1 O :   -0.140632
   2 C :   -0.151440
   3 C :    0.028684
   4 H :   -0.024083
   5 H :    0.013851
   6 H :    0.045592
   7 H :    0.043578
Sum of atomic charges:   -0.0000000

LOEWDIN ATOMIC CHARGES
----------------------
   0 C :   -0.063511
   1 O :    0.051882
   2 C :   -0.098526
   3 C :    0.005392
   4 H :   -0.008610
   5 H :    0.039072
   6 H :    0.035375
   7 H :    0.038925

  Mayer bond orders larger than 0.100000
B(  0-C ,  1-O ) :   2.2528 B(  0-C ,  2-C ) :   0.9977 B(  0-C ,  4-H ) :   0.9124
B(  2-C ,  3-C ) :   1.9676 B(  2-C ,  5-H ) :   0.9384 B(  3-C ,  6-H ) :   0.9318
B(  3-C ,  7-H ) :   0.9503

-----------------------------------------------------------------------------
         ABSORPTION SPECTRUM VIA TRANSITION ELECTRIC DIPOLE MOMENTS
-----------------------------------------------------------------------------
State   Energy    Wavelength  fosc         T2        TX        TY        TZ
        (cm-1)      (nm)                 (au**2)    (au)      (au)      (au)
-----------------------------------------------------------------------------
   1   30811.3    324.6   0.000096267   0.00103  -0.01706   0.00219   0.02707

FINAL SINGLE POINT ENERGY      -191.656249264471

DIPOLE MOMENT
-------------
                                X             Y             Z
Electronic contribution:     -2.01810      -1.71952      -0.09577
Nuclear contribution   :      2.30342       2.45093       0.09409
                        -----------------------------------------
Total Dipole Moment    :      0.28532       0.73141      -0.00168
                        -----------------------------------------
Magnitude (a.u.)       :      0.78509
Magnitude (Debye)      :      1.99555

Rotational constants in cm-1:     0.738363     0.219033     0.169033
Rotational constants in MHz : 22135.575014  6566.445759  5067.485495

                             ****ORCA TERMINATED NORMALLY****
TOTAL RUN TIME: 0 days 0 hours 3 minutes 21 seconds 724 msec
