                         Program Version 5.0.3 -  RELEASE  -
|  1> ! B3LYP cc-pVDZ
|  2> !TightSCF
|  3> %scf
|  4>  ConvForced true
|  5>  convergence tight
|  6>  MaxIter 500
|  7> end
|  8>
|  9> %tddft
| 10>  nroots 1
| 11> end
| 12>
| 13> # 	32159
| 14> * xyz 0 1
| 15> 		C   -0.611945  -0.480654   0.016488
| 16> 		O   -0.588301  -1.648260  -0.023826
| 17> 		C    0.658738   0.423635  -0.012705
| 18> 		C    1.831830  -0.105875   0.002825
| 19> 		H   -1.471589   0.395631   0.238191
| 20> 		H    0.636955   1.554561  -0.146052
| 21> 		H    2.083451  -1.100439   0.231704
| 22> 		H    2.694443   0.543199  -0.040092
| 23> *
| 24>
| 25>                          ****END OF INPUT****

CARTESIAN COORDINATES (ANGSTROEM)
---------------------------------
  C     -0.611945   -0.480654    0.016488
  O     -0.588301   -1.648260   -0.023826
  C      0.658738    0.423635   -0.012705
  C      1.831830   -0.105875    0.002825
  H     -1.471589    0.395631    0.238191
  H      0.636955    1.554561   -0.146052
  H      2.083451   -1.100439    0.231704
  H      2.694443    0.543199   -0.040092

 Total Charge           Charge          ....    0
 Multiplicity           Mult            ....    1
 Number of Electrons    NEL             ....   30
 Basis Dimension        Dim             ....   76

ORBITAL ENERGIES
----------------

  NO   OCC          E(Eh)            E(eV)
   0   2.0000     -19.159931      -521.3682
   1   2.0000     -10.295194      -280.1465
   2   2.0000     -10.199076      -277.5310
   3   2.0000     -10.194240      -277.3994
   4   2.0000      -1.083788       -29.4914
   5   2.0000      -0.796377       -21.6705
   6   2.0000      -0.641273       -17.4499
   7   2.0000      -0.539264       -14.6741
   8   2.0000      -0.497447       -13.5362
   9   2.0000      -0.464836       -12.6488
  10   2.0000      -0.424634       -11.5549
  11   2.0000      -0.413530       -11.2527
  12   2.0000      -0.379442       -10.3251
  13   2.0000      -0.295341        -8.0366
  14   2.0000      -0.257591        -7.0094
  15   0.0000      -0.058305        -1.5866
  16   0.0000       0.056266         1.5311
  17   0.0000       0.063050         1.7157
  18   0.0000       0.080272         2.1843
  19   0.0000       0.114510         3.1160

MULLIKEN ATOMIC CHARGES
-----------------------
   0 C :    0.157085
   1 O :   -0.129252
   2 C :   -0.159825
   3 C :    0.107214
   4 H :   -0.011837
   5 H :    0.007017
   6 H :    0.013580
   7 H :    0.016018
Sum of atomic charges:    0.0000000

LOEWDIN ATOMIC CHARGES
----------------------
   0 C :   -0.052641
   1 O :    0.056934
   2 C :   -0.099154
   3 C :    0.011092
   4 H :   -0.007995
   5 H :    0.040134
   6 H :    0.020984
   7 H :    0.030646

  Mayer bond orders larger than 0.100000
B(  0-C ,  1-O ) :   2.2742 B(  0-C ,  2-C ) :   0.9676 B(  0-C ,  4-H ) :   0.8747
B(  2-C ,  3-C ) :   2.0218 B(  2-C ,  5-H ) :   0.9285 B(  3-C ,  6-H ) :   0.9460
B(  3-C ,  7-H ) :   0.9362

-----------------------------------------------------------------------------
         ABSORPTION SPECTRUM VIA TRANSITION ELECTRIC DIPOLE MOMENTS
-----------------------------------------------------------------------------
State   Energy    Wavelength  fosc         T2        TX        TY        TZ
        (cm-1)      (nm)                 (au**2)    (au)      (au)      (au)
-----------------------------------------------------------------------------
   1   30980.3    322.8   0.000374018   0.00397   0.03626  -0.02668  -0.04414

FINAL SINGLE POINT ENERGY      -191.637641170615

DIPOLE MOMENT
-------------
                                X             Y             Z
Electronic contribution:     -2.13806      -2.35745      -0.22544
Nuclear contribution   :      2.53986       3.09168       0.26692
                        -----------------------------------------
Total Dipole Moment    :      0.40180       0.73423       0.04147
                        -----------------------------------------
Magnitude (a.u.)       :      0.83800
Magnitude (Debye)      :      2.13003

Rotational constants in cm-1:     0.773779     0.203522     0.161598
Rotational constants in MHz : 23197.299988  6101.434680  4844.591700

                             ****ORCA TERMINATED NORMALLY****
TOTAL RUN TIME: 0 days 0 hours 3 minutes 24 seconds 510 msec
