                         Program Version 5.0.3 -  RELEASE  -
|  1> ! B3LYP cc-pVDZ
|  2> !TightSCF
|  3> %scf
|  4>  ConvForced true
|  5>  convergence tight
|  6>  MaxIter 500
|  7> end
|  8>
|  9> %tddft
| 10>  nroots 1
| 11> end
| 12>
| 13> # 	6440
| 14> * xyz 0 1
| 15> 		C   -1.238472  -0.341296  -0.068981
| 16> 		O   -1.251240  -1.579117  -0.046274
| 17> 		C   -0.029429   0.465735  -0.040354
| 18> 		C    1.210217  -0.022632  -0.095360
| 19> 		H   -2.058670   0.276406  -0.000738
| 20> 		H   -0.175247   1.691750   0.186361
| 21> 		H    1.481814  -1.159025  -0.052103
| 22> 		H    2.058086   0.609700   0.124894
| 23> *
| 24>
| 25>                          ****END OF INPUT****

CARTESIAN COORDINATES (ANGSTROEM)
---------------------------------
  C     -1.238472   -0.341296   -0.068981
  O     -1.251240   -1.579117   -0.046274
  C     -0.029429    0.465735   -0.040354
  C      1.210217   -0.022632   -0.095360
  H     -2.058670    0.276406   -0.000738
  H     -0.175247    1.691750    0.186361
  H      1.481814   -1.159025   -0.052103
  H      2.058086    0.609700    0.124894

 Total Charge           Charge          ....    0
 Multiplicity           Mult            ....    1
 Number of Electrons    NEL             ....   30
 Basis Dimension        Dim             ....   76

ORBITAL ENERGIES
----------------

  NO   OCC          E(Eh)            E(eV)
   0   2.0000     -19.139491      -520.8120
   1   2.0000     -10.270050      -279.4623
   2   2.0000     -10.219897      -278.0975
   3   2.0000     -10.216457      -278.0039
   4   2.0000      -1.031071       -28.0569
   5   2.0000      -0.793682       -21.5972
   6   2.0000      -0.673180       -18.3182
   7   2.0000      -0.542884       -14.7726
   8   2.0000      -0.492598       -13.4043
   9   2.0000      -0.444805       -12.1038
  10   2.0000      -0.422340       -11.4925
  11   2.0000      -0.392942       -10.6925
  12   2.0000      -0.363635        -9.8950
  13   2.0000      -0.288308        -7.8452
  14   2.0000      -0.258153        -7.0247
  15   0.0000      -0.078184        -2.1275
  16   0.0000       0.042207         1.1485
  17   0.0000       0.061108         1.6628
  18   0.0000       0.083990         2.2855
  19   0.0000       0.124052         3.3756

MULLIKEN ATOMIC CHARGES
-----------------------
   0 C :    0.256963
   1 O :   -0.214533
   2 C :   -0.189648
   3 C :    0.052593
   4 H :   -0.032527
   5 H :    0.029570
   6 H :    0.063682
   7 H :    0.033900
Sum of atomic charges:    0.0000000

LOEWDIN ATOMIC CHARGES
----------------------
   0 C :   -0.018698
   1 O :   -0.023361
   2 C :   -0.094271
   3 C :    0.016573
   4 H :   -0.013982
   5 H :    0.051425
   6 H :    0.052745
   7 H :    0.029568

  Mayer bond orders larger than 0.100000
B(  0-C ,  1-O ) :   2.1707 B(  0-C ,  2-C ) :   1.0834 B(  0-C ,  4-H ) :   0.9245
B(  1-O ,  3-C ) :   0.1020 B(  2-C ,  3-C ) :   1.9499 B(  2-C ,  5-H ) :   0.9230
B(  3-C ,  6-H ) :   0.9386 B(  3-C ,  7-H ) :   0.9371

-----------------------------------------------------------------------------
         ABSORPTION SPECTRUM VIA TRANSITION ELECTRIC DIPOLE MOMENTS
-----------------------------------------------------------------------------
State   Energy    Wavelength  fosc         T2        TX        TY        TZ
        (cm-1)      (nm)                 (au**2)    (au)      (au)      (au)
-----------------------------------------------------------------------------
   1   26385.6    379.0   0.000063074   0.00079  -0.01484  -0.01155  -0.02082

FINAL SINGLE POINT ENERGY      -191.662636507861

DIPOLE MOMENT
-------------
                                X             Y             Z
Electronic contribution:     -2.08123      -1.91665      -0.35318
Nuclear contribution   :      2.51008       2.82724       0.43922
                        -----------------------------------------
Total Dipole Moment    :      0.42885       0.91059       0.08604
                        -----------------------------------------
Magnitude (a.u.)       :      1.01019
Magnitude (Debye)      :      2.56770

Rotational constants in cm-1:     0.749023     0.204724     0.161098
Rotational constants in MHz : 22455.141129  6137.462003  4829.604314

                             ****ORCA TERMINATED NORMALLY****
TOTAL RUN TIME: 0 days 0 hours 3 minutes 20 seconds 597 msec
