                         Program Version 5.0.3 -  RELEASE  -
|  1> ! B3LYP cc-pVDZ
|  2> !TightSCF
|  3> %scf
|  4>  ConvForced true
|  5>  convergence tight
|  6>  MaxIter 500
|  7> end
|  8>
|  9> %tddft
| 10>  nroots 1
| 11> end
| 12>
| 13> # 	24544
| 14> * xyz 0 1
| 15> 		C   -0.581832  -0.438693   0.054693
| 16> 		O   -0.592607  -1.656814  -0.024029
| 17> 		C    0.592530   0.436858  -0.051043
| 18> 		C    1.881980  -0.116553   0.023617
| 19> 		H   -1.540877   0.143512   0.018777
| 20> 		H    0.596386   1.499361   0.009060
| 21> 		H    2.056528  -1.155466   0.055985
| 22> 		H    2.711153   0.475693  -0.030300
| 23> *
| 24>
| 25>                          ****END OF INPUT****

CARTESIAN COORDINATES (ANGSTROEM)
---------------------------------
  C     -0.581832   -0.438693    0.054693
  O     -0.592607   -1.656814   -0.024029
  C      0.592530    0.436858   -0.051043
  C      1.881980   -0.116553    0.023617
  H     -1.540877    0.143512    0.018777
  H      0.596386    1.499361    0.009060
  H      2.056528   -1.155466    0.055985
  H      2.711153    0.475693   -0.030300

 Total Charge           Charge          ....    0
 Multiplicity           Mult            ....    1
 Number of Electrons    NEL             ....   30
 Basis Dimension        Dim             ....   76

ORBITAL ENERGIES
----------------

  NO   OCC          E(Eh)            E(eV)
   0   2.0000     -19.137751      -520.7647
   1   2.0000     -10.276017      -279.6246
   2   2.0000     -10.214051      -277.9384
   3   2.0000     -10.210185      -277.8333
   4   2.0000      -1.038945       -28.2711
   5   2.0000      -0.789172       -21.4745
   6   2.0000      -0.665315       -18.1041
   7   2.0000      -0.552737       -15.0407
   8   2.0000      -0.510154       -13.8820
   9   2.0000      -0.443463       -12.0672
  10   2.0000      -0.419173       -11.4063
  11   2.0000      -0.396345       -10.7851
  12   2.0000      -0.391895       -10.6640
  13   2.0000      -0.280679        -7.6377
  14   2.0000      -0.255407        -6.9500
  15   0.0000      -0.079864        -2.1732
  16   0.0000       0.051814         1.4099
  17   0.0000       0.074072         2.0156
  18   0.0000       0.097292         2.6474
  19   0.0000       0.124429         3.3859

MULLIKEN ATOMIC CHARGES
-----------------------
   0 C :    0.198010
   1 O :   -0.200111
   2 C :   -0.114037
   3 C :    0.105847
   4 H :   -0.019331
   5 H :   -0.010354
   6 H :    0.029223
   7 H :    0.010753
Sum of atomic charges:    0.0000000

LOEWDIN ATOMIC CHARGES
----------------------
   0 C :   -0.038016
   1 O :   -0.014616
   2 C :   -0.069590
   3 C :    0.069744
   4 H :   -0.005888
   5 H :    0.024838
   6 H :    0.022453
   7 H :    0.011075

  Mayer bond orders larger than 0.100000
B(  0-C ,  1-O ) :   2.1701 B(  0-C ,  2-C ) :   1.0605 B(  0-C ,  4-H ) :   0.9172
B(  2-C ,  3-C ) :   1.9349 B(  2-C ,  5-H ) :   0.9469 B(  3-C ,  6-H ) :   0.9546
B(  3-C ,  7-H ) :   0.9511

-----------------------------------------------------------------------------
         ABSORPTION SPECTRUM VIA TRANSITION ELECTRIC DIPOLE MOMENTS
-----------------------------------------------------------------------------
State   Energy    Wavelength  fosc         T2        TX        TY        TZ
        (cm-1)      (nm)                 (au**2)    (au)      (au)      (au)
-----------------------------------------------------------------------------
   1   26144.3    382.5   0.000220943   0.00278  -0.04947  -0.00181  -0.01822

FINAL SINGLE POINT ENERGY      -191.676503587853

DIPOLE MOMENT
-------------
                                X             Y             Z
Electronic contribution:     -1.90771      -1.76532       0.00785
Nuclear contribution   :      2.42857       2.69066       0.05006
                        -----------------------------------------
Total Dipole Moment    :      0.52086       0.92534       0.05790
                        -----------------------------------------
Magnitude (a.u.)       :      1.06344
Magnitude (Debye)      :      2.70305

Rotational constants in cm-1:     0.743596     0.203755     0.160198
Rotational constants in MHz : 22292.438690  6108.410505  4802.609717

                             ****ORCA TERMINATED NORMALLY****
TOTAL RUN TIME: 0 days 0 hours 3 minutes 17 seconds 450 msec
