                         Program Version 5.0.3 -  RELEASE  -
|  1> ! HF-3c
|  2> !TightSCF
|  3> %scf
|  4>  ConvForced true
|  5>  convergence tight
|  6>  MaxIter 500
|  7> end
|  8>
|  9> %tddft
| 10>  nroots 1
| 11> end
| 12>
| 13> # 	19436
| 14> * xyz 0 1
| 15> 		C   -1.226541  -0.290882   0.030764
| 16> 		O   -2.028875  -0.546114   0.788629
| 17> 		C   -0.032775   0.508792   0.282161
| 18> 		C    1.159287   0.125972  -0.321714
| 19> 		H   -1.189024  -0.845683  -0.966122
| 20> 		H   -0.044436   1.224089   1.099206
| 21> 		H    1.199951  -0.897031  -0.790206
| 22> 		H    2.111604   0.705171  -0.118415
| 23> *
| 24>
| 25>                          ****END OF INPUT****

CARTESIAN COORDINATES (ANGSTROEM)
---------------------------------
  C     -1.226541   -0.290882    0.030764
  O     -2.028875   -0.546114    0.788629
  C     -0.032775    0.508792    0.282161
  C      1.159287    0.125972   -0.321714
  H     -1.189024   -0.845683   -0.966122
  H     -0.044436    1.224089    1.099206
  H      1.199951   -0.897031   -0.790206
  H      2.111604    0.705171   -0.118415

 Total Charge           Charge          ....    0
 Multiplicity           Mult            ....    1
 Number of Electrons    NEL             ....   30
 Basis Dimension        Dim             ....   24

ORBITAL ENERGIES
----------------

  NO   OCC          E(Eh)            E(eV)
   0   2.0000     -20.386906      -554.7559
   1   2.0000     -11.314739      -307.8897
   2   2.0000     -11.187247      -304.4205
   3   2.0000     -11.180262      -304.2304
   4   2.0000      -1.462958       -39.8091
   5   2.0000      -1.069058       -29.0905
   6   2.0000      -0.866913       -23.5899
   7   2.0000      -0.775598       -21.1051
   8   2.0000      -0.672712       -18.3054
   9   2.0000      -0.646274       -17.5860
  10   2.0000      -0.589181       -16.0324
  11   2.0000      -0.561378       -15.2759
  12   2.0000      -0.549578       -14.9548
  13   2.0000      -0.402345       -10.9484
  14   2.0000      -0.379498       -10.3267
  15   0.0000       0.136365         3.7107
  16   0.0000       0.299479         8.1492
  17   0.0000       0.586285        15.9536
  18   0.0000       0.589456        16.0399
  19   0.0000       0.596467        16.2307

MULLIKEN ATOMIC CHARGES
-----------------------
   0 C :    0.191769
   1 O :   -0.367667
   2 C :   -0.175486
   3 C :   -0.211660
   4 H :    0.122057
   5 H :    0.152728
   6 H :    0.142439
   7 H :    0.145821
Sum of atomic charges:    0.0000000

LOEWDIN ATOMIC CHARGES
----------------------
   0 C :    0.148418
   1 O :   -0.244555
   2 C :   -0.136954
   3 C :   -0.120687
   4 H :    0.060008
   5 H :    0.099295
   6 H :    0.095880
   7 H :    0.098595

  Mayer bond orders larger than 0.100000
B(  0-C ,  1-O ) :   1.9151 B(  0-C ,  2-C ) :   1.0160 B(  0-C ,  4-H ) :   0.9073
B(  2-C ,  3-C ) :   1.9407 B(  2-C ,  5-H ) :   0.9564 B(  3-C ,  6-H ) :   0.9641
B(  3-C ,  7-H ) :   0.9647

-----------------------------------------------------------------------------
         ABSORPTION SPECTRUM VIA TRANSITION ELECTRIC DIPOLE MOMENTS
-----------------------------------------------------------------------------
State   Energy    Wavelength  fosc         T2        TX        TY        TZ
        (cm-1)      (nm)                 (au**2)    (au)      (au)      (au)
-----------------------------------------------------------------------------
   1   36846.6    271.4   0.000211890   0.00189   0.01507  -0.02232  -0.03418

Dispersion correction           -0.025608394
FINAL SINGLE POINT ENERGY      -189.294289764876

DIPOLE MOMENT
-------------
                                X             Y             Z
Electronic contribution:     -3.07031      -0.31448       0.98215
Nuclear contribution   :      4.04089       0.46388      -1.50418
                        -----------------------------------------
Total Dipole Moment    :      0.97058       0.14940      -0.52203
                        -----------------------------------------
Magnitude (a.u.)       :      1.11215
Magnitude (Debye)      :      2.82685

Rotational constants in cm-1:     1.360104     0.161928     0.149917
Rotational constants in MHz : 40774.879796  4854.484359  4494.389840

                             ****ORCA TERMINATED NORMALLY****
TOTAL RUN TIME: 0 days 0 hours 0 minutes 12 seconds 304 msec
