                         Program Version 5.0.3 -  RELEASE  -
|  1> ! B3LYP cc-pVDZ
|  2> !TightSCF
|  3> %scf
|  4>  ConvForced true
|  5>  convergence tight
|  6>  MaxIter 500
|  7> end
|  8>
|  9> %tddft
| 10>  nroots 1
| 11> end
| 12>
| 13> # 	7024
| 14> * xyz 0 1
| 15> 		C   -1.149750  -0.375716   0.020564
| 16> 		O   -1.345933  -1.507650   0.455261
| 17> 		C   -0.007864   0.494760   0.066831
| 18> 		C    1.193823   0.014483  -0.177525
| 19> 		H   -2.058984   0.174818  -0.539665
| 20> 		H    0.174196   1.686672   0.417620
| 21> 		H    1.228677  -0.960531  -0.358542
| 22> 		H    1.999039   0.539152   0.101592
| 23> *
| 24>
| 25>                          ****END OF INPUT****

CARTESIAN COORDINATES (ANGSTROEM)
---------------------------------
  C     -1.149750   -0.375716    0.020564
  O     -1.345933   -1.507650    0.455261
  C     -0.007864    0.494760    0.066831
  C      1.193823    0.014483   -0.177525
  H     -2.058984    0.174818   -0.539665
  H      0.174196    1.686672    0.417620
  H      1.228677   -0.960531   -0.358542
  H      1.999039    0.539152    0.101592

 Total Charge           Charge          ....    0
 Multiplicity           Mult            ....    1
 Number of Electrons    NEL             ....   30
 Basis Dimension        Dim             ....   76

ORBITAL ENERGIES
----------------

  NO   OCC          E(Eh)            E(eV)
   0   2.0000     -19.152168      -521.1570
   1   2.0000     -10.290840      -280.0280
   2   2.0000     -10.218430      -278.0576
   3   2.0000     -10.191063      -277.3129
   4   2.0000      -1.045354       -28.4455
   5   2.0000      -0.816572       -22.2200
   6   2.0000      -0.668786       -18.1986
   7   2.0000      -0.541309       -14.7298
   8   2.0000      -0.513077       -13.9615
   9   2.0000      -0.449203       -12.2234
  10   2.0000      -0.443539       -12.0693
  11   2.0000      -0.395135       -10.7522
  12   2.0000      -0.366514        -9.9734
  13   2.0000      -0.295801        -8.0492
  14   2.0000      -0.259477        -7.0607
  15   0.0000      -0.067811        -1.8452
  16   0.0000       0.009443         0.2570
  17   0.0000       0.065197         1.7741
  18   0.0000       0.090658         2.4669
  19   0.0000       0.114761         3.1228

MULLIKEN ATOMIC CHARGES
-----------------------
   0 C :    0.175277
   1 O :   -0.185501
   2 C :   -0.173680
   3 C :    0.176678
   4 H :   -0.015912
   5 H :    0.045866
   6 H :   -0.016501
   7 H :   -0.006226
Sum of atomic charges:    0.0000000

LOEWDIN ATOMIC CHARGES
----------------------
   0 C :   -0.028325
   1 O :   -0.005125
   2 C :   -0.079601
   3 C :    0.031755
   4 H :   -0.005282
   5 H :    0.072817
   6 H :    0.003081
   7 H :    0.010680

  Mayer bond orders larger than 0.100000
B(  0-C ,  1-O ) :   2.1935 B(  0-C ,  2-C ) :   1.0091 B(  0-C ,  4-H ) :   0.8968
B(  2-C ,  3-C ) :   2.0024 B(  2-C ,  5-H ) :   0.9247 B(  3-C ,  6-H ) :   0.9470
B(  3-C ,  7-H ) :   0.9407

-----------------------------------------------------------------------------
         ABSORPTION SPECTRUM VIA TRANSITION ELECTRIC DIPOLE MOMENTS
-----------------------------------------------------------------------------
State   Energy    Wavelength  fosc         T2        TX        TY        TZ
        (cm-1)      (nm)                 (au**2)    (au)      (au)      (au)
-----------------------------------------------------------------------------
   1   28753.2    347.8   0.001890007   0.02164  -0.14209  -0.01230   0.03604

FINAL SINGLE POINT ENERGY      -191.622747899942

DIPOLE MOMENT
-------------
                                X             Y             Z
Electronic contribution:     -1.98114      -1.90717       0.55531
Nuclear contribution   :      2.56686       2.74438      -0.73988
                        -----------------------------------------
Total Dipole Moment    :      0.58572       0.83721      -0.18457
                        -----------------------------------------
Magnitude (a.u.)       :      1.03829
Magnitude (Debye)      :      2.63913

Rotational constants in cm-1:     0.852913     0.191631     0.162152
Rotational constants in MHz : 25569.702423  5744.938419  4861.193445

                             ****ORCA TERMINATED NORMALLY****
TOTAL RUN TIME: 0 days 0 hours 3 minutes 12 seconds 228 msec
