                         Program Version 5.0.3 -  RELEASE  -
|  1> ! HF-3c
|  2> !TightSCF
|  3> %scf
|  4>  ConvForced true
|  5>  convergence tight
|  6>  MaxIter 500
|  7> end
|  8>
|  9> %tddft
| 10>  nroots 1
| 11> end
| 12>
| 13> # 	13899
| 14> * xyz 0 1
| 15> 		C   -1.165375  -0.327385   0.029170
| 16> 		O   -2.128167  -0.392716   0.733770
| 17> 		C    0.017637   0.400449   0.298154
| 18> 		C    1.147395   0.201415  -0.371682
| 19> 		H   -1.171152  -1.009890  -0.922868
| 20> 		H    0.002765   1.214527   1.245888
| 21> 		H    1.040609  -0.429632  -1.073491
| 22> 		H    2.239029   0.414566   0.099786
| 23> *
| 24>
| 25>                          ****END OF INPUT****

CARTESIAN COORDINATES (ANGSTROEM)
---------------------------------
  C     -1.165375   -0.327385    0.029170
  O     -2.128167   -0.392716    0.733770
  C      0.017637    0.400449    0.298154
  C      1.147395    0.201415   -0.371682
  H     -1.171152   -1.009890   -0.922868
  H      0.002765    1.214527    1.245888
  H      1.040609   -0.429632   -1.073491
  H      2.239029    0.414566    0.099786

 Total Charge           Charge          ....    0
 Multiplicity           Mult            ....    1
 Number of Electrons    NEL             ....   30
 Basis Dimension        Dim             ....   24

ORBITAL ENERGIES
----------------

  NO   OCC          E(Eh)            E(eV)
   0   2.0000     -20.364942      -554.1582
   1   2.0000     -11.299154      -307.4656
   2   2.0000     -11.195247      -304.6382
   3   2.0000     -11.193374      -304.5872
   4   2.0000      -1.411751       -38.4157
   5   2.0000      -1.100686       -29.9512
   6   2.0000      -0.885603       -24.0985
   7   2.0000      -0.763250       -20.7691
   8   2.0000      -0.675250       -18.3745
   9   2.0000      -0.636607       -17.3230
  10   2.0000      -0.565190       -15.3796
  11   2.0000      -0.556501       -15.1432
  12   2.0000      -0.519857       -14.1460
  13   2.0000      -0.408729       -11.1221
  14   2.0000      -0.391657       -10.6575
  15   0.0000       0.124581         3.3900
  16   0.0000       0.312340         8.4992
  17   0.0000       0.467771        12.7287
  18   0.0000       0.543423        14.7873
  19   0.0000       0.635735        17.2992

MULLIKEN ATOMIC CHARGES
-----------------------
   0 C :    0.164432
   1 O :   -0.354897
   2 C :   -0.148248
   3 C :   -0.246386
   4 H :    0.128905
   5 H :    0.157713
   6 H :    0.133156
   7 H :    0.165326
Sum of atomic charges:   -0.0000000

LOEWDIN ATOMIC CHARGES
----------------------
   0 C :    0.137400
   1 O :   -0.256588
   2 C :   -0.114373
   3 C :   -0.148849
   4 H :    0.070891
   5 H :    0.114483
   6 H :    0.074961
   7 H :    0.122075

  Mayer bond orders larger than 0.100000
B(  0-C ,  1-O ) :   1.8885 B(  0-C ,  2-C ) :   1.0564 B(  0-C ,  4-H ) :   0.9132
B(  2-C ,  3-C ) :   1.9301 B(  2-C ,  5-H ) :   0.9447 B(  3-C ,  6-H ) :   0.9677
B(  3-C ,  7-H ) :   0.9567

-----------------------------------------------------------------------------
         ABSORPTION SPECTRUM VIA TRANSITION ELECTRIC DIPOLE MOMENTS
-----------------------------------------------------------------------------
State   Energy    Wavelength  fosc         T2        TX        TY        TZ
        (cm-1)      (nm)                 (au**2)    (au)      (au)      (au)
-----------------------------------------------------------------------------
   1   32688.4    305.9   0.000047915   0.00048   0.00784   0.01627  -0.01251

Dispersion correction           -0.025762734
FINAL SINGLE POINT ENERGY      -189.279058086754

DIPOLE MOMENT
-------------
                                X             Y             Z
Electronic contribution:     -3.03347      -0.24770       0.91345
Nuclear contribution   :      4.09458       0.35988      -1.30863
                        -----------------------------------------
Total Dipole Moment    :      1.06111       0.11218      -0.39518
                        -----------------------------------------
Magnitude (a.u.)       :      1.13785
Magnitude (Debye)      :      2.89219

Rotational constants in cm-1:     1.554851     0.159768     0.146272
Rotational constants in MHz : 46613.250289  4789.733451  4385.128804

                             ****ORCA TERMINATED NORMALLY****
TOTAL RUN TIME: 0 days 0 hours 0 minutes 10 seconds 565 msec
