                         Program Version 5.0.3 -  RELEASE  -
|  1> ! B3LYP cc-pVDZ
|  2> !TightSCF
|  3> %scf
|  4>  ConvForced true
|  5>  convergence tight
|  6>  MaxIter 500
|  7> end
|  8>
|  9> %tddft
| 10>  nroots 1
| 11> end
| 12>
| 13> # 	10112
| 14> * xyz 0 1
| 15> 		C   -1.198551  -0.358061  -0.008694
| 16> 		O   -1.676803  -1.060294  -0.871967
| 17> 		C    0.006650   0.442558  -0.228218
| 18> 		C    1.284487   0.040304   0.101131
| 19> 		H   -1.686258  -0.236642   0.974009
| 20> 		H   -0.154880   1.369704  -0.737050
| 21> 		H    1.328890  -0.867257   0.750015
| 22> 		H    2.113371   0.670670  -0.029819
| 23> *
| 24>
| 25>                          ****END OF INPUT****

CARTESIAN COORDINATES (ANGSTROEM)
---------------------------------
  C     -1.198551   -0.358061   -0.008694
  O     -1.676803   -1.060294   -0.871967
  C      0.006650    0.442558   -0.228218
  C      1.284487    0.040304    0.101131
  H     -1.686258   -0.236642    0.974009
  H     -0.154880    1.369704   -0.737050
  H      1.328890   -0.867257    0.750015
  H      2.113371    0.670670   -0.029819

 Total Charge           Charge          ....    0
 Multiplicity           Mult            ....    1
 Number of Electrons    NEL             ....   30
 Basis Dimension        Dim             ....   76

ORBITAL ENERGIES
----------------

  NO   OCC          E(Eh)            E(eV)
   0   2.0000     -19.146071      -520.9911
   1   2.0000     -10.281088      -279.7626
   2   2.0000     -10.208606      -277.7903
   3   2.0000     -10.207616      -277.7634
   4   2.0000      -1.052788       -28.6478
   5   2.0000      -0.790008       -21.4972
   6   2.0000      -0.657271       -17.8853
   7   2.0000      -0.561900       -15.2901
   8   2.0000      -0.495588       -13.4856
   9   2.0000      -0.460862       -12.5407
  10   2.0000      -0.439779       -11.9670
  11   2.0000      -0.400163       -10.8890
  12   2.0000      -0.370234       -10.0746
  13   2.0000      -0.279525        -7.6063
  14   2.0000      -0.258164        -7.0250
  15   0.0000      -0.040339        -1.0977
  16   0.0000      -0.015878        -0.4321
  17   0.0000       0.087175         2.3722
  18   0.0000       0.095967         2.6114
  19   0.0000       0.101837         2.7711

MULLIKEN ATOMIC CHARGES
-----------------------
   0 C :    0.174196
   1 O :   -0.180249
   2 C :   -0.089322
   3 C :    0.035639
   4 H :   -0.007913
   5 H :    0.016968
   6 H :    0.027613
   7 H :    0.023067
Sum of atomic charges:    0.0000000

LOEWDIN ATOMIC CHARGES
----------------------
   0 C :   -0.023063
   1 O :    0.013138
   2 C :   -0.047080
   3 C :   -0.022667
   4 H :   -0.004762
   5 H :    0.031998
   6 H :    0.033311
   7 H :    0.019124

  Mayer bond orders larger than 0.100000
B(  0-C ,  1-O ) :   2.2280 B(  0-C ,  2-C ) :   0.9954 B(  0-C ,  4-H ) :   0.9167
B(  2-C ,  3-C ) :   2.0253 B(  2-C ,  5-H ) :   0.9394 B(  3-C ,  6-H ) :   0.9472
B(  3-C ,  7-H ) :   0.9467

-----------------------------------------------------------------------------
         ABSORPTION SPECTRUM VIA TRANSITION ELECTRIC DIPOLE MOMENTS
-----------------------------------------------------------------------------
State   Energy    Wavelength  fosc         T2        TX        TY        TZ
        (cm-1)      (nm)                 (au**2)    (au)      (au)      (au)
-----------------------------------------------------------------------------
   1   32678.7    306.0   0.000882821   0.00889   0.09219   0.00616   0.01886

FINAL SINGLE POINT ENERGY      -191.642047301047

DIPOLE MOMENT
-------------
                                X             Y             Z
Electronic contribution:     -2.61876      -1.22124      -1.28687
Nuclear contribution   :      3.09693       1.83869       1.86732
                        -----------------------------------------
Total Dipole Moment    :      0.47817       0.61744       0.58045
                        -----------------------------------------
Magnitude (a.u.)       :      0.97304
Magnitude (Debye)      :      2.47327

Rotational constants in cm-1:     1.023876     0.163106     0.157756
Rotational constants in MHz : 30695.019334  4889.795053  4729.415098

                             ****ORCA TERMINATED NORMALLY****
TOTAL RUN TIME: 0 days 0 hours 3 minutes 24 seconds 34 msec
