                         Program Version 5.0.3 -  RELEASE  -
|  1> ! HF-3c
|  2> !TightSCF
|  3> %scf
|  4>  ConvForced true
|  5>  convergence tight
|  6>  MaxIter 500
|  7> end
|  8>
|  9> %tddft
| 10>  nroots 1
| 11> end
| 12>
| 13> # 	1687
| 14> * xyz 0 1
| 15> 		C   -1.141623  -0.340858  -0.037736
| 16> 		O   -1.447771  -1.380830   0.622923
| 17> 		C   -0.003316   0.460099   0.151694
| 18> 		C    1.276639   0.000772  -0.098293
| 19> 		H   -1.963799   0.114330  -0.706062
| 20> 		H   -0.132402   1.524573   0.491421
| 21> 		H    1.365047  -0.971158  -0.342529
| 22> 		H    2.005466   0.600860  -0.075131
| 23> *
| 24>
| 25>                          ****END OF INPUT****

CARTESIAN COORDINATES (ANGSTROEM)
---------------------------------
  C     -1.141623   -0.340858   -0.037736
  O     -1.447771   -1.380830    0.622923
  C     -0.003316    0.460099    0.151694
  C      1.276639    0.000772   -0.098293
  H     -1.963799    0.114330   -0.706062
  H     -0.132402    1.524573    0.491421
  H      1.365047   -0.971158   -0.342529
  H      2.005466    0.600860   -0.075131

 Total Charge           Charge          ....    0
 Multiplicity           Mult            ....    1
 Number of Electrons    NEL             ....   30
 Basis Dimension        Dim             ....   24

ORBITAL ENERGIES
----------------

  NO   OCC          E(Eh)            E(eV)
   0   2.0000     -20.358091      -553.9718
   1   2.0000     -11.289754      -307.2098
   2   2.0000     -11.205253      -304.9104
   3   2.0000     -11.194196      -304.6095
   4   2.0000      -1.364200       -37.1218
   5   2.0000      -1.091942       -29.7133
   6   2.0000      -0.923701       -25.1352
   7   2.0000      -0.754021       -20.5180
   8   2.0000      -0.708877       -19.2895
   9   2.0000      -0.629825       -17.1384
  10   2.0000      -0.605759       -16.4835
  11   2.0000      -0.568587       -15.4720
  12   2.0000      -0.483341       -13.1524
  13   2.0000      -0.421139       -11.4598
  14   2.0000      -0.389972       -10.6117
  15   0.0000       0.131334         3.5738
  16   0.0000       0.223351         6.0777
  17   0.0000       0.583795        15.8859
  18   0.0000       0.618737        16.8367
  19   0.0000       0.709095        19.2954

MULLIKEN ATOMIC CHARGES
-----------------------
   0 C :    0.142363
   1 O :   -0.329602
   2 C :   -0.147436
   3 C :   -0.262240
   4 H :    0.142247
   5 H :    0.158335
   6 H :    0.152502
   7 H :    0.143831
Sum of atomic charges:   -0.0000000

LOEWDIN ATOMIC CHARGES
----------------------
   0 C :    0.136809
   1 O :   -0.254054
   2 C :   -0.100038
   3 C :   -0.152008
   4 H :    0.084113
   5 H :    0.107461
   6 H :    0.094552
   7 H :    0.083165

  Mayer bond orders larger than 0.100000
B(  0-C ,  1-O ) :   1.9073 B(  0-C ,  2-C ) :   1.0561 B(  0-C ,  4-H ) :   0.9178
B(  2-C ,  3-C ) :   1.9440 B(  2-C ,  5-H ) :   0.9460 B(  3-C ,  6-H ) :   0.9676
B(  3-C ,  7-H ) :   0.9714

-----------------------------------------------------------------------------
         ABSORPTION SPECTRUM VIA TRANSITION ELECTRIC DIPOLE MOMENTS
-----------------------------------------------------------------------------
State   Energy    Wavelength  fosc         T2        TX        TY        TZ
        (cm-1)      (nm)                 (au**2)    (au)      (au)      (au)
-----------------------------------------------------------------------------
   1   29908.1    334.4   0.000221034   0.00243  -0.04732   0.00002  -0.01393

Dispersion correction           -0.025528931
FINAL SINGLE POINT ENERGY      -189.303256996901

DIPOLE MOMENT
-------------
                                X             Y             Z
Electronic contribution:     -2.22528      -1.57922       0.73998
Nuclear contribution   :      2.53804       2.47153      -1.22353
                        -----------------------------------------
Total Dipole Moment    :      0.31276       0.89231      -0.48356
                        -----------------------------------------
Magnitude (a.u.)       :      1.06201
Magnitude (Debye)      :      2.69942

Rotational constants in cm-1:     0.859439     0.183089     0.159933
Rotational constants in MHz : 25765.320828  5488.879993  4794.657260

                             ****ORCA TERMINATED NORMALLY****
TOTAL RUN TIME: 0 days 0 hours 0 minutes 10 seconds 922 msec
