                         Program Version 5.0.3 -  RELEASE  -
|  1> ! B3LYP cc-pVDZ
|  2> !TightSCF
|  3> %scf
|  4>  ConvForced true
|  5>  convergence tight
|  6>  MaxIter 500
|  7> end
|  8>
|  9> %tddft
| 10>  nroots 1
| 11> end
| 12>
| 13> # 	32526
| 14> * xyz 0 1
| 15> 		C   -0.553668  -0.423045   0.006073
| 16> 		O   -0.561477  -1.613405  -0.012886
| 17> 		C    0.643948   0.429472  -0.054076
| 18> 		C    1.782311  -0.171860   0.055920
| 19> 		H   -1.557968  -0.021287   0.199655
| 20> 		H    0.631170   1.478278   0.136217
| 21> 		H    1.765223  -1.187566   0.051294
| 22> 		H    2.748664   0.529719  -0.290698
| 23> *
| 24>
| 25>                          ****END OF INPUT****

CARTESIAN COORDINATES (ANGSTROEM)
---------------------------------
  C     -0.553668   -0.423045    0.006073
  O     -0.561477   -1.613405   -0.012886
  C      0.643948    0.429472   -0.054076
  C      1.782311   -0.171860    0.055920
  H     -1.557968   -0.021287    0.199655
  H      0.631170    1.478278    0.136217
  H      1.765223   -1.187566    0.051294
  H      2.748664    0.529719   -0.290698

 Total Charge           Charge          ....    0
 Multiplicity           Mult            ....    1
 Number of Electrons    NEL             ....   30
 Basis Dimension        Dim             ....   76

ORBITAL ENERGIES
----------------

  NO   OCC          E(Eh)            E(eV)
   0   2.0000     -19.135348      -520.6993
   1   2.0000     -10.269733      -279.4536
   2   2.0000     -10.209304      -277.8093
   3   2.0000     -10.195975      -277.4466
   4   2.0000      -1.059295       -28.8249
   5   2.0000      -0.811220       -22.0744
   6   2.0000      -0.645790       -17.5728
   7   2.0000      -0.548344       -14.9212
   8   2.0000      -0.518495       -14.1090
   9   2.0000      -0.448209       -12.1964
  10   2.0000      -0.416116       -11.3231
  11   2.0000      -0.405352       -11.0302
  12   2.0000      -0.379748       -10.3335
  13   2.0000      -0.294175        -8.0049
  14   2.0000      -0.252645        -6.8748
  15   0.0000      -0.066692        -1.8148
  16   0.0000       0.048570         1.3216
  17   0.0000       0.066601         1.8123
  18   0.0000       0.098696         2.6857
  19   0.0000       0.125722         3.4211

MULLIKEN ATOMIC CHARGES
-----------------------
   0 C :    0.179426
   1 O :   -0.180334
   2 C :   -0.078302
   3 C :    0.059672
   4 H :   -0.031645
   5 H :   -0.009912
   6 H :    0.005986
   7 H :    0.055110
Sum of atomic charges:    0.0000000

LOEWDIN ATOMIC CHARGES
----------------------
   0 C :   -0.042203
   1 O :    0.012167
   2 C :   -0.085076
   3 C :    0.027901
   4 H :   -0.008460
   5 H :    0.027845
   6 H :    0.005411
   7 H :    0.062415

  Mayer bond orders larger than 0.100000
B(  0-C ,  1-O ) :   2.1919 B(  0-C ,  2-C ) :   1.0311 B(  0-C ,  4-H ) :   0.9353
B(  2-C ,  3-C ) :   1.9712 B(  2-C ,  5-H ) :   0.9426 B(  3-C ,  6-H ) :   0.9269
B(  3-C ,  7-H ) :   0.9368

-----------------------------------------------------------------------------
         ABSORPTION SPECTRUM VIA TRANSITION ELECTRIC DIPOLE MOMENTS
-----------------------------------------------------------------------------
State   Energy    Wavelength  fosc         T2        TX        TY        TZ
        (cm-1)      (nm)                 (au**2)    (au)      (au)      (au)
-----------------------------------------------------------------------------
   1   28102.5    355.8   0.000536506   0.00628  -0.05178  -0.01219  -0.05878

FINAL SINGLE POINT ENERGY      -191.643515964788

DIPOLE MOMENT
-------------
                                X             Y             Z
Electronic contribution:     -1.87402      -1.67750      -0.07792
Nuclear contribution   :      2.20626       2.53989       0.09124
                        -----------------------------------------
Total Dipole Moment    :      0.33224       0.86240       0.01333
                        -----------------------------------------
Magnitude (a.u.)       :      0.92428
Magnitude (Debye)      :      2.34933

Rotational constants in cm-1:     0.803039     0.219033     0.172878
Rotational constants in MHz : 24074.518496  6566.450452  5182.745416

                             ****ORCA TERMINATED NORMALLY****
TOTAL RUN TIME: 0 days 0 hours 3 minutes 22 seconds 552 msec
