                         Program Version 5.0.3 -  RELEASE  -
|  1> ! B3LYP cc-pVDZ
|  2> !TightSCF
|  3> %scf
|  4>  ConvForced true
|  5>  convergence tight
|  6>  MaxIter 500
|  7> end
|  8>
|  9> %tddft
| 10>  nroots 1
| 11> end
| 12>
| 13> # 	10120
| 14> * xyz 0 1
| 15> 		C   -1.144491  -0.298556  -0.075608
| 16> 		O   -1.183735  -1.523918   0.082756
| 17> 		C   -0.006102   0.572233   0.078065
| 18> 		C    1.204473  -0.067679   0.004499
| 19> 		H   -2.133914   0.255018  -0.135361
| 20> 		H   -0.137312   1.561877   0.269516
| 21> 		H    1.274678  -1.078578  -0.155811
| 22> 		H    2.099949   0.576511   0.006266
| 23> *
| 24>
| 25>                          ****END OF INPUT****

CARTESIAN COORDINATES (ANGSTROEM)
---------------------------------
  C     -1.144491   -0.298556   -0.075608
  O     -1.183735   -1.523918    0.082756
  C     -0.006102    0.572233    0.078065
  C      1.204473   -0.067679    0.004499
  H     -2.133914    0.255018   -0.135361
  H     -0.137312    1.561877    0.269516
  H      1.274678   -1.078578   -0.155811
  H      2.099949    0.576511    0.006266

 Total Charge           Charge          ....    0
 Multiplicity           Mult            ....    1
 Number of Electrons    NEL             ....   30
 Basis Dimension        Dim             ....   76

ORBITAL ENERGIES
----------------

  NO   OCC          E(Eh)            E(eV)
   0   2.0000     -19.133720      -520.6550
   1   2.0000     -10.271088      -279.4905
   2   2.0000     -10.216580      -278.0073
   3   2.0000     -10.203140      -277.6416
   4   2.0000      -1.028614       -27.9900
   5   2.0000      -0.802241       -21.8301
   6   2.0000      -0.663709       -18.0604
   7   2.0000      -0.552836       -15.0434
   8   2.0000      -0.511088       -13.9074
   9   2.0000      -0.451024       -12.2730
  10   2.0000      -0.411146       -11.1878
  11   2.0000      -0.399200       -10.8628
  12   2.0000      -0.389103       -10.5880
  13   2.0000      -0.284470        -7.7408
  14   2.0000      -0.250673        -6.8212
  15   0.0000      -0.076488        -2.0813
  16   0.0000       0.047391         1.2896
  17   0.0000       0.072236         1.9656
  18   0.0000       0.096265         2.6195
  19   0.0000       0.130791         3.5590

MULLIKEN ATOMIC CHARGES
-----------------------
   0 C :    0.177099
   1 O :   -0.218512
   2 C :   -0.063117
   3 C :    0.110931
   4 H :   -0.024656
   5 H :   -0.033102
   6 H :    0.018543
   7 H :    0.032813
Sum of atomic charges:   -0.0000000

LOEWDIN ATOMIC CHARGES
----------------------
   0 C :   -0.028846
   1 O :   -0.035157
   2 C :   -0.058344
   3 C :    0.067001
   4 H :   -0.005570
   5 H :    0.012137
   6 H :    0.014204
   7 H :    0.034575

  Mayer bond orders larger than 0.100000
B(  0-C ,  1-O ) :   2.1434 B(  0-C ,  2-C ) :   1.0935 B(  0-C ,  4-H ) :   0.9190
B(  1-O ,  3-C ) :   0.1012 B(  2-C ,  3-C ) :   1.9287 B(  2-C ,  5-H ) :   0.9544
B(  3-C ,  6-H ) :   0.9391 B(  3-C ,  7-H ) :   0.9492

-----------------------------------------------------------------------------
         ABSORPTION SPECTRUM VIA TRANSITION ELECTRIC DIPOLE MOMENTS
-----------------------------------------------------------------------------
State   Energy    Wavelength  fosc         T2        TX        TY        TZ
        (cm-1)      (nm)                 (au**2)    (au)      (au)      (au)
-----------------------------------------------------------------------------
   1   25738.9    388.5   0.000078868   0.00101  -0.01254   0.00873   0.02785

FINAL SINGLE POINT ENERGY      -191.676175552035

DIPOLE MOMENT
-------------
                                X             Y             Z
Electronic contribution:     -1.65759      -1.63718       0.03191
Nuclear contribution   :      2.17212       2.59408      -0.10676
                        -----------------------------------------
Total Dipole Moment    :      0.51453       0.95690      -0.07485
                        -----------------------------------------
Magnitude (a.u.)       :      1.08904
Magnitude (Debye)      :      2.76812

Rotational constants in cm-1:     0.730684     0.218112     0.169092
Rotational constants in MHz : 21905.352189  6538.821902  5069.249787

                             ****ORCA TERMINATED NORMALLY****
TOTAL RUN TIME: 0 days 0 hours 3 minutes 8 seconds 424 msec
