                         Program Version 5.0.3 -  RELEASE  -
|  1> ! HF-3c
|  2> !TightSCF
|  3> %scf
|  4>  ConvForced true
|  5>  convergence tight
|  6>  MaxIter 500
|  7> end
|  8>
|  9> %tddft
| 10>  nroots 1
| 11> end
| 12>
| 13> # 	7477
| 14> * xyz 0 1
| 15> 		C   -1.268251  -0.374246  -0.066910
| 16> 		O   -2.231005  -0.297296  -0.676220
| 17> 		C    0.033485   0.377570  -0.316849
| 18> 		C    1.151108   0.136797   0.333595
| 19> 		H   -1.224731  -1.177313   0.682017
| 20> 		H    0.078668   1.391370  -1.124887
| 21> 		H    1.233029  -0.680804   1.090347
| 22> 		H    2.175688   0.614595   0.092311
| 23> *
| 24>
| 25>                          ****END OF INPUT****

CARTESIAN COORDINATES (ANGSTROEM)
---------------------------------
  C     -1.268251   -0.374246   -0.066910
  O     -2.231005   -0.297296   -0.676220
  C      0.033485    0.377570   -0.316849
  C      1.151108    0.136797    0.333595
  H     -1.224731   -1.177313    0.682017
  H      0.078668    1.391370   -1.124887
  H      1.233029   -0.680804    1.090347
  H      2.175688    0.614595    0.092311

 Total Charge           Charge          ....    0
 Multiplicity           Mult            ....    1
 Number of Electrons    NEL             ....   30
 Basis Dimension        Dim             ....   24

ORBITAL ENERGIES
----------------

  NO   OCC          E(Eh)            E(eV)
   0   2.0000     -20.391738      -554.8874
   1   2.0000     -11.317804      -307.9731
   2   2.0000     -11.182382      -304.2881
   3   2.0000     -11.180101      -304.2260
   4   2.0000      -1.459084       -39.7037
   5   2.0000      -1.066569       -29.0228
   6   2.0000      -0.859538       -23.3892
   7   2.0000      -0.763590       -20.7783
   8   2.0000      -0.671154       -18.2630
   9   2.0000      -0.637519       -17.3478
  10   2.0000      -0.575606       -15.6630
  11   2.0000      -0.572794       -15.5865
  12   2.0000      -0.500242       -13.6123
  13   2.0000      -0.403974       -10.9927
  14   2.0000      -0.397408       -10.8140
  15   0.0000       0.154229         4.1968
  16   0.0000       0.319674         8.6988
  17   0.0000       0.441348        12.0097
  18   0.0000       0.520286        14.1577
  19   0.0000       0.624383        16.9903

MULLIKEN ATOMIC CHARGES
-----------------------
   0 C :    0.184983
   1 O :   -0.359713
   2 C :   -0.151429
   3 C :   -0.234428
   4 H :    0.131465
   5 H :    0.153119
   6 H :    0.132421
   7 H :    0.143582
Sum of atomic charges:    0.0000000

LOEWDIN ATOMIC CHARGES
----------------------
   0 C :    0.147318
   1 O :   -0.238765
   2 C :   -0.127990
   3 C :   -0.145682
   4 H :    0.065358
   5 H :    0.115343
   6 H :    0.085913
   7 H :    0.098504

  Mayer bond orders larger than 0.100000
B(  0-C ,  1-O ) :   1.9301 B(  0-C ,  2-C ) :   0.9867 B(  0-C ,  4-H ) :   0.9149
B(  2-C ,  3-C ) :   1.9762 B(  2-C ,  5-H ) :   0.9429 B(  3-C ,  6-H ) :   0.9608
B(  3-C ,  7-H ) :   0.9601

-----------------------------------------------------------------------------
         ABSORPTION SPECTRUM VIA TRANSITION ELECTRIC DIPOLE MOMENTS
-----------------------------------------------------------------------------
State   Energy    Wavelength  fosc         T2        TX        TY        TZ
        (cm-1)      (nm)                 (au**2)    (au)      (au)      (au)
-----------------------------------------------------------------------------
   1   36727.2    272.3   0.000224065   0.00201  -0.03658  -0.02580   0.00223

Dispersion correction           -0.024733126
FINAL SINGLE POINT ENERGY      -189.285034756551

DIPOLE MOMENT
-------------
                                X             Y             Z
Electronic contribution:     -3.40550      -0.29483      -0.97694
Nuclear contribution   :      4.40265       0.33083       1.40145
                        -----------------------------------------
Total Dipole Moment    :      0.99715       0.03600       0.42452
                        -----------------------------------------
Magnitude (a.u.)       :      1.08435
Magnitude (Debye)      :      2.75621

Rotational constants in cm-1:     1.541413     0.152343     0.138893
Rotational constants in MHz : 46210.399698  4567.131311  4163.903898

                             ****ORCA TERMINATED NORMALLY****
TOTAL RUN TIME: 0 days 0 hours 0 minutes 12 seconds 722 msec
