                         Program Version 5.0.3 -  RELEASE  -
|  1> ! B3LYP cc-pVDZ
|  2> !TightSCF
|  3> %scf
|  4>  ConvForced true
|  5>  convergence tight
|  6>  MaxIter 500
|  7> end
|  8>
|  9> %tddft
| 10>  nroots 1
| 11> end
| 12>
| 13> # 	24732
| 14> * xyz 0 1
| 15> 		C   -0.555252  -0.411517  -0.025901
| 16> 		O   -0.582246  -1.641332   0.014205
| 17> 		C    0.647730   0.414308   0.007834
| 18> 		C    1.814619  -0.141475   0.016778
| 19> 		H   -1.503301   0.140388  -0.074550
| 20> 		H    0.479654   1.443551   0.132604
| 21> 		H    1.881987  -1.135192  -0.096465
| 22> 		H    2.624681   0.507769  -0.172469
| 23> *
| 24>
| 25>                          ****END OF INPUT****

CARTESIAN COORDINATES (ANGSTROEM)
---------------------------------
  C     -0.555252   -0.411517   -0.025901
  O     -0.582246   -1.641332    0.014205
  C      0.647730    0.414308    0.007834
  C      1.814619   -0.141475    0.016778
  H     -1.503301    0.140388   -0.074550
  H      0.479654    1.443551    0.132604
  H      1.881987   -1.135192   -0.096465
  H      2.624681    0.507769   -0.172469

 Total Charge           Charge          ....    0
 Multiplicity           Mult            ....    1
 Number of Electrons    NEL             ....   30
 Basis Dimension        Dim             ....   76

ORBITAL ENERGIES
----------------

  NO   OCC          E(Eh)            E(eV)
   0   2.0000     -19.135955      -520.7158
   1   2.0000     -10.269821      -279.4560
   2   2.0000     -10.195768      -277.4410
   3   2.0000     -10.194304      -277.4011
   4   2.0000      -1.033339       -28.1186
   5   2.0000      -0.813552       -22.1379
   6   2.0000      -0.667388       -18.1606
   7   2.0000      -0.549551       -14.9540
   8   2.0000      -0.520059       -14.1515
   9   2.0000      -0.451913       -12.2972
  10   2.0000      -0.421173       -11.4607
  11   2.0000      -0.397644       -10.8205
  12   2.0000      -0.388058       -10.5596
  13   2.0000      -0.294114        -8.0033
  14   2.0000      -0.254007        -6.9119
  15   0.0000      -0.071108        -1.9349
  16   0.0000       0.061775         1.6810
  17   0.0000       0.074253         2.0205
  18   0.0000       0.102612         2.7922
  19   0.0000       0.133783         3.6404

MULLIKEN ATOMIC CHARGES
-----------------------
   0 C :    0.188093
   1 O :   -0.211784
   2 C :   -0.117049
   3 C :    0.185882
   4 H :   -0.025127
   5 H :   -0.029710
   6 H :   -0.007119
   7 H :    0.016813
Sum of atomic charges:    0.0000000

LOEWDIN ATOMIC CHARGES
----------------------
   0 C :   -0.018309
   1 O :   -0.025531
   2 C :   -0.068017
   3 C :    0.054403
   4 H :   -0.006253
   5 H :    0.021718
   6 H :    0.010428
   7 H :    0.031562

  Mayer bond orders larger than 0.100000
B(  0-C ,  1-O ) :   2.1667 B(  0-C ,  2-C ) :   1.0820 B(  0-C ,  4-H ) :   0.9222
B(  2-C ,  3-C ) :   1.9836 B(  2-C ,  5-H ) :   0.9462 B(  3-C ,  6-H ) :   0.9234
B(  3-C ,  7-H ) :   0.9341

-----------------------------------------------------------------------------
         ABSORPTION SPECTRUM VIA TRANSITION ELECTRIC DIPOLE MOMENTS
-----------------------------------------------------------------------------
State   Energy    Wavelength  fosc         T2        TX        TY        TZ
        (cm-1)      (nm)                 (au**2)    (au)      (au)      (au)
-----------------------------------------------------------------------------
   1   27042.5    369.8   0.000175337   0.00213  -0.02748  -0.00378  -0.03695

FINAL SINGLE POINT ENERGY      -191.669241040562

DIPOLE MOMENT
-------------
                                X             Y             Z
Electronic contribution:     -1.70020      -1.73224       0.13982
Nuclear contribution   :      2.10985       2.68490      -0.19758
                        -----------------------------------------
Total Dipole Moment    :      0.40965       0.95266      -0.05776
                        -----------------------------------------
Magnitude (a.u.)       :      1.03861
Magnitude (Debye)      :      2.63994

Rotational constants in cm-1:     0.789850     0.214780     0.169127
Rotational constants in MHz : 23679.110871  6438.956288  5070.297323

                             ****ORCA TERMINATED NORMALLY****
TOTAL RUN TIME: 0 days 0 hours 3 minutes 21 seconds 19 msec
