                         Program Version 5.0.3 -  RELEASE  -
|  1> ! HF-3c
|  2> !TightSCF
|  3> %scf
|  4>  ConvForced true
|  5>  convergence tight
|  6>  MaxIter 500
|  7> end
|  8>
|  9> %tddft
| 10>  nroots 1
| 11> end
| 12>
| 13> # 	3665
| 14> * xyz 0 1
| 15> 		C   -1.200517  -0.327376   0.018833
| 16> 		O   -1.400328  -1.371548  -0.546815
| 17> 		C    0.024531   0.521200  -0.141110
| 18> 		C    1.237211   0.012993   0.175099
| 19> 		H   -2.043233   0.083851   0.817125
| 20> 		H   -0.087991   1.557073  -0.647996
| 21> 		H    1.390084  -0.980503   0.447653
| 22> 		H    2.124979   0.585878  -0.091332
| 23> *
| 24>
| 25>                          ****END OF INPUT****

CARTESIAN COORDINATES (ANGSTROEM)
---------------------------------
  C     -1.200517   -0.327376    0.018833
  O     -1.400328   -1.371548   -0.546815
  C      0.024531    0.521200   -0.141110
  C      1.237211    0.012993    0.175099
  H     -2.043233    0.083851    0.817125
  H     -0.087991    1.557073   -0.647996
  H      1.390084   -0.980503    0.447653
  H      2.124979    0.585878   -0.091332

 Total Charge           Charge          ....    0
 Multiplicity           Mult            ....    1
 Number of Electrons    NEL             ....   30
 Basis Dimension        Dim             ....   24

ORBITAL ENERGIES
----------------

  NO   OCC          E(Eh)            E(eV)
   0   2.0000     -20.373132      -554.3811
   1   2.0000     -11.296743      -307.4000
   2   2.0000     -11.191045      -304.5238
   3   2.0000     -11.179607      -304.2126
   4   2.0000      -1.407147       -38.2904
   5   2.0000      -1.068049       -29.0631
   6   2.0000      -0.874455       -23.7951
   7   2.0000      -0.738073       -20.0840
   8   2.0000      -0.680392       -18.5144
   9   2.0000      -0.615655       -16.7528
  10   2.0000      -0.606761       -16.5108
  11   2.0000      -0.546477       -14.8704
  12   2.0000      -0.505426       -13.7534
  13   2.0000      -0.403249       -10.9730
  14   2.0000      -0.392116       -10.6700
  15   0.0000       0.167095         4.5469
  16   0.0000       0.237167         6.4536
  17   0.0000       0.505559        13.7570
  18   0.0000       0.571352        15.5473
  19   0.0000       0.633245        17.2315

MULLIKEN ATOMIC CHARGES
-----------------------
   0 C :    0.183456
   1 O :   -0.352088
   2 C :   -0.154475
   3 C :   -0.248557
   4 H :    0.130319
   5 H :    0.153539
   6 H :    0.145755
   7 H :    0.142050
Sum of atomic charges:    0.0000000

LOEWDIN ATOMIC CHARGES
----------------------
   0 C :    0.152042
   1 O :   -0.253262
   2 C :   -0.114208
   3 C :   -0.152679
   4 H :    0.077310
   5 H :    0.106606
   6 H :    0.091348
   7 H :    0.092843

  Mayer bond orders larger than 0.100000
B(  0-C ,  1-O ) :   1.9449 B(  0-C ,  2-C ) :   0.9928 B(  0-C ,  4-H ) :   0.9033
B(  2-C ,  3-C ) :   1.9830 B(  2-C ,  5-H ) :   0.9490 B(  3-C ,  6-H ) :   0.9658
B(  3-C ,  7-H ) :   0.9644

-----------------------------------------------------------------------------
         ABSORPTION SPECTRUM VIA TRANSITION ELECTRIC DIPOLE MOMENTS
-----------------------------------------------------------------------------
State   Energy    Wavelength  fosc         T2        TX        TY        TZ
        (cm-1)      (nm)                 (au**2)    (au)      (au)      (au)
-----------------------------------------------------------------------------
   1   34725.1    288.0   0.000024758   0.00023  -0.01528   0.00116  -0.00015

Dispersion correction           -0.024846231
FINAL SINGLE POINT ENERGY      -189.313788260332

DIPOLE MOMENT
-------------
                                X             Y             Z
Electronic contribution:     -2.32579      -1.50864      -0.62817
Nuclear contribution   :      2.63996       2.37221       0.99455
                        -----------------------------------------
Total Dipole Moment    :      0.31416       0.86357       0.36638
                        -----------------------------------------
Magnitude (a.u.)       :      0.98928
Magnitude (Debye)      :      2.51456

Rotational constants in cm-1:     0.813950     0.184204     0.160466
Rotational constants in MHz : 24401.592957  5522.297431  4810.662892

                             ****ORCA TERMINATED NORMALLY****
TOTAL RUN TIME: 0 days 0 hours 0 minutes 15 seconds 897 msec
