                         Program Version 5.0.3 -  RELEASE  -
|  1> ! B3LYP cc-pVDZ
|  2> !TightSCF
|  3> %scf
|  4>  ConvForced true
|  5>  convergence tight
|  6>  MaxIter 500
|  7> end
|  8>
|  9> %tddft
| 10>  nroots 1
| 11> end
| 12>
| 13> # 	18821
| 14> * xyz 0 1
| 15> 		C   -1.205501  -0.342659  -0.006684
| 16> 		O   -1.246160  -1.569027  -0.229050
| 17> 		C    0.052226   0.552584  -0.148269
| 18> 		C    1.232959   0.012137  -0.003893
| 19> 		H   -2.144347   0.185339   0.436000
| 20> 		H   -0.146323   1.590492  -0.181074
| 21> 		H    1.255145  -1.013479   0.196224
| 22> 		H    2.202958   0.512661  -0.079791
| 23> *
| 24>
| 25>                          ****END OF INPUT****

CARTESIAN COORDINATES (ANGSTROEM)
---------------------------------
  C     -1.205501   -0.342659   -0.006684
  O     -1.246160   -1.569027   -0.229050
  C      0.052226    0.552584   -0.148269
  C      1.232959    0.012137   -0.003893
  H     -2.144347    0.185339    0.436000
  H     -0.146323    1.590492   -0.181074
  H      1.255145   -1.013479    0.196224
  H      2.202958    0.512661   -0.079791

 Total Charge           Charge          ....    0
 Multiplicity           Mult            ....    1
 Number of Electrons    NEL             ....   30
 Basis Dimension        Dim             ....   76

ORBITAL ENERGIES
----------------

  NO   OCC          E(Eh)            E(eV)
   0   2.0000     -19.144910      -520.9595
   1   2.0000     -10.288089      -279.9531
   2   2.0000     -10.206596      -277.7356
   3   2.0000     -10.204826      -277.6874
   4   2.0000      -1.028889       -27.9975
   5   2.0000      -0.800095       -21.7717
   6   2.0000      -0.648656       -17.6508
   7   2.0000      -0.549474       -14.9519
   8   2.0000      -0.502746       -13.6804
   9   2.0000      -0.447928       -12.1887
  10   2.0000      -0.430687       -11.7196
  11   2.0000      -0.385617       -10.4932
  12   2.0000      -0.380217       -10.3462
  13   2.0000      -0.293830        -7.9955
  14   2.0000      -0.257105        -6.9962
  15   0.0000      -0.065210        -1.7745
  16   0.0000       0.038651         1.0517
  17   0.0000       0.070164         1.9093
  18   0.0000       0.093250         2.5375
  19   0.0000       0.118963         3.2372

MULLIKEN ATOMIC CHARGES
-----------------------
   0 C :    0.157084
   1 O :   -0.212730
   2 C :   -0.092787
   3 C :    0.111927
   4 H :    0.006025
   5 H :   -0.018536
   6 H :    0.016078
   7 H :    0.032940
Sum of atomic charges:   -0.0000000

LOEWDIN ATOMIC CHARGES
----------------------
   0 C :    0.001129
   1 O :   -0.036785
   2 C :   -0.067628
   3 C :    0.023287
   4 H :    0.003224
   5 H :    0.019520
   6 H :    0.022809
   7 H :    0.034444

  Mayer bond orders larger than 0.100000
B(  0-C ,  1-O ) :   2.1554 B(  0-C ,  2-C ) :   1.0085 B(  0-C ,  4-H ) :   0.9063
B(  2-C ,  3-C ) :   1.9914 B(  2-C ,  5-H ) :   0.9500 B(  3-C ,  6-H ) :   0.9253
B(  3-C ,  7-H ) :   0.9495

-----------------------------------------------------------------------------
         ABSORPTION SPECTRUM VIA TRANSITION ELECTRIC DIPOLE MOMENTS
-----------------------------------------------------------------------------
State   Energy    Wavelength  fosc         T2        TX        TY        TZ
        (cm-1)      (nm)                 (au**2)    (au)      (au)      (au)
-----------------------------------------------------------------------------
   1   28607.9    349.6   0.000100600   0.00116   0.01312   0.00958   0.02989

FINAL SINGLE POINT ENERGY      -191.667615981676

DIPOLE MOMENT
-------------
                                X             Y             Z
Electronic contribution:     -1.86747      -1.67437      -0.49621
Nuclear contribution   :      2.27322       2.59429       0.69433
                        -----------------------------------------
Total Dipole Moment    :      0.40575       0.91992       0.19811
                        -----------------------------------------
Magnitude (a.u.)       :      1.02477
Magnitude (Debye)      :      2.60475

Rotational constants in cm-1:     0.764921     0.195910     0.158152
Rotational constants in MHz : 22931.752518  5873.235238  4741.278943

                             ****ORCA TERMINATED NORMALLY****
TOTAL RUN TIME: 0 days 0 hours 3 minutes 22 seconds 466 msec
