                         Program Version 5.0.3 -  RELEASE  -
|  1> ! HF-3c
|  2> !TightSCF
|  3> %scf
|  4>  ConvForced true
|  5>  convergence tight
|  6>  MaxIter 500
|  7> end
|  8>
|  9> %tddft
| 10>  nroots 1
| 11> end
| 12>
| 13> # 	25686
| 14> * xyz 0 1
| 15> 		C   -0.658361  -0.459619   0.051009
| 16> 		O   -0.563926  -1.633091  -0.026701
| 17> 		C    0.646402   0.418372  -0.049302
| 18> 		C    1.875441  -0.084092   0.013652
| 19> 		H   -1.594599   0.101018   0.117629
| 20> 		H    0.491667   1.508431  -0.048371
| 21> 		H    1.956119  -1.275869   0.120152
| 22> 		H    2.830610   0.329011   0.047751
| 23> *
| 24>
| 25>                          ****END OF INPUT****

CARTESIAN COORDINATES (ANGSTROEM)
---------------------------------
  C     -0.658361   -0.459619    0.051009
  O     -0.563926   -1.633091   -0.026701
  C      0.646402    0.418372   -0.049302
  C      1.875441   -0.084092    0.013652
  H     -1.594599    0.101018    0.117629
  H      0.491667    1.508431   -0.048371
  H      1.956119   -1.275869    0.120152
  H      2.830610    0.329011    0.047751

 Total Charge           Charge          ....    0
 Multiplicity           Mult            ....    1
 Number of Electrons    NEL             ....   30
 Basis Dimension        Dim             ....   24

ORBITAL ENERGIES
----------------

  NO   OCC          E(Eh)            E(eV)
   0   2.0000     -20.384783      -554.6981
   1   2.0000     -11.309969      -307.7599
   2   2.0000     -11.178316      -304.1774
   3   2.0000     -11.176675      -304.1328
   4   2.0000      -1.431028       -38.9403
   5   2.0000      -1.053777       -28.6747
   6   2.0000      -0.874610       -23.7994
   7   2.0000      -0.756407       -20.5829
   8   2.0000      -0.689577       -18.7643
   9   2.0000      -0.619791       -16.8654
  10   2.0000      -0.606170       -16.4947
  11   2.0000      -0.552555       -15.0358
  12   2.0000      -0.500448       -13.6179
  13   2.0000      -0.409548       -11.1444
  14   2.0000      -0.392516       -10.6809
  15   0.0000       0.149222         4.0605
  16   0.0000       0.301523         8.2049
  17   0.0000       0.471544        12.8314
  18   0.0000       0.591844        16.1049
  19   0.0000       0.653008        17.7692

MULLIKEN ATOMIC CHARGES
-----------------------
   0 C :    0.182726
   1 O :   -0.354666
   2 C :   -0.170022
   3 C :   -0.227171
   4 H :    0.143729
   5 H :    0.132111
   6 H :    0.149705
   7 H :    0.143588
Sum of atomic charges:   -0.0000000

LOEWDIN ATOMIC CHARGES
----------------------
   0 C :    0.155649
   1 O :   -0.246730
   2 C :   -0.132655
   3 C :   -0.132897
   4 H :    0.077537
   5 H :    0.083441
   6 H :    0.105897
   7 H :    0.089757

  Mayer bond orders larger than 0.100000
B(  0-C ,  1-O ) :   1.9393 B(  0-C ,  2-C ) :   0.9734 B(  0-C ,  4-H ) :   0.9205
B(  2-C ,  3-C ) :   1.9795 B(  2-C ,  5-H ) :   0.9605 B(  3-C ,  6-H ) :   0.9535
B(  3-C ,  7-H ) :   0.9663

-----------------------------------------------------------------------------
         ABSORPTION SPECTRUM VIA TRANSITION ELECTRIC DIPOLE MOMENTS
-----------------------------------------------------------------------------
State   Energy    Wavelength  fosc         T2        TX        TY        TZ
        (cm-1)      (nm)                 (au**2)    (au)      (au)      (au)
-----------------------------------------------------------------------------
   1   35196.6    284.1   0.000085626   0.00080  -0.02632  -0.00472   0.00926

Dispersion correction           -0.025125797
FINAL SINGLE POINT ENERGY      -189.319143592333

DIPOLE MOMENT
-------------
                                X             Y             Z
Electronic contribution:     -2.15891      -1.59977      -0.12144
Nuclear contribution   :      2.30039       2.40955       0.22235
                        -----------------------------------------
Total Dipole Moment    :      0.14148       0.80977       0.10091
                        -----------------------------------------
Magnitude (a.u.)       :      0.82821
Magnitude (Debye)      :      2.10514

Rotational constants in cm-1:     0.752965     0.202122     0.159671
Rotational constants in MHz : 22573.335203  6059.461321  4786.814682

                             ****ORCA TERMINATED NORMALLY****
TOTAL RUN TIME: 0 days 0 hours 0 minutes 11 seconds 353 msec
