                         Program Version 5.0.3 -  RELEASE  -
|  1> ! HF-3c
|  2> !TightSCF
|  3> %scf
|  4>  ConvForced true
|  5>  convergence tight
|  6>  MaxIter 500
|  7> end
|  8>
|  9> %tddft
| 10>  nroots 1
| 11> end
| 12>
| 13> # 	30273
| 14> * xyz 0 1
| 15> 		C   -0.563847  -0.406934  -0.034526
| 16> 		O   -0.603948  -1.675174   0.011841
| 17> 		C    0.613022   0.439307   0.011381
| 18> 		C    1.867449  -0.103290   0.012219
| 19> 		H   -1.483590  -0.076733   0.058384
| 20> 		H    0.499497   1.552683   0.048956
| 21> 		H    1.990131  -1.286401  -0.057370
| 22> 		H    2.731868   0.475500  -0.111306
| 23> *
| 24>
| 25>                          ****END OF INPUT****

CARTESIAN COORDINATES (ANGSTROEM)
---------------------------------
  C     -0.563847   -0.406934   -0.034526
  O     -0.603948   -1.675174    0.011841
  C      0.613022    0.439307    0.011381
  C      1.867449   -0.103290    0.012219
  H     -1.483590   -0.076733    0.058384
  H      0.499497    1.552683    0.048956
  H      1.990131   -1.286401   -0.057370
  H      2.731868    0.475500   -0.111306

 Total Charge           Charge          ....    0
 Multiplicity           Mult            ....    1
 Number of Electrons    NEL             ....   30
 Basis Dimension        Dim             ....   24

ORBITAL ENERGIES
----------------

  NO   OCC          E(Eh)            E(eV)
   0   2.0000     -20.341860      -553.5302
   1   2.0000     -11.281205      -306.9772
   2   2.0000     -11.195608      -304.6480
   3   2.0000     -11.192729      -304.5696
   4   2.0000      -1.360285       -37.0152
   5   2.0000      -1.071213       -29.1492
   6   2.0000      -0.902395       -24.5554
   7   2.0000      -0.765708       -20.8360
   8   2.0000      -0.695721       -18.9315
   9   2.0000      -0.609075       -16.5738
  10   2.0000      -0.578904       -15.7528
  11   2.0000      -0.519788       -14.1441
  12   2.0000      -0.517280       -14.0759
  13   2.0000      -0.421951       -11.4819
  14   2.0000      -0.377947       -10.2845
  15   0.0000       0.112019         3.0482
  16   0.0000       0.297756         8.1024
  17   0.0000       0.529377        14.4051
  18   0.0000       0.582862        15.8605
  19   0.0000       0.628982        17.1155

MULLIKEN ATOMIC CHARGES
-----------------------
   0 C :    0.109766
   1 O :   -0.337289
   2 C :   -0.178369
   3 C :   -0.196979
   4 H :    0.145775
   5 H :    0.148712
   6 H :    0.165288
   7 H :    0.143096
Sum of atomic charges:    0.0000000

LOEWDIN ATOMIC CHARGES
----------------------
   0 C :    0.120769
   1 O :   -0.263208
   2 C :   -0.135400
   3 C :   -0.100796
   4 H :    0.072543
   5 H :    0.098599
   6 H :    0.118180
   7 H :    0.089314

  Mayer bond orders larger than 0.100000
B(  0-C ,  1-O ) :   1.8720 B(  0-C ,  2-C ) :   1.0661 B(  0-C ,  4-H ) :   0.9497
B(  2-C ,  3-C ) :   1.9132 B(  2-C ,  5-H ) :   0.9564 B(  3-C ,  6-H ) :   0.9550
B(  3-C ,  7-H ) :   0.9676

-----------------------------------------------------------------------------
         ABSORPTION SPECTRUM VIA TRANSITION ELECTRIC DIPOLE MOMENTS
-----------------------------------------------------------------------------
State   Energy    Wavelength  fosc         T2        TX        TY        TZ
        (cm-1)      (nm)                 (au**2)    (au)      (au)      (au)
-----------------------------------------------------------------------------
   1   27747.7    360.4   0.000022405   0.00027   0.00347   0.00483  -0.01518

Dispersion correction           -0.025438585
FINAL SINGLE POINT ENERGY      -189.329410535994

DIPOLE MOMENT
-------------
                                X             Y             Z
Electronic contribution:     -1.87608      -1.51916       0.01845
Nuclear contribution   :      2.34703       2.41238      -0.05713
                        -----------------------------------------
Total Dipole Moment    :      0.47095       0.89322      -0.03868
                        -----------------------------------------
Magnitude (a.u.)       :      1.01052
Magnitude (Debye)      :      2.56853

Rotational constants in cm-1:     0.747722     0.203046     0.159809
Rotational constants in MHz : 22416.130452  6087.162282  4790.960578

                             ****ORCA TERMINATED NORMALLY****
TOTAL RUN TIME: 0 days 0 hours 0 minutes 11 seconds 810 msec
