                         Program Version 5.0.3 -  RELEASE  -
|  1> ! HF-3c
|  2> !TightSCF
|  3> %scf
|  4>  ConvForced true
|  5>  convergence tight
|  6>  MaxIter 500
|  7> end
|  8>
|  9> %tddft
| 10>  nroots 1
| 11> end
| 12>
| 13> # 	27638
| 14> * xyz 0 1
| 15> 		C   -0.564260  -0.447040  -0.003641
| 16> 		O   -0.579689  -1.631002  -0.007613
| 17> 		C    0.617178   0.413734   0.037880
| 18> 		C    1.846280  -0.146923  -0.051220
| 19> 		H   -1.554865   0.302280   0.096333
| 20> 		H    0.434911   1.502536  -0.209381
| 21> 		H    1.855549  -1.112861   0.236988
| 22> 		H    2.787960   0.609121   0.195935
| 23> *
| 24>
| 25>                          ****END OF INPUT****

CARTESIAN COORDINATES (ANGSTROEM)
---------------------------------
  C     -0.564260   -0.447040   -0.003641
  O     -0.579689   -1.631002   -0.007613
  C      0.617178    0.413734    0.037880
  C      1.846280   -0.146923   -0.051220
  H     -1.554865    0.302280    0.096333
  H      0.434911    1.502536   -0.209381
  H      1.855549   -1.112861    0.236988
  H      2.787960    0.609121    0.195935

 Total Charge           Charge          ....    0
 Multiplicity           Mult            ....    1
 Number of Electrons    NEL             ....   30
 Basis Dimension        Dim             ....   24

ORBITAL ENERGIES
----------------

  NO   OCC          E(Eh)            E(eV)
   0   2.0000     -20.370949      -554.3217
   1   2.0000     -11.296610      -307.3964
   2   2.0000     -11.185958      -304.3854
   3   2.0000     -11.179142      -304.1999
   4   2.0000      -1.418440       -38.5977
   5   2.0000      -1.076662       -29.2975
   6   2.0000      -0.881682       -23.9918
   7   2.0000      -0.723378       -19.6841
   8   2.0000      -0.686801       -18.6888
   9   2.0000      -0.616272       -16.7696
  10   2.0000      -0.563897       -15.3444
  11   2.0000      -0.552277       -15.0282
  12   2.0000      -0.525358       -14.2957
  13   2.0000      -0.395170       -10.7531
  14   2.0000      -0.387821       -10.5531
  15   0.0000       0.124253         3.3811
  16   0.0000       0.305068         8.3013
  17   0.0000       0.482128        13.1194
  18   0.0000       0.544835        14.8257
  19   0.0000       0.622178        16.9303

MULLIKEN ATOMIC CHARGES
-----------------------
   0 C :    0.191555
   1 O :   -0.368211
   2 C :   -0.171904
   3 C :   -0.217891
   4 H :    0.118897
   5 H :    0.137650
   6 H :    0.153575
   7 H :    0.156330
Sum of atomic charges:   -0.0000000

LOEWDIN ATOMIC CHARGES
----------------------
   0 C :    0.153068
   1 O :   -0.263075
   2 C :   -0.134664
   3 C :   -0.122336
   4 H :    0.067049
   5 H :    0.089961
   6 H :    0.093828
   7 H :    0.116169

  Mayer bond orders larger than 0.100000
B(  0-C ,  1-O ) :   1.9111 B(  0-C ,  2-C ) :   1.0251 B(  0-C ,  4-H ) :   0.9010
B(  2-C ,  3-C ) :   1.9271 B(  2-C ,  5-H ) :   0.9600 B(  3-C ,  6-H ) :   0.9606
B(  3-C ,  7-H ) :   0.9564

-----------------------------------------------------------------------------
         ABSORPTION SPECTRUM VIA TRANSITION ELECTRIC DIPOLE MOMENTS
-----------------------------------------------------------------------------
State   Energy    Wavelength  fosc         T2        TX        TY        TZ
        (cm-1)      (nm)                 (au**2)    (au)      (au)      (au)
-----------------------------------------------------------------------------
   1   33356.6    299.8   0.000484173   0.00478   0.06476  -0.00693  -0.02317

Dispersion correction           -0.025943871
FINAL SINGLE POINT ENERGY      -189.286775181307

DIPOLE MOMENT
-------------
                                X             Y             Z
Electronic contribution:     -1.79840      -1.95673      -0.22628
Nuclear contribution   :      2.14879       3.00740       0.30021
                        -----------------------------------------
Total Dipole Moment    :      0.35039       1.05067       0.07393
                        -----------------------------------------
Magnitude (a.u.)       :      1.11002
Magnitude (Debye)      :      2.82145

Rotational constants in cm-1:     0.759187     0.210858     0.165668
Rotational constants in MHz : 22759.857695  6321.352180  4966.591403

                             ****ORCA TERMINATED NORMALLY****
TOTAL RUN TIME: 0 days 0 hours 0 minutes 10 seconds 384 msec
