                         Program Version 5.0.3 -  RELEASE  -
|  1> ! HF-3c
|  2> !TightSCF
|  3> %scf
|  4>  ConvForced true
|  5>  convergence tight
|  6>  MaxIter 500
|  7> end
|  8>
|  9> %tddft
| 10>  nroots 1
| 11> end
| 12>
| 13> # 	27002
| 14> * xyz 0 1
| 15> 		C   -0.686265  -0.459188  -0.016577
| 16> 		O   -0.571993  -1.620602   0.017742
| 17> 		C    0.646582   0.373815  -0.005110
| 18> 		C    1.912672  -0.098187   0.020289
| 19> 		H   -1.608421   0.108203  -0.132109
| 20> 		H    0.602389   1.557102   0.166633
| 21> 		H    2.073086  -1.159119  -0.209348
| 22> 		H    2.660249   0.663209  -0.082137
| 23> *
| 24>
| 25>                          ****END OF INPUT****

CARTESIAN COORDINATES (ANGSTROEM)
---------------------------------
  C     -0.686265   -0.459188   -0.016577
  O     -0.571993   -1.620602    0.017742
  C      0.646582    0.373815   -0.005110
  C      1.912672   -0.098187    0.020289
  H     -1.608421    0.108203   -0.132109
  H      0.602389    1.557102    0.166633
  H      2.073086   -1.159119   -0.209348
  H      2.660249    0.663209   -0.082137

 Total Charge           Charge          ....    0
 Multiplicity           Mult            ....    1
 Number of Electrons    NEL             ....   30
 Basis Dimension        Dim             ....   24

ORBITAL ENERGIES
----------------

  NO   OCC          E(Eh)            E(eV)
   0   2.0000     -20.391693      -554.8862
   1   2.0000     -11.315793      -307.9184
   2   2.0000     -11.170184      -303.9562
   3   2.0000     -11.168714      -303.9162
   4   2.0000      -1.443884       -39.2901
   5   2.0000      -1.048124       -28.5209
   6   2.0000      -0.874743       -23.8030
   7   2.0000      -0.747572       -20.3425
   8   2.0000      -0.688881       -18.7454
   9   2.0000      -0.620830       -16.8937
  10   2.0000      -0.590096       -16.0573
  11   2.0000      -0.559930       -15.2365
  12   2.0000      -0.511602       -13.9214
  13   2.0000      -0.408700       -11.1213
  14   2.0000      -0.384062       -10.4509
  15   0.0000       0.145510         3.9595
  16   0.0000       0.298444         8.1211
  17   0.0000       0.513024        13.9601
  18   0.0000       0.546188        14.8625
  19   0.0000       0.652846        17.7648

MULLIKEN ATOMIC CHARGES
-----------------------
   0 C :    0.177286
   1 O :   -0.351434
   2 C :   -0.141714
   3 C :   -0.251306
   4 H :    0.146282
   5 H :    0.125276
   6 H :    0.152695
   7 H :    0.142916
Sum of atomic charges:    0.0000000

LOEWDIN ATOMIC CHARGES
----------------------
   0 C :    0.149238
   1 O :   -0.239100
   2 C :   -0.112605
   3 C :   -0.155699
   4 H :    0.078918
   5 H :    0.084491
   6 H :    0.101437
   7 H :    0.093319

  Mayer bond orders larger than 0.100000
B(  0-C ,  1-O ) :   1.9392 B(  0-C ,  2-C ) :   0.9764 B(  0-C ,  4-H ) :   0.9189
B(  2-C ,  3-C ) :   1.9708 B(  2-C ,  5-H ) :   0.9602 B(  3-C ,  6-H ) :   0.9598
B(  3-C ,  7-H ) :   0.9642

-----------------------------------------------------------------------------
         ABSORPTION SPECTRUM VIA TRANSITION ELECTRIC DIPOLE MOMENTS
-----------------------------------------------------------------------------
State   Energy    Wavelength  fosc         T2        TX        TY        TZ
        (cm-1)      (nm)                 (au**2)    (au)      (au)      (au)
-----------------------------------------------------------------------------
   1   34914.4    286.4   0.000348613   0.00329  -0.05707  -0.00011   0.00550

Dispersion correction           -0.024970755
FINAL SINGLE POINT ENERGY      -189.310976125249

DIPOLE MOMENT
-------------
                                X             Y             Z
Electronic contribution:     -2.29043      -1.96951       0.15489
Nuclear contribution   :      2.33914       2.88444      -0.24135
                        -----------------------------------------
Total Dipole Moment    :      0.04870       0.91493      -0.08646
                        -----------------------------------------
Magnitude (a.u.)       :      0.92029
Magnitude (Debye)      :      2.33920

Rotational constants in cm-1:     0.776988     0.197769     0.157969
Rotational constants in MHz : 23293.508291  5928.954473  4735.779518

                             ****ORCA TERMINATED NORMALLY****
TOTAL RUN TIME: 0 days 0 hours 0 minutes 11 seconds 450 msec
