                         Program Version 5.0.3 -  RELEASE  -
|  1> ! HF-3c
|  2> !TightSCF
|  3> %scf
|  4>  ConvForced true
|  5>  convergence tight
|  6>  MaxIter 500
|  7> end
|  8>
|  9> %tddft
| 10>  nroots 1
| 11> end
| 12>
| 13> # 	4760
| 14> * xyz 0 1
| 15> 		C   -1.199727  -0.413275  -0.069323
| 16> 		O   -1.205450  -1.567350   0.012087
| 17> 		C    0.040992   0.527851   0.029860
| 18> 		C    1.229426  -0.049621  -0.087303
| 19> 		H   -2.226591   0.256833  -0.303019
| 20> 		H   -0.199641   1.611564   0.294673
| 21> 		H    1.334683  -0.974415   0.028292
| 22> 		H    2.229240   0.563431   0.100587
| 23> *
| 24>
| 25>                          ****END OF INPUT****

CARTESIAN COORDINATES (ANGSTROEM)
---------------------------------
  C     -1.199727   -0.413275   -0.069323
  O     -1.205450   -1.567350    0.012087
  C      0.040992    0.527851    0.029860
  C      1.229426   -0.049621   -0.087303
  H     -2.226591    0.256833   -0.303019
  H     -0.199641    1.611564    0.294673
  H      1.334683   -0.974415    0.028292
  H      2.229240    0.563431    0.100587

 Total Charge           Charge          ....    0
 Multiplicity           Mult            ....    1
 Number of Electrons    NEL             ....   30
 Basis Dimension        Dim             ....   24

ORBITAL ENERGIES
----------------

  NO   OCC          E(Eh)            E(eV)
   0   2.0000     -20.389266      -554.8201
   1   2.0000     -11.306350      -307.6614
   2   2.0000     -11.188619      -304.4578
   3   2.0000     -11.185800      -304.3811
   4   2.0000      -1.444141       -39.2971
   5   2.0000      -1.074383       -29.2354
   6   2.0000      -0.868864       -23.6430
   7   2.0000      -0.741048       -20.1649
   8   2.0000      -0.689734       -18.7686
   9   2.0000      -0.628541       -17.1035
  10   2.0000      -0.594332       -16.1726
  11   2.0000      -0.556546       -15.1444
  12   2.0000      -0.536726       -14.6050
  13   2.0000      -0.401193       -10.9170
  14   2.0000      -0.387376       -10.5410
  15   0.0000       0.149679         4.0730
  16   0.0000       0.297034         8.0827
  17   0.0000       0.463714        12.6183
  18   0.0000       0.561097        15.2682
  19   0.0000       0.574007        15.6195

MULLIKEN ATOMIC CHARGES
-----------------------
   0 C :    0.212505
   1 O :   -0.369429
   2 C :   -0.152506
   3 C :   -0.253523
   4 H :    0.118236
   5 H :    0.147056
   6 H :    0.149015
   7 H :    0.148646
Sum of atomic charges:   -0.0000000

LOEWDIN ATOMIC CHARGES
----------------------
   0 C :    0.160764
   1 O :   -0.250794
   2 C :   -0.113258
   3 C :   -0.151713
   4 H :    0.065616
   5 H :    0.098940
   6 H :    0.084725
   7 H :    0.105721

  Mayer bond orders larger than 0.100000
B(  0-C ,  1-O ) :   1.9493 B(  0-C ,  2-C ) :   0.9650 B(  0-C ,  4-H ) :   0.8962
B(  2-C ,  3-C ) :   1.9785 B(  2-C ,  5-H ) :   0.9587 B(  3-C ,  6-H ) :   0.9647
B(  3-C ,  7-H ) :   0.9579

-----------------------------------------------------------------------------
         ABSORPTION SPECTRUM VIA TRANSITION ELECTRIC DIPOLE MOMENTS
-----------------------------------------------------------------------------
State   Energy    Wavelength  fosc         T2        TX        TY        TZ
        (cm-1)      (nm)                 (au**2)    (au)      (au)      (au)
-----------------------------------------------------------------------------
   1   36373.2    274.9   0.000012010   0.00011   0.00077  -0.00766  -0.00703

Dispersion correction           -0.025305478
FINAL SINGLE POINT ENERGY      -189.271752424164

DIPOLE MOMENT
-------------
                                X             Y             Z
Electronic contribution:     -2.00178      -1.86222      -0.15421
Nuclear contribution   :      2.21142       2.87809       0.19442
                        -----------------------------------------
Total Dipole Moment    :      0.20964       1.01586       0.04021
                        -----------------------------------------
Magnitude (a.u.)       :      1.03805
Magnitude (Debye)      :      2.63851

Rotational constants in cm-1:     0.764424     0.202569     0.161131
Rotational constants in MHz : 22916.863159  6072.862227  4830.583347

                             ****ORCA TERMINATED NORMALLY****
TOTAL RUN TIME: 0 days 0 hours 0 minutes 13 seconds 682 msec
