                         Program Version 5.0.3 -  RELEASE  -
|  1> ! HF-3c
|  2> !TightSCF
|  3> %scf
|  4>  ConvForced true
|  5>  convergence tight
|  6>  MaxIter 500
|  7> end
|  8>
|  9> %tddft
| 10>  nroots 1
| 11> end
| 12>
| 13> # 	5190
| 14> * xyz 0 1
| 15> 		C   -1.205529  -0.292957   0.101306
| 16> 		O   -1.475862  -1.180239   0.860792
| 17> 		C    0.002195   0.508230   0.174349
| 18> 		C    1.172406   0.032130  -0.229443
| 19> 		H   -1.864048  -0.083472  -0.720472
| 20> 		H   -0.146431   1.705348   0.337325
| 21> 		H    1.267935  -1.128081  -0.368560
| 22> 		H    2.205543   0.532067  -0.111483
| 23> *
| 24>
| 25>                          ****END OF INPUT****

CARTESIAN COORDINATES (ANGSTROEM)
---------------------------------
  C     -1.205529   -0.292957    0.101306
  O     -1.475862   -1.180239    0.860792
  C      0.002195    0.508230    0.174349
  C      1.172406    0.032130   -0.229443
  H     -1.864048   -0.083472   -0.720472
  H     -0.146431    1.705348    0.337325
  H      1.267935   -1.128081   -0.368560
  H      2.205543    0.532067   -0.111483

 Total Charge           Charge          ....    0
 Multiplicity           Mult            ....    1
 Number of Electrons    NEL             ....   30
 Basis Dimension        Dim             ....   24

ORBITAL ENERGIES
----------------

  NO   OCC          E(Eh)            E(eV)
   0   2.0000     -20.376457      -554.4716
   1   2.0000     -11.303006      -307.5704
   2   2.0000     -11.185974      -304.3858
   3   2.0000     -11.174761      -304.0807
   4   2.0000      -1.415555       -38.5192
   5   2.0000      -1.072632       -29.1878
   6   2.0000      -0.882736       -24.0205
   7   2.0000      -0.747357       -20.3366
   8   2.0000      -0.678130       -18.4529
   9   2.0000      -0.619978       -16.8705
  10   2.0000      -0.606288       -16.4979
  11   2.0000      -0.520781       -14.1712
  12   2.0000      -0.492951       -13.4139
  13   2.0000      -0.414797       -11.2872
  14   2.0000      -0.395735       -10.7685
  15   0.0000       0.173007         4.7078
  16   0.0000       0.238241         6.4829
  17   0.0000       0.503512        13.7013
  18   0.0000       0.581780        15.8310
  19   0.0000       0.609986        16.5986

MULLIKEN ATOMIC CHARGES
-----------------------
   0 C :    0.159327
   1 O :   -0.341497
   2 C :   -0.163872
   3 C :   -0.223373
   4 H :    0.139288
   5 H :    0.150449
   6 H :    0.136538
   7 H :    0.143141
Sum of atomic charges:    0.0000000

LOEWDIN ATOMIC CHARGES
----------------------
   0 C :    0.144510
   1 O :   -0.243575
   2 C :   -0.129131
   3 C :   -0.143938
   4 H :    0.072256
   5 H :    0.108628
   6 H :    0.093319
   7 H :    0.097931

  Mayer bond orders larger than 0.100000
B(  0-C ,  1-O ) :   1.9338 B(  0-C ,  2-C ) :   1.0064 B(  0-C ,  4-H ) :   0.9205
B(  2-C ,  3-C ) :   1.9873 B(  2-C ,  5-H ) :   0.9380 B(  3-C ,  6-H ) :   0.9592
B(  3-C ,  7-H ) :   0.9603

-----------------------------------------------------------------------------
         ABSORPTION SPECTRUM VIA TRANSITION ELECTRIC DIPOLE MOMENTS
-----------------------------------------------------------------------------
State   Energy    Wavelength  fosc         T2        TX        TY        TZ
        (cm-1)      (nm)                 (au**2)    (au)      (au)      (au)
-----------------------------------------------------------------------------
   1   34661.8    288.5   0.000052683   0.00050   0.00878   0.01952  -0.00651

Dispersion correction           -0.025137034
FINAL SINGLE POINT ENERGY      -189.299951134158

DIPOLE MOMENT
-------------
                                X             Y             Z
Electronic contribution:     -2.44295      -1.23524       1.11354
Nuclear contribution   :      2.86333       1.94472      -1.70139
                        -----------------------------------------
Total Dipole Moment    :      0.42038       0.70948      -0.58785
                        -----------------------------------------
Magnitude (a.u.)       :      1.01274
Magnitude (Debye)      :      2.57418

Rotational constants in cm-1:     0.892699     0.182198     0.163210
Rotational constants in MHz : 26762.434105  5462.158710  4892.917475

                             ****ORCA TERMINATED NORMALLY****
TOTAL RUN TIME: 0 days 0 hours 0 minutes 13 seconds 610 msec
