                         Program Version 5.0.3 -  RELEASE  -
|  1> ! B3LYP cc-pVDZ
|  2> !TightSCF
|  3> %scf
|  4>  ConvForced true
|  5>  convergence tight
|  6>  MaxIter 500
|  7> end
|  8>
|  9> %tddft
| 10>  nroots 1
| 11> end
| 12>
| 13> # 	3180
| 14> * xyz 0 1
| 15> 		C   -1.193716  -0.348781   0.077277
| 16> 		O   -1.205024  -1.552261  -0.073181
| 17> 		C   -0.034342   0.543551  -0.087639
| 18> 		C    1.242944  -0.037920   0.015594
| 19> 		H   -2.110407   0.121283   0.157496
| 20> 		H   -0.175039   1.632649  -0.318685
| 21> 		H    1.515901  -1.103697   0.245957
| 22> 		H    2.009156   0.725035  -0.003969
| 23> *
| 24>
| 25>                          ****END OF INPUT****

CARTESIAN COORDINATES (ANGSTROEM)
---------------------------------
  C     -1.193716   -0.348781    0.077277
  O     -1.205024   -1.552261   -0.073181
  C     -0.034342    0.543551   -0.087639
  C      1.242944   -0.037920    0.015594
  H     -2.110407    0.121283    0.157496
  H     -0.175039    1.632649   -0.318685
  H      1.515901   -1.103697    0.245957
  H      2.009156    0.725035   -0.003969

 Total Charge           Charge          ....    0
 Multiplicity           Mult            ....    1
 Number of Electrons    NEL             ....   30
 Basis Dimension        Dim             ....   76

ORBITAL ENERGIES
----------------

  NO   OCC          E(Eh)            E(eV)
   0   2.0000     -19.131202      -520.5865
   1   2.0000     -10.262569      -279.2587
   2   2.0000     -10.224506      -278.2230
   3   2.0000     -10.215395      -277.9750
   4   2.0000      -1.039544       -28.2874
   5   2.0000      -0.782699       -21.2983
   6   2.0000      -0.659559       -17.9475
   7   2.0000      -0.548000       -14.9118
   8   2.0000      -0.505938       -13.7673
   9   2.0000      -0.442744       -12.0477
  10   2.0000      -0.412077       -11.2132
  11   2.0000      -0.392061       -10.6685
  12   2.0000      -0.389981       -10.6119
  13   2.0000      -0.278838        -7.5876
  14   2.0000      -0.249303        -6.7839
  15   0.0000      -0.073290        -1.9943
  16   0.0000       0.044378         1.2076
  17   0.0000       0.069156         1.8818
  18   0.0000       0.086257         2.3472
  19   0.0000       0.124740         3.3943

MULLIKEN ATOMIC CHARGES
-----------------------
   0 C :    0.233192
   1 O :   -0.202905
   2 C :   -0.147938
   3 C :    0.049435
   4 H :   -0.046578
   5 H :    0.021018
   6 H :    0.063042
   7 H :    0.030734
Sum of atomic charges:   -0.0000000

LOEWDIN ATOMIC CHARGES
----------------------
   0 C :   -0.037216
   1 O :   -0.009542
   2 C :   -0.075418
   3 C :    0.031089
   4 H :   -0.019621
   5 H :    0.038841
   6 H :    0.044447
   7 H :    0.027420

  Mayer bond orders larger than 0.100000
B(  0-C ,  1-O ) :   2.1827 B(  0-C ,  2-C ) :   1.0671 B(  0-C ,  4-H ) :   0.9340
B(  2-C ,  3-C ) :   1.9173 B(  2-C ,  5-H ) :   0.9436 B(  3-C ,  6-H ) :   0.9494
B(  3-C ,  7-H ) :   0.9449

-----------------------------------------------------------------------------
         ABSORPTION SPECTRUM VIA TRANSITION ELECTRIC DIPOLE MOMENTS
-----------------------------------------------------------------------------
State   Energy    Wavelength  fosc         T2        TX        TY        TZ
        (cm-1)      (nm)                 (au**2)    (au)      (au)      (au)
-----------------------------------------------------------------------------
   1   26258.7    380.8   0.000027420   0.00034  -0.01275   0.00525   0.01240

FINAL SINGLE POINT ENERGY      -191.671771217471

DIPOLE MOMENT
-------------
                                X             Y             Z
Electronic contribution:     -1.91944      -1.78561      -0.04794
Nuclear contribution   :      2.34473       2.71642       0.14370
                        -----------------------------------------
Total Dipole Moment    :      0.42529       0.93081       0.09576
                        -----------------------------------------
Magnitude (a.u.)       :      1.02784
Magnitude (Debye)      :      2.61255

Rotational constants in cm-1:     0.727136     0.206756     0.162267
Rotational constants in MHz : 21798.980708  6198.384092  4864.644967

                             ****ORCA TERMINATED NORMALLY****
TOTAL RUN TIME: 0 days 0 hours 3 minutes 23 seconds 216 msec
