                         Program Version 5.0.3 -  RELEASE  -
|  1> ! HF-3c
|  2> !TightSCF
|  3> %scf
|  4>  ConvForced true
|  5>  convergence tight
|  6>  MaxIter 500
|  7> end
|  8>
|  9> %tddft
| 10>  nroots 1
| 11> end
| 12>
| 13> # 	4317
| 14> * xyz 0 1
| 15> 		C   -1.182921  -0.323649   0.057561
| 16> 		O   -2.149430  -0.340823   0.645910
| 17> 		C    0.052958   0.428891   0.370084
| 18> 		C    1.228204   0.197845  -0.310140
| 19> 		H   -1.209804  -1.055653  -0.858538
| 20> 		H    0.119909   1.013686   1.416514
| 21> 		H    1.163278  -0.367405  -1.237384
| 22> 		H    2.046798   0.459722  -0.061970
| 23> *
| 24>
| 25>                          ****END OF INPUT****

CARTESIAN COORDINATES (ANGSTROEM)
---------------------------------
  C     -1.182921   -0.323649    0.057561
  O     -2.149430   -0.340823    0.645910
  C      0.052958    0.428891    0.370084
  C      1.228204    0.197845   -0.310140
  H     -1.209804   -1.055653   -0.858538
  H      0.119909    1.013686    1.416514
  H      1.163278   -0.367405   -1.237384
  H      2.046798    0.459722   -0.061970

 Total Charge           Charge          ....    0
 Multiplicity           Mult            ....    1
 Number of Electrons    NEL             ....   30
 Basis Dimension        Dim             ....   24

ORBITAL ENERGIES
----------------

  NO   OCC          E(Eh)            E(eV)
   0   2.0000     -20.390736      -554.8601
   1   2.0000     -11.319851      -308.0288
   2   2.0000     -11.199478      -304.7533
   3   2.0000     -11.197532      -304.7003
   4   2.0000      -1.468173       -39.9510
   5   2.0000      -1.079222       -29.3671
   6   2.0000      -0.896547       -24.3963
   7   2.0000      -0.769075       -20.9276
   8   2.0000      -0.689461       -18.7612
   9   2.0000      -0.668935       -18.2026
  10   2.0000      -0.598233       -16.2787
  11   2.0000      -0.580982       -15.8093
  12   2.0000      -0.536712       -14.6047
  13   2.0000      -0.402893       -10.9633
  14   2.0000      -0.396365       -10.7856
  15   0.0000       0.128781         3.5043
  16   0.0000       0.310564         8.4509
  17   0.0000       0.496051        13.4982
  18   0.0000       0.567997        15.4560
  19   0.0000       0.656966        17.8770

MULLIKEN ATOMIC CHARGES
-----------------------
   0 C :    0.188976
   1 O :   -0.364827
   2 C :   -0.131050
   3 C :   -0.265223
   4 H :    0.127787
   5 H :    0.158664
   6 H :    0.147696
   7 H :    0.137977
Sum of atomic charges:   -0.0000000

LOEWDIN ATOMIC CHARGES
----------------------
   0 C :    0.141580
   1 O :   -0.241630
   2 C :   -0.097683
   3 C :   -0.154347
   4 H :    0.067434
   5 H :    0.112338
   6 H :    0.097791
   7 H :    0.074515

  Mayer bond orders larger than 0.100000
B(  0-C ,  1-O ) :   1.9167 B(  0-C ,  2-C ) :   1.0108 B(  0-C ,  4-H ) :   0.9071
B(  2-C ,  3-C ) :   1.9481 B(  2-C ,  5-H ) :   0.9498 B(  3-C ,  6-H ) :   0.9641
B(  3-C ,  7-H ) :   0.9735

-----------------------------------------------------------------------------
         ABSORPTION SPECTRUM VIA TRANSITION ELECTRIC DIPOLE MOMENTS
-----------------------------------------------------------------------------
State   Energy    Wavelength  fosc         T2        TX        TY        TZ
        (cm-1)      (nm)                 (au**2)    (au)      (au)      (au)
-----------------------------------------------------------------------------
   1   35922.5    278.4   0.000130008   0.00119  -0.03425  -0.00286  -0.00323

Dispersion correction           -0.025229192
FINAL SINGLE POINT ENERGY      -189.254283890558

DIPOLE MOMENT
-------------
                                X             Y             Z
Electronic contribution:     -3.16816      -0.14697       1.03293
Nuclear contribution   :      4.04532       0.16058      -1.42505
                        -----------------------------------------
Total Dipole Moment    :      0.87717       0.01361      -0.39212
                        -----------------------------------------
Magnitude (a.u.)       :      0.96092
Magnitude (Debye)      :      2.44247

Rotational constants in cm-1:     1.547688     0.156148     0.142318
Rotational constants in MHz : 46398.512728  4681.207053  4266.592805

                             ****ORCA TERMINATED NORMALLY****
TOTAL RUN TIME: 0 days 0 hours 0 minutes 8 seconds 646 msec
