                         Program Version 5.0.3 -  RELEASE  -
|  1> ! B3LYP cc-pVDZ
|  2> !TightSCF
|  3> %scf
|  4>  ConvForced true
|  5>  convergence tight
|  6>  MaxIter 500
|  7> end
|  8>
|  9> %tddft
| 10>  nroots 1
| 11> end
| 12>
| 13> # 	17212
| 14> * xyz 0 1
| 15> 		C   -1.215599  -0.332448  -0.023769
| 16> 		O   -1.582416  -1.145266  -0.844502
| 17> 		C    0.005807   0.525170  -0.246213
| 18> 		C    1.225338   0.015514   0.197600
| 19> 		H   -1.718142  -0.138686   0.903237
| 20> 		H   -0.027178   1.506197  -0.580330
| 21> 		H    1.341193  -1.002096   0.593846
| 22> 		H    2.040521   0.597785   0.027875
| 23> *
| 24>
| 25>                          ****END OF INPUT****

CARTESIAN COORDINATES (ANGSTROEM)
---------------------------------
  C     -1.215599   -0.332448   -0.023769
  O     -1.582416   -1.145266   -0.844502
  C      0.005807    0.525170   -0.246213
  C      1.225338    0.015514    0.197600
  H     -1.718142   -0.138686    0.903237
  H     -0.027178    1.506197   -0.580330
  H      1.341193   -1.002096    0.593846
  H      2.040521    0.597785    0.027875

 Total Charge           Charge          ....    0
 Multiplicity           Mult            ....    1
 Number of Electrons    NEL             ....   30
 Basis Dimension        Dim             ....   76

ORBITAL ENERGIES
----------------

  NO   OCC          E(Eh)            E(eV)
   0   2.0000     -19.145938      -520.9875
   1   2.0000     -10.280953      -279.7589
   2   2.0000     -10.205942      -277.7178
   3   2.0000     -10.202346      -277.6199
   4   2.0000      -1.050773       -28.5930
   5   2.0000      -0.785324       -21.3698
   6   2.0000      -0.652740       -17.7620
   7   2.0000      -0.568773       -15.4771
   8   2.0000      -0.501750       -13.6533
   9   2.0000      -0.453759       -12.3474
  10   2.0000      -0.435458       -11.8494
  11   2.0000      -0.403690       -10.9850
  12   2.0000      -0.374967       -10.2034
  13   2.0000      -0.275802        -7.5049
  14   2.0000      -0.256781        -6.9874
  15   0.0000      -0.033844        -0.9209
  16   0.0000      -0.020249        -0.5510
  17   0.0000       0.089426         2.4334
  18   0.0000       0.100476         2.7341
  19   0.0000       0.103683         2.8213

MULLIKEN ATOMIC CHARGES
-----------------------
   0 C :    0.195789
   1 O :   -0.182570
   2 C :   -0.073515
   3 C :    0.036230
   4 H :   -0.005618
   5 H :   -0.005499
   6 H :    0.029338
   7 H :    0.005844
Sum of atomic charges:   -0.0000000

LOEWDIN ATOMIC CHARGES
----------------------
   0 C :   -0.011055
   1 O :    0.011005
   2 C :   -0.034869
   3 C :   -0.010808
   4 H :   -0.008245
   5 H :    0.017709
   6 H :    0.029262
   7 H :    0.007001

  Mayer bond orders larger than 0.100000
B(  0-C ,  1-O ) :   2.2285 B(  0-C ,  2-C ) :   0.9732 B(  0-C ,  4-H ) :   0.9214
B(  2-C ,  3-C ) :   2.0310 B(  2-C ,  5-H ) :   0.9445 B(  3-C ,  6-H ) :   0.9564
B(  3-C ,  7-H ) :   0.9508

-----------------------------------------------------------------------------
         ABSORPTION SPECTRUM VIA TRANSITION ELECTRIC DIPOLE MOMENTS
-----------------------------------------------------------------------------
State   Energy    Wavelength  fosc         T2        TX        TY        TZ
        (cm-1)      (nm)                 (au**2)    (au)      (au)      (au)
-----------------------------------------------------------------------------
   1   33069.9    302.4   0.000059728   0.00059  -0.02236   0.00935  -0.00271

FINAL SINGLE POINT ENERGY      -191.633351627329

DIPOLE MOMENT
-------------
                                X             Y             Z
Electronic contribution:     -2.67662      -1.23238      -1.22346
Nuclear contribution   :      3.08974       1.88471       1.77612
                        -----------------------------------------
Total Dipole Moment    :      0.41312       0.65233       0.55266
                        -----------------------------------------
Magnitude (a.u.)       :      0.94954
Magnitude (Debye)      :      2.41355

Rotational constants in cm-1:     0.904061     0.171252     0.159808
Rotational constants in MHz : 27103.074690  5134.003032  4790.923991

                             ****ORCA TERMINATED NORMALLY****
TOTAL RUN TIME: 0 days 0 hours 3 minutes 21 seconds 864 msec
