                         Program Version 5.0.3 -  RELEASE  -
|  1> ! B3LYP cc-pVDZ
|  2> !TightSCF
|  3> %scf
|  4>  ConvForced true
|  5>  convergence tight
|  6>  MaxIter 500
|  7> end
|  8>
|  9> %tddft
| 10>  nroots 1
| 11> end
| 12>
| 13> # 	19702
| 14> * xyz 0 1
| 15> 		C   -1.209358  -0.378177  -0.009824
| 16> 		O   -1.323698  -1.509601   0.321730
| 17> 		C   -0.027138   0.535716   0.120380
| 18> 		C    1.221121   0.017552  -0.018115
| 19> 		H   -2.013338   0.210501  -0.498135
| 20> 		H   -0.015080   1.612296   0.403230
| 21> 		H    1.267530  -1.169082  -0.428267
| 22> 		H    2.077440   0.611689   0.092180
| 23> *
| 24>
| 25>                          ****END OF INPUT****

CARTESIAN COORDINATES (ANGSTROEM)
---------------------------------
  C     -1.209358   -0.378177   -0.009824
  O     -1.323698   -1.509601    0.321730
  C     -0.027138    0.535716    0.120380
  C      1.221121    0.017552   -0.018115
  H     -2.013338    0.210501   -0.498135
  H     -0.015080    1.612296    0.403230
  H      1.267530   -1.169082   -0.428267
  H      2.077440    0.611689    0.092180

 Total Charge           Charge          ....    0
 Multiplicity           Mult            ....    1
 Number of Electrons    NEL             ....   30
 Basis Dimension        Dim             ....   76

ORBITAL ENERGIES
----------------

  NO   OCC          E(Eh)            E(eV)
   0   2.0000     -19.147401      -521.0273
   1   2.0000     -10.280294      -279.7410
   2   2.0000     -10.219935      -278.0986
   3   2.0000     -10.207422      -277.7581
   4   2.0000      -1.065888       -29.0043
   5   2.0000      -0.789380       -21.4801
   6   2.0000      -0.651449       -17.7268
   7   2.0000      -0.538012       -14.6400
   8   2.0000      -0.506061       -13.7706
   9   2.0000      -0.450056       -12.2466
  10   2.0000      -0.434946       -11.8355
  11   2.0000      -0.395781       -10.7698
  12   2.0000      -0.369999       -10.0682
  13   2.0000      -0.285803        -7.7771
  14   2.0000      -0.258709        -7.0398
  15   0.0000      -0.058423        -1.5898
  16   0.0000       0.030138         0.8201
  17   0.0000       0.071096         1.9346
  18   0.0000       0.076878         2.0920
  19   0.0000       0.110866         3.0168

MULLIKEN ATOMIC CHARGES
-----------------------
   0 C :    0.202267
   1 O :   -0.158896
   2 C :   -0.128768
   3 C :    0.015897
   4 H :   -0.025960
   5 H :    0.013621
   6 H :    0.062312
   7 H :    0.019527
Sum of atomic charges:   -0.0000000

LOEWDIN ATOMIC CHARGES
----------------------
   0 C :   -0.045852
   1 O :    0.033136
   2 C :   -0.086407
   3 C :    0.000550
   4 H :   -0.012987
   5 H :    0.039344
   6 H :    0.057279
   7 H :    0.014938

  Mayer bond orders larger than 0.100000
B(  0-C ,  1-O ) :   2.2468 B(  0-C ,  2-C ) :   0.9973 B(  0-C ,  4-H ) :   0.9089
B(  2-C ,  3-C ) :   1.9759 B(  2-C ,  5-H ) :   0.9417 B(  3-C ,  6-H ) :   0.9366
B(  3-C ,  7-H ) :   0.9414

-----------------------------------------------------------------------------
         ABSORPTION SPECTRUM VIA TRANSITION ELECTRIC DIPOLE MOMENTS
-----------------------------------------------------------------------------
State   Energy    Wavelength  fosc         T2        TX        TY        TZ
        (cm-1)      (nm)                 (au**2)    (au)      (au)      (au)
-----------------------------------------------------------------------------
   1   30992.8    322.7   0.000262438   0.00279  -0.05114  -0.00559   0.01190

FINAL SINGLE POINT ENERGY      -191.641948580674

DIPOLE MOMENT
-------------
                                X             Y             Z
Electronic contribution:     -2.14011      -1.70083       0.58787
Nuclear contribution   :      2.56196       2.56083      -0.79091
                        -----------------------------------------
Total Dipole Moment    :      0.42185       0.86000      -0.20304
                        -----------------------------------------
Magnitude (a.u.)       :      0.97918
Magnitude (Debye)      :      2.48887

Rotational constants in cm-1:     0.794348     0.194189     0.160282
Rotational constants in MHz : 23813.965722  5821.647014  4805.146891

                             ****ORCA TERMINATED NORMALLY****
TOTAL RUN TIME: 0 days 0 hours 3 minutes 28 seconds 273 msec
