                         Program Version 5.0.3 -  RELEASE  -
|  1> ! HF-3c
|  2> !TightSCF
|  3> %scf
|  4>  ConvForced true
|  5>  convergence tight
|  6>  MaxIter 500
|  7> end
|  8>
|  9> %tddft
| 10>  nroots 1
| 11> end
| 12>
| 13> # 	2290
| 14> * xyz 0 1
| 15> 		C   -1.215506  -0.327924  -0.002472
| 16> 		O   -1.680268  -1.135976  -0.740040
| 17> 		C   -0.080420   0.511019  -0.257993
| 18> 		C    1.194143   0.035068   0.114170
| 19> 		H   -1.558939  -0.240276   1.101480
| 20> 		H   -0.206827   1.646922  -0.702176
| 21> 		H    1.335104  -1.059751   0.563160
| 22> 		H    2.151966   0.549717  -0.056192
| 23> *
| 24>
| 25>                          ****END OF INPUT****

CARTESIAN COORDINATES (ANGSTROEM)
---------------------------------
  C     -1.215506   -0.327924   -0.002472
  O     -1.680268   -1.135976   -0.740040
  C     -0.080420    0.511019   -0.257993
  C      1.194143    0.035068    0.114170
  H     -1.558939   -0.240276    1.101480
  H     -0.206827    1.646922   -0.702176
  H      1.335104   -1.059751    0.563160
  H      2.151966    0.549717   -0.056192

 Total Charge           Charge          ....    0
 Multiplicity           Mult            ....    1
 Number of Electrons    NEL             ....   30
 Basis Dimension        Dim             ....   24

ORBITAL ENERGIES
----------------

  NO   OCC          E(Eh)            E(eV)
   0   2.0000     -20.380770      -554.5890
   1   2.0000     -11.305125      -307.6281
   2   2.0000     -11.181065      -304.2523
   3   2.0000     -11.169002      -303.9240
   4   2.0000      -1.421618       -38.6842
   5   2.0000      -1.052869       -28.6500
   6   2.0000      -0.871421       -23.7126
   7   2.0000      -0.738605       -20.0985
   8   2.0000      -0.661591       -18.0028
   9   2.0000      -0.626822       -17.0567
  10   2.0000      -0.601300       -16.3622
  11   2.0000      -0.527270       -14.3477
  12   2.0000      -0.493937       -13.4407
  13   2.0000      -0.410490       -11.1700
  14   2.0000      -0.367957       -10.0126
  15   0.0000       0.190908         5.1949
  16   0.0000       0.198057         5.3894
  17   0.0000       0.503415        13.6986
  18   0.0000       0.566536        15.4162
  19   0.0000       0.627197        17.0669

MULLIKEN ATOMIC CHARGES
-----------------------
   0 C :    0.173645
   1 O :   -0.346270
   2 C :   -0.161258
   3 C :   -0.224315
   4 H :    0.132907
   5 H :    0.157311
   6 H :    0.132868
   7 H :    0.135112
Sum of atomic charges:   -0.0000000

LOEWDIN ATOMIC CHARGES
----------------------
   0 C :    0.149636
   1 O :   -0.244041
   2 C :   -0.130436
   3 C :   -0.143632
   4 H :    0.072999
   5 H :    0.115886
   6 H :    0.092209
   7 H :    0.087379

  Mayer bond orders larger than 0.100000
B(  0-C ,  1-O ) :   1.9406 B(  0-C ,  2-C ) :   1.0105 B(  0-C ,  4-H ) :   0.9042
B(  2-C ,  3-C ) :   1.9755 B(  2-C ,  5-H ) :   0.9405 B(  3-C ,  6-H ) :   0.9648
B(  3-C ,  7-H ) :   0.9668

-----------------------------------------------------------------------------
         ABSORPTION SPECTRUM VIA TRANSITION ELECTRIC DIPOLE MOMENTS
-----------------------------------------------------------------------------
State   Energy    Wavelength  fosc         T2        TX        TY        TZ
        (cm-1)      (nm)                 (au**2)    (au)      (au)      (au)
-----------------------------------------------------------------------------
   1   35631.7    280.6   0.000045817   0.00042   0.00995  -0.01429  -0.01096

Dispersion correction           -0.024658414
FINAL SINGLE POINT ENERGY      -189.282679814146

DIPOLE MOMENT
-------------
                                X             Y             Z
Electronic contribution:     -2.80630      -1.14166      -1.10784
Nuclear contribution   :      3.36210       1.80888       1.69163
                        -----------------------------------------
Total Dipole Moment    :      0.55580       0.66722       0.58379
                        -----------------------------------------
Magnitude (a.u.)       :      1.04638
Magnitude (Debye)      :      2.65969

Rotational constants in cm-1:     0.902190     0.171862     0.160033
Rotational constants in MHz : 27046.972922  5152.299174  4797.681152

                             ****ORCA TERMINATED NORMALLY****
TOTAL RUN TIME: 0 days 0 hours 0 minutes 10 seconds 454 msec
