                         Program Version 5.0.3 -  RELEASE  -
|  1> ! HF-3c
|  2> !TightSCF
|  3> %scf
|  4>  ConvForced true
|  5>  convergence tight
|  6>  MaxIter 500
|  7> end
|  8>
|  9> %tddft
| 10>  nroots 1
| 11> end
| 12>
| 13> # 	4164
| 14> * xyz 0 1
| 15> 		C   -1.139265  -0.249175  -0.011427
| 16> 		O   -1.295546  -1.406502   0.466659
| 17> 		C    0.028292   0.498556   0.119892
| 18> 		C    1.151328   0.014292  -0.088886
| 19> 		H   -1.948225   0.219956  -0.667851
| 20> 		H   -0.204162   1.563598   0.424082
| 21> 		H    1.256951  -1.224572  -0.338905
| 22> 		H    2.120355   0.551973   0.078128
| 23> *
| 24>
| 25>                          ****END OF INPUT****

CARTESIAN COORDINATES (ANGSTROEM)
---------------------------------
  C     -1.139265   -0.249175   -0.011427
  O     -1.295546   -1.406502    0.466659
  C      0.028292    0.498556    0.119892
  C      1.151328    0.014292   -0.088886
  H     -1.948225    0.219956   -0.667851
  H     -0.204162    1.563598    0.424082
  H      1.256951   -1.224572   -0.338905
  H      2.120355    0.551973    0.078128

 Total Charge           Charge          ....    0
 Multiplicity           Mult            ....    1
 Number of Electrons    NEL             ....   30
 Basis Dimension        Dim             ....   24

ORBITAL ENERGIES
----------------

  NO   OCC          E(Eh)            E(eV)
   0   2.0000     -20.346913      -553.6676
   1   2.0000     -11.281686      -306.9903
   2   2.0000     -11.195016      -304.6319
   3   2.0000     -11.190945      -304.5211
   4   2.0000      -1.363444       -37.1012
   5   2.0000      -1.111776       -30.2530
   6   2.0000      -0.898651       -24.4535
   7   2.0000      -0.721866       -19.6430
   8   2.0000      -0.693324       -18.8663
   9   2.0000      -0.624897       -17.0043
  10   2.0000      -0.590611       -16.0713
  11   2.0000      -0.503563       -13.7026
  12   2.0000      -0.487304       -13.2602
  13   2.0000      -0.413857       -11.2616
  14   2.0000      -0.410603       -11.1731
  15   0.0000       0.152431         4.1479
  16   0.0000       0.292343         7.9551
  17   0.0000       0.460405        12.5283
  18   0.0000       0.580203        15.7881
  19   0.0000       0.622959        16.9516

MULLIKEN ATOMIC CHARGES
-----------------------
   0 C :    0.158194
   1 O :   -0.343723
   2 C :   -0.208971
   3 C :   -0.200254
   4 H :    0.137136
   5 H :    0.153803
   6 H :    0.158365
   7 H :    0.145451
Sum of atomic charges:   -0.0000000

LOEWDIN ATOMIC CHARGES
----------------------
   0 C :    0.149393
   1 O :   -0.266879
   2 C :   -0.157260
   3 C :   -0.122793
   4 H :    0.078489
   5 H :    0.104382
   6 H :    0.118098
   7 H :    0.096569

  Mayer bond orders larger than 0.100000
B(  0-C ,  1-O ) :   1.9040 B(  0-C ,  2-C ) :   1.0433 B(  0-C ,  4-H ) :   0.9220
B(  2-C ,  3-C ) :   1.9712 B(  2-C ,  5-H ) :   0.9342 B(  3-C ,  6-H ) :   0.9452
B(  3-C ,  7-H ) :   0.9579

-----------------------------------------------------------------------------
         ABSORPTION SPECTRUM VIA TRANSITION ELECTRIC DIPOLE MOMENTS
-----------------------------------------------------------------------------
State   Energy    Wavelength  fosc         T2        TX        TY        TZ
        (cm-1)      (nm)                 (au**2)    (au)      (au)      (au)
-----------------------------------------------------------------------------
   1   31093.5    321.6   0.000011666   0.00012  -0.00734   0.00298  -0.00780

Dispersion correction           -0.026105120
FINAL SINGLE POINT ENERGY      -189.300133761056

DIPOLE MOMENT
-------------
                                X             Y             Z
Electronic contribution:     -2.00037      -1.40112       0.56252
Nuclear contribution   :      2.40737       2.24557      -0.94980
                        -----------------------------------------
Total Dipole Moment    :      0.40700       0.84445      -0.38727
                        -----------------------------------------
Magnitude (a.u.)       :      1.01426
Magnitude (Debye)      :      2.57805

Rotational constants in cm-1:     0.803376     0.209471     0.173535
Rotational constants in MHz : 24084.593285  6279.785116  5202.445451

                             ****ORCA TERMINATED NORMALLY****
TOTAL RUN TIME: 0 days 0 hours 0 minutes 11 seconds 986 msec
