                         Program Version 5.0.3 -  RELEASE  -
|  1> ! B3LYP cc-pVDZ
|  2> !TightSCF
|  3> %scf
|  4>  ConvForced true
|  5>  convergence tight
|  6>  MaxIter 500
|  7> end
|  8>
|  9> %tddft
| 10>  nroots 1
| 11> end
| 12>
| 13> # 	31471
| 14> * xyz 0 1
| 15> 		C   -0.550896  -0.401672   0.042378
| 16> 		O   -0.551866  -1.586428  -0.025925
| 17> 		C    0.555010   0.369651  -0.028734
| 18> 		C    1.838155  -0.157571   0.009673
| 19> 		H   -1.410891   0.091594   0.122665
| 20> 		H    0.326758   1.457862  -0.138638
| 21> 		H    1.795396  -1.230159   0.106471
| 22> 		H    2.995850   0.367455   0.035160
| 23> *
| 24>
| 25>                          ****END OF INPUT****

CARTESIAN COORDINATES (ANGSTROEM)
---------------------------------
  C     -0.550896   -0.401672    0.042378
  O     -0.551866   -1.586428   -0.025925
  C      0.555010    0.369651   -0.028734
  C      1.838155   -0.157571    0.009673
  H     -1.410891    0.091594    0.122665
  H      0.326758    1.457862   -0.138638
  H      1.795396   -1.230159    0.106471
  H      2.995850    0.367455    0.035160

 Total Charge           Charge          ....    0
 Multiplicity           Mult            ....    1
 Number of Electrons    NEL             ....   30
 Basis Dimension        Dim             ....   76

ORBITAL ENERGIES
----------------

  NO   OCC          E(Eh)            E(eV)
   0   2.0000     -19.123681      -520.3818
   1   2.0000     -10.246127      -278.8113
   2   2.0000     -10.236887      -278.5599
   3   2.0000     -10.202183      -277.6155
   4   2.0000      -1.054327       -28.6897
   5   2.0000      -0.800225       -21.7752
   6   2.0000      -0.676272       -18.4023
   7   2.0000      -0.544481       -14.8161
   8   2.0000      -0.509975       -13.8771
   9   2.0000      -0.446726       -12.1560
  10   2.0000      -0.419274       -11.4090
  11   2.0000      -0.406460       -11.0603
  12   2.0000      -0.370427       -10.0798
  13   2.0000      -0.280264        -7.6264
  14   2.0000      -0.251620        -6.8469
  15   0.0000      -0.079587        -2.1657
  16   0.0000       0.044369         1.2074
  17   0.0000       0.081234         2.2105
  18   0.0000       0.084054         2.2872
  19   0.0000       0.138286         3.7629

MULLIKEN ATOMIC CHARGES
-----------------------
   0 C :    0.256258
   1 O :   -0.193762
   2 C :   -0.111641
   3 C :    0.007595
   4 H :   -0.073996
   5 H :   -0.009316
   6 H :    0.043151
   7 H :    0.081712
Sum of atomic charges:   -0.0000000

LOEWDIN ATOMIC CHARGES
----------------------
   0 C :   -0.081330
   1 O :    0.017620
   2 C :   -0.079941
   3 C :    0.034711
   4 H :   -0.018435
   5 H :    0.034438
   6 H :    0.026324
   7 H :    0.066612

  Mayer bond orders larger than 0.100000
B(  0-C ,  1-O ) :   2.1832 B(  0-C ,  2-C ) :   1.1578 B(  0-C ,  4-H ) :   0.9267
B(  1-O ,  3-C ) :   0.1245 B(  2-C ,  3-C ) :   1.8773 B(  2-C ,  5-H ) :   0.9445
B(  3-C ,  6-H ) :   0.9182 B(  3-C ,  7-H ) :   0.9462

-----------------------------------------------------------------------------
         ABSORPTION SPECTRUM VIA TRANSITION ELECTRIC DIPOLE MOMENTS
-----------------------------------------------------------------------------
State   Energy    Wavelength  fosc         T2        TX        TY        TZ
        (cm-1)      (nm)                 (au**2)    (au)      (au)      (au)
-----------------------------------------------------------------------------
   1   25274.2    395.7   0.000057809   0.00075  -0.01216   0.00130   0.02456

FINAL SINGLE POINT ENERGY      -191.645568769882

DIPOLE MOMENT
-------------
                                X             Y             Z
Electronic contribution:     -1.87293      -1.56481      -0.06455
Nuclear contribution   :      2.32502       2.43296       0.11805
                        -----------------------------------------
Total Dipole Moment    :      0.45209       0.86815       0.05350
                        -----------------------------------------
Magnitude (a.u.)       :      0.98027
Magnitude (Debye)      :      2.49165

Rotational constants in cm-1:     0.771451     0.223728     0.173755
Rotational constants in MHz : 23127.516840  6707.210088  5209.048174

                             ****ORCA TERMINATED NORMALLY****
TOTAL RUN TIME: 0 days 0 hours 3 minutes 22 seconds 220 msec
