                         Program Version 5.0.3 -  RELEASE  -
|  1> ! B3LYP cc-pVDZ
|  2> !TightSCF
|  3> %scf
|  4>  ConvForced true
|  5>  convergence tight
|  6>  MaxIter 500
|  7> end
|  8>
|  9> %tddft
| 10>  nroots 1
| 11> end
| 12>
| 13> # 	9318
| 14> * xyz 0 1
| 15> 		C   -1.149438  -0.439394  -0.084459
| 16> 		O   -2.188328  -0.309495  -0.666510
| 17> 		C    0.004688   0.438257  -0.231490
| 18> 		C    1.203641   0.133322   0.302927
| 19> 		H   -1.026923  -1.010599   0.551519
| 20> 		H   -0.280304   1.114807  -0.882892
| 21> 		H    1.226827  -0.612546   0.942953
| 22> 		H    2.188050   0.630685   0.037689
| 23> *
| 24>
| 25>                          ****END OF INPUT****

CARTESIAN COORDINATES (ANGSTROEM)
---------------------------------
  C     -1.149438   -0.439394   -0.084459
  O     -2.188328   -0.309495   -0.666510
  C      0.004688    0.438257   -0.231490
  C      1.203641    0.133322    0.302927
  H     -1.026923   -1.010599    0.551519
  H     -0.280304    1.114807   -0.882892
  H      1.226827   -0.612546    0.942953
  H      2.188050    0.630685    0.037689

 Total Charge           Charge          ....    0
 Multiplicity           Mult            ....    1
 Number of Electrons    NEL             ....   30
 Basis Dimension        Dim             ....   76

ORBITAL ENERGIES
----------------

  NO   OCC          E(Eh)            E(eV)
   0   2.0000     -19.133324      -520.6442
   1   2.0000     -10.245857      -278.8039
   2   2.0000     -10.217049      -278.0200
   3   2.0000     -10.192580      -277.3542
   4   2.0000      -1.050425       -28.5835
   5   2.0000      -0.811869       -22.0921
   6   2.0000      -0.673972       -18.3397
   7   2.0000      -0.619187       -16.8489
   8   2.0000      -0.489077       -13.3085
   9   2.0000      -0.474560       -12.9134
  10   2.0000      -0.428825       -11.6689
  11   2.0000      -0.403541       -10.9809
  12   2.0000      -0.394748       -10.7416
  13   2.0000      -0.291323        -7.9273
  14   2.0000      -0.252314        -6.8658
  15   0.0000      -0.067364        -1.8331
  16   0.0000       0.050859         1.3839
  17   0.0000       0.075183         2.0458
  18   0.0000       0.102711         2.7949
  19   0.0000       0.138030         3.7560

MULLIKEN ATOMIC CHARGES
-----------------------
   0 C :    0.326944
   1 O :   -0.204128
   2 C :   -0.042246
   3 C :    0.106961
   4 H :   -0.156197
   5 H :   -0.071349
   6 H :   -0.013750
   7 H :    0.053764
Sum of atomic charges:    0.0000000

LOEWDIN ATOMIC CHARGES
----------------------
   0 C :   -0.005440
   1 O :    0.022159
   2 C :   -0.015941
   3 C :    0.029176
   4 H :   -0.071822
   5 H :   -0.003831
   6 H :   -0.001701
   7 H :    0.047401

  Mayer bond orders larger than 0.100000
B(  0-C ,  1-O ) :   2.1707 B(  0-C ,  2-C ) :   1.1191 B(  0-C ,  4-H ) :   0.9305
B(  2-C ,  3-C ) :   1.9136 B(  2-C ,  5-H ) :   0.9559 B(  3-C ,  6-H ) :   0.9261
B(  3-C ,  7-H ) :   0.9496

-----------------------------------------------------------------------------
         ABSORPTION SPECTRUM VIA TRANSITION ELECTRIC DIPOLE MOMENTS
-----------------------------------------------------------------------------
State   Energy    Wavelength  fosc         T2        TX        TY        TZ
        (cm-1)      (nm)                 (au**2)    (au)      (au)      (au)
-----------------------------------------------------------------------------
   1   27844.3    359.1   0.000086857   0.00103   0.02151   0.02007  -0.01271

FINAL SINGLE POINT ENERGY      -191.592559952839

DIPOLE MOMENT
-------------
                                X             Y             Z
Electronic contribution:     -3.04205      -0.36444      -0.82268
Nuclear contribution   :      4.10742       0.32797       1.28239
                        -----------------------------------------
Total Dipole Moment    :      1.06537      -0.03646       0.45970
                        -----------------------------------------
Magnitude (a.u.)       :      1.16089
Magnitude (Debye)      :      2.95075

Rotational constants in cm-1:     1.852733     0.155592     0.144056
Rotational constants in MHz : 55543.531072  4664.517683  4318.698031

                             ****ORCA TERMINATED NORMALLY****
TOTAL RUN TIME: 0 days 0 hours 3 minutes 21 seconds 789 msec
