                         Program Version 5.0.3 -  RELEASE  -
|  1> ! B3LYP cc-pVDZ
|  2> !TightSCF
|  3> %scf
|  4>  ConvForced true
|  5>  convergence tight
|  6>  MaxIter 500
|  7> end
|  8>
|  9> %tddft
| 10>  nroots 1
| 11> end
| 12>
| 13> # 	14866
| 14> * xyz 0 1
| 15> 		C   -1.194120  -0.335337   0.010939
| 16> 		O   -1.471786  -1.200848  -0.707053
| 17> 		C    0.030404   0.531430  -0.098223
| 18> 		C    1.261412   0.090720   0.195687
| 19> 		H   -1.861854  -0.067119   0.822131
| 20> 		H   -0.110142   1.431481  -0.821830
| 21> 		H    1.156792  -0.967985   0.588949
| 22> 		H    2.219332   0.543851   0.031581
| 23> *
| 24>
| 25>                          ****END OF INPUT****

CARTESIAN COORDINATES (ANGSTROEM)
---------------------------------
  C     -1.194120   -0.335337    0.010939
  O     -1.471786   -1.200848   -0.707053
  C      0.030404    0.531430   -0.098223
  C      1.261412    0.090720    0.195687
  H     -1.861854   -0.067119    0.822131
  H     -0.110142    1.431481   -0.821830
  H      1.156792   -0.967985    0.588949
  H      2.219332    0.543851    0.031581

 Total Charge           Charge          ....    0
 Multiplicity           Mult            ....    1
 Number of Electrons    NEL             ....   30
 Basis Dimension        Dim             ....   76

ORBITAL ENERGIES
----------------

  NO   OCC          E(Eh)            E(eV)
   0   2.0000     -19.147086      -521.0187
   1   2.0000     -10.276828      -279.6467
   2   2.0000     -10.208193      -277.7791
   3   2.0000     -10.206995      -277.7465
   4   2.0000      -1.084269       -29.5045
   5   2.0000      -0.789086       -21.4721
   6   2.0000      -0.647756       -17.6263
   7   2.0000      -0.551963       -15.0197
   8   2.0000      -0.495080       -13.4718
   9   2.0000      -0.466967       -12.7068
  10   2.0000      -0.448727       -12.2105
  11   2.0000      -0.402756       -10.9596
  12   2.0000      -0.367004        -9.9867
  13   2.0000      -0.284797        -7.7497
  14   2.0000      -0.255228        -6.9451
  15   0.0000      -0.024677        -0.6715
  16   0.0000      -0.012849        -0.3496
  17   0.0000       0.085207         2.3186
  18   0.0000       0.091371         2.4863
  19   0.0000       0.103151         2.8069

MULLIKEN ATOMIC CHARGES
-----------------------
   0 C :    0.174530
   1 O :   -0.133588
   2 C :   -0.151439
   3 C :    0.041633
   4 H :   -0.028360
   5 H :    0.039289
   6 H :    0.028283
   7 H :    0.029652
Sum of atomic charges:    0.0000000

LOEWDIN ATOMIC CHARGES
----------------------
   0 C :   -0.052854
   1 O :    0.064173
   2 C :   -0.076598
   3 C :   -0.028363
   4 H :   -0.016027
   5 H :    0.046806
   6 H :    0.037965
   7 H :    0.024899

  Mayer bond orders larger than 0.100000
B(  0-C ,  1-O ) :   2.2925 B(  0-C ,  2-C ) :   0.9667 B(  0-C ,  4-H ) :   0.9130
B(  2-C ,  3-C ) :   2.0249 B(  2-C ,  5-H ) :   0.9280 B(  3-C ,  6-H ) :   0.9373
B(  3-C ,  7-H ) :   0.9525

-----------------------------------------------------------------------------
         ABSORPTION SPECTRUM VIA TRANSITION ELECTRIC DIPOLE MOMENTS
-----------------------------------------------------------------------------
State   Energy    Wavelength  fosc         T2        TX        TY        TZ
        (cm-1)      (nm)                 (au**2)    (au)      (au)      (au)
-----------------------------------------------------------------------------
   1   35480.1    281.8   0.000262128   0.00243  -0.04606  -0.01675   0.00545

FINAL SINGLE POINT ENERGY      -191.618131625687

DIPOLE MOMENT
-------------
                                X             Y             Z
Electronic contribution:     -2.33568      -1.29045      -0.87443
Nuclear contribution   :      2.70395       1.86022       1.20262
                        -----------------------------------------
Total Dipole Moment    :      0.36827       0.56978       0.32818
                        -----------------------------------------
Magnitude (a.u.)       :      0.75364
Magnitude (Debye)      :      1.91560

Rotational constants in cm-1:     0.934133     0.176249     0.161875
Rotational constants in MHz : 28004.611172  5283.806410  4852.890760

                             ****ORCA TERMINATED NORMALLY****
TOTAL RUN TIME: 0 days 0 hours 3 minutes 18 seconds 454 msec
