                         Program Version 5.0.3 -  RELEASE  -
|  1> ! B3LYP cc-pVDZ
|  2> !TightSCF
|  3> %scf
|  4>  ConvForced true
|  5>  convergence tight
|  6>  MaxIter 500
|  7> end
|  8>
|  9> %tddft
| 10>  nroots 1
| 11> end
| 12>
| 13> # 	29332
| 14> * xyz 0 1
| 15> 		C   -0.603108  -0.439705   0.089869
| 16> 		O   -0.575614  -1.619670  -0.054691
| 17> 		C    0.623442   0.421882  -0.052690
| 18> 		C    1.823281  -0.118080   0.033856
| 19> 		H   -1.603236   0.017384   0.143061
| 20> 		H    0.535013   1.393776  -0.233016
| 21> 		H    2.218395  -1.075644   0.224821
| 22> 		H    2.947341   0.257469  -0.137171
| 23> *
| 24>
| 25>                          ****END OF INPUT****

CARTESIAN COORDINATES (ANGSTROEM)
---------------------------------
  C     -0.603108   -0.439705    0.089869
  O     -0.575614   -1.619670   -0.054691
  C      0.623442    0.421882   -0.052690
  C      1.823281   -0.118080    0.033856
  H     -1.603236    0.017384    0.143061
  H      0.535013    1.393776   -0.233016
  H      2.218395   -1.075644    0.224821
  H      2.947341    0.257469   -0.137171

 Total Charge           Charge          ....    0
 Multiplicity           Mult            ....    1
 Number of Electrons    NEL             ....   30
 Basis Dimension        Dim             ....   76

ORBITAL ENERGIES
----------------

  NO   OCC          E(Eh)            E(eV)
   0   2.0000     -19.135431      -520.7015
   1   2.0000     -10.273516      -279.5566
   2   2.0000     -10.215121      -277.9676
   3   2.0000     -10.200494      -277.5696
   4   2.0000      -1.057691       -28.7812
   5   2.0000      -0.795343       -21.6424
   6   2.0000      -0.652804       -17.7637
   7   2.0000      -0.568146       -15.4600
   8   2.0000      -0.508822       -13.8458
   9   2.0000      -0.465128       -12.6568
  10   2.0000      -0.428330       -11.6555
  11   2.0000      -0.402324       -10.9478
  12   2.0000      -0.347478        -9.4553
  13   2.0000      -0.290463        -7.9039
  14   2.0000      -0.252797        -6.8789
  15   0.0000      -0.061899        -1.6844
  16   0.0000       0.053861         1.4656
  17   0.0000       0.062940         1.7127
  18   0.0000       0.090225         2.4551
  19   0.0000       0.124277         3.3817

MULLIKEN ATOMIC CHARGES
-----------------------
   0 C :    0.176955
   1 O :   -0.167262
   2 C :    0.000670
   3 C :    0.025563
   4 H :   -0.025512
   5 H :   -0.044734
   6 H :    0.008073
   7 H :    0.026247
Sum of atomic charges:   -0.0000000

LOEWDIN ATOMIC CHARGES
----------------------
   0 C :   -0.036022
   1 O :    0.019026
   2 C :   -0.065847
   3 C :    0.015827
   4 H :   -0.008314
   5 H :    0.005568
   6 H :    0.021316
   7 H :    0.048446

  Mayer bond orders larger than 0.100000
B(  0-C ,  1-O ) :   2.2299 B(  0-C ,  2-C ) :   1.0124 B(  0-C ,  4-H ) :   0.9242
B(  2-C ,  3-C ) :   1.9338 B(  2-C ,  5-H ) :   0.9431 B(  3-C ,  6-H ) :   0.9654
B(  3-C ,  7-H ) :   0.9616

-----------------------------------------------------------------------------
         ABSORPTION SPECTRUM VIA TRANSITION ELECTRIC DIPOLE MOMENTS
-----------------------------------------------------------------------------
State   Energy    Wavelength  fosc         T2        TX        TY        TZ
        (cm-1)      (nm)                 (au**2)    (au)      (au)      (au)
-----------------------------------------------------------------------------
   1   28921.1    345.8   0.000023949   0.00027   0.00063   0.00967  -0.01337

FINAL SINGLE POINT ENERGY      -191.636415996164

DIPOLE MOMENT
-------------
                                X             Y             Z
Electronic contribution:     -2.32692      -1.55495       0.06263
Nuclear contribution   :      2.68893       2.34325      -0.00135
                        -----------------------------------------
Total Dipole Moment    :      0.36201       0.78831       0.06128
                        -----------------------------------------
Magnitude (a.u.)       :      0.86962
Magnitude (Debye)      :      2.21039

Rotational constants in cm-1:     0.769887     0.207391     0.164454
Rotational constants in MHz : 23080.622708  6217.416174  4930.221156

                             ****ORCA TERMINATED NORMALLY****
TOTAL RUN TIME: 0 days 0 hours 3 minutes 21 seconds 421 msec
