                         Program Version 5.0.3 -  RELEASE  -
|  1> ! HF-3c
|  2> !TightSCF
|  3> %scf
|  4>  ConvForced true
|  5>  convergence tight
|  6>  MaxIter 500
|  7> end
|  8>
|  9> %tddft
| 10>  nroots 1
| 11> end
| 12>
| 13> # 	25782
| 14> * xyz 0 1
| 15> 		C   -0.581148  -0.437743   0.053688
| 16> 		O   -0.605260  -1.661236  -0.032797
| 17> 		C    0.642532   0.430894  -0.059111
| 18> 		C    1.843418  -0.096528   0.041903
| 19> 		H   -1.501682   0.167563   0.239140
| 20> 		H    0.488348   1.392729  -0.176844
| 21> 		H    2.131726  -1.252537  -0.013392
| 22> 		H    2.767642   0.559497   0.026737
| 23> *
| 24>
| 25>                          ****END OF INPUT****

CARTESIAN COORDINATES (ANGSTROEM)
---------------------------------
  C     -0.581148   -0.437743    0.053688
  O     -0.605260   -1.661236   -0.032797
  C      0.642532    0.430894   -0.059111
  C      1.843418   -0.096528    0.041903
  H     -1.501682    0.167563    0.239140
  H      0.488348    1.392729   -0.176844
  H      2.131726   -1.252537   -0.013392
  H      2.767642    0.559497    0.026737

 Total Charge           Charge          ....    0
 Multiplicity           Mult            ....    1
 Number of Electrons    NEL             ....   30
 Basis Dimension        Dim             ....   24

ORBITAL ENERGIES
----------------

  NO   OCC          E(Eh)            E(eV)
   0   2.0000     -20.359083      -553.9988
   1   2.0000     -11.290027      -307.2172
   2   2.0000     -11.194253      -304.6111
   3   2.0000     -11.187504      -304.4274
   4   2.0000      -1.385438       -37.6997
   5   2.0000      -1.081695       -29.4344
   6   2.0000      -0.883315       -24.0362
   7   2.0000      -0.750365       -20.4185
   8   2.0000      -0.699830       -19.0433
   9   2.0000      -0.613247       -16.6873
  10   2.0000      -0.587799       -15.9948
  11   2.0000      -0.531444       -14.4613
  12   2.0000      -0.521027       -14.1779
  13   2.0000      -0.408462       -11.1148
  14   2.0000      -0.396983       -10.8025
  15   0.0000       0.137812         3.7500
  16   0.0000       0.299488         8.1495
  17   0.0000       0.508970        13.8498
  18   0.0000       0.584734        15.9114
  19   0.0000       0.660841        17.9824

MULLIKEN ATOMIC CHARGES
-----------------------
   0 C :    0.174373
   1 O :   -0.355224
   2 C :   -0.213427
   3 C :   -0.184336
   4 H :    0.133371
   5 H :    0.142310
   6 H :    0.163082
   7 H :    0.139851
Sum of atomic charges:    0.0000000

LOEWDIN ATOMIC CHARGES
----------------------
   0 C :    0.158004
   1 O :   -0.265105
   2 C :   -0.161388
   3 C :   -0.094834
   4 H :    0.071748
   5 H :    0.082775
   6 H :    0.116102
   7 H :    0.092699

  Mayer bond orders larger than 0.100000
B(  0-C ,  1-O ) :   1.9168 B(  0-C ,  2-C ) :   1.0117 B(  0-C ,  4-H ) :   0.9248
B(  2-C ,  3-C ) :   1.9503 B(  2-C ,  5-H ) :   0.9620 B(  3-C ,  6-H ) :   0.9552
B(  3-C ,  7-H ) :   0.9624

-----------------------------------------------------------------------------
         ABSORPTION SPECTRUM VIA TRANSITION ELECTRIC DIPOLE MOMENTS
-----------------------------------------------------------------------------
State   Energy    Wavelength  fosc         T2        TX        TY        TZ
        (cm-1)      (nm)                 (au**2)    (au)      (au)      (au)
-----------------------------------------------------------------------------
   1   32613.1    306.6   0.000007328   0.00007   0.00745  -0.00298   0.00310

Dispersion correction           -0.025391573
FINAL SINGLE POINT ENERGY      -189.326621319228

DIPOLE MOMENT
-------------
                                X             Y             Z
Electronic contribution:     -2.04814      -1.72909      -0.00962
Nuclear contribution   :      2.48690       2.59981       0.07117
                        -----------------------------------------
Total Dipole Moment    :      0.43876       0.87072       0.06156
                        -----------------------------------------
Magnitude (a.u.)       :      0.97696
Magnitude (Debye)      :      2.48323

Rotational constants in cm-1:     0.764091     0.202233     0.160534
Rotational constants in MHz : 22906.876273  6062.799568  4812.677104

                             ****ORCA TERMINATED NORMALLY****
TOTAL RUN TIME: 0 days 0 hours 0 minutes 13 seconds 365 msec
