                         Program Version 5.0.3 -  RELEASE  -
|  1> ! B3LYP cc-pVDZ
|  2> !TightSCF
|  3> %scf
|  4>  ConvForced true
|  5>  convergence tight
|  6>  MaxIter 500
|  7> end
|  8>
|  9> %tddft
| 10>  nroots 1
| 11> end
| 12>
| 13> # 	31128
| 14> * xyz 0 1
| 15> 		C   -0.616623  -0.457319  -0.018364
| 16> 		O   -0.541878  -1.604353   0.019364
| 17> 		C    0.610868   0.431378   0.020953
| 18> 		C    1.839826  -0.166417  -0.012245
| 19> 		H   -1.474505   0.229830  -0.204208
| 20> 		H    0.480749   1.546681   0.126964
| 21> 		H    1.897359  -1.133641  -0.104586
| 22> 		H    2.776465   0.382629  -0.000130
| 23> *
| 24>
| 25>                          ****END OF INPUT****

CARTESIAN COORDINATES (ANGSTROEM)
---------------------------------
  C     -0.616623   -0.457319   -0.018364
  O     -0.541878   -1.604353    0.019364
  C      0.610868    0.431378    0.020953
  C      1.839826   -0.166417   -0.012245
  H     -1.474505    0.229830   -0.204208
  H      0.480749    1.546681    0.126964
  H      1.897359   -1.133641   -0.104586
  H      2.776465    0.382629   -0.000130

 Total Charge           Charge          ....    0
 Multiplicity           Mult            ....    1
 Number of Electrons    NEL             ....   30
 Basis Dimension        Dim             ....   76

ORBITAL ENERGIES
----------------

  NO   OCC          E(Eh)            E(eV)
   0   2.0000     -19.145126      -520.9654
   1   2.0000     -10.275231      -279.6033
   2   2.0000     -10.201969      -277.6097
   3   2.0000     -10.198579      -277.5174
   4   2.0000      -1.086482       -29.5647
   5   2.0000      -0.782770       -21.3003
   6   2.0000      -0.656892       -17.8749
   7   2.0000      -0.546191       -14.8626
   8   2.0000      -0.505036       -13.7427
   9   2.0000      -0.460827       -12.5397
  10   2.0000      -0.425983       -11.5916
  11   2.0000      -0.414859       -11.2889
  12   2.0000      -0.391818       -10.6619
  13   2.0000      -0.280460        -7.6317
  14   2.0000      -0.256513        -6.9801
  15   0.0000      -0.062072        -1.6891
  16   0.0000       0.060692         1.6515
  17   0.0000       0.073778         2.0076
  18   0.0000       0.098977         2.6933
  19   0.0000       0.125687         3.4201

MULLIKEN ATOMIC CHARGES
-----------------------
   0 C :    0.195701
   1 O :   -0.133427
   2 C :   -0.191902
   3 C :    0.148641
   4 H :   -0.027363
   5 H :    0.000911
   6 H :   -0.019249
   7 H :    0.026687
Sum of atomic charges:    0.0000000

LOEWDIN ATOMIC CHARGES
----------------------
   0 C :   -0.071486
   1 O :    0.064832
   2 C :   -0.078807
   3 C :    0.045801
   4 H :   -0.012189
   5 H :    0.029158
   6 H :   -0.008376
   7 H :    0.031068

  Mayer bond orders larger than 0.100000
B(  0-C ,  1-O ) :   2.2703 B(  0-C ,  2-C ) :   1.0157 B(  0-C ,  4-H ) :   0.9047
B(  2-C ,  3-C ) :   1.9751 B(  2-C ,  5-H ) :   0.9432 B(  3-C ,  6-H ) :   0.9348
B(  3-C ,  7-H ) :   0.9551

-----------------------------------------------------------------------------
         ABSORPTION SPECTRUM VIA TRANSITION ELECTRIC DIPOLE MOMENTS
-----------------------------------------------------------------------------
State   Energy    Wavelength  fosc         T2        TX        TY        TZ
        (cm-1)      (nm)                 (au**2)    (au)      (au)      (au)
-----------------------------------------------------------------------------
   1   30190.3    331.2   0.000094785   0.00103   0.02325  -0.00794   0.02073

FINAL SINGLE POINT ENERGY      -191.647329489822

DIPOLE MOMENT
-------------
                                X             Y             Z
Electronic contribution:     -2.00642      -2.00667       0.13945
Nuclear contribution   :      2.29750       2.74906      -0.17112
                        -----------------------------------------
Total Dipole Moment    :      0.29108       0.74238      -0.03167
                        -----------------------------------------
Magnitude (a.u.)       :      0.79804
Magnitude (Debye)      :      2.02845

Rotational constants in cm-1:     0.742692     0.216893     0.168159
Rotational constants in MHz : 22265.353352  6502.287624  5041.267042

                             ****ORCA TERMINATED NORMALLY****
TOTAL RUN TIME: 0 days 0 hours 3 minutes 16 seconds 482 msec
