                         Program Version 5.0.3 -  RELEASE  -
|  1> ! B3LYP cc-pVDZ
|  2> !TightSCF
|  3> %scf
|  4>  ConvForced true
|  5>  convergence tight
|  6>  MaxIter 500
|  7> end
|  8>
|  9> %tddft
| 10>  nroots 1
| 11> end
| 12>
| 13> # 	27604
| 14> * xyz 0 1
| 15> 		C   -0.630014  -0.456706   0.070941
| 16> 		O   -0.571206  -1.625366  -0.043837
| 17> 		C    0.659924   0.441232  -0.031839
| 18> 		C    1.844112  -0.145290   0.006881
| 19> 		H   -1.592328   0.076528   0.163073
| 20> 		H    0.446063   1.504728  -0.287268
| 21> 		H    2.106902  -1.122029   0.193935
| 22> 		H    2.733741   0.524730   0.063034
| 23> *
| 24>
| 25>                          ****END OF INPUT****

CARTESIAN COORDINATES (ANGSTROEM)
---------------------------------
  C     -0.630014   -0.456706    0.070941
  O     -0.571206   -1.625366   -0.043837
  C      0.659924    0.441232   -0.031839
  C      1.844112   -0.145290    0.006881
  H     -1.592328    0.076528    0.163073
  H      0.446063    1.504728   -0.287268
  H      2.106902   -1.122029    0.193935
  H      2.733741    0.524730    0.063034

 Total Charge           Charge          ....    0
 Multiplicity           Mult            ....    1
 Number of Electrons    NEL             ....   30
 Basis Dimension        Dim             ....   76

ORBITAL ENERGIES
----------------

  NO   OCC          E(Eh)            E(eV)
   0   2.0000     -19.141555      -520.8682
   1   2.0000     -10.276080      -279.6263
   2   2.0000     -10.206464      -277.7320
   3   2.0000     -10.201605      -277.5998
   4   2.0000      -1.067870       -29.0582
   5   2.0000      -0.784668       -21.3519
   6   2.0000      -0.643298       -17.5050
   7   2.0000      -0.551644       -15.0110
   8   2.0000      -0.497422       -13.5355
   9   2.0000      -0.455535       -12.3957
  10   2.0000      -0.430199       -11.7063
  11   2.0000      -0.405557       -11.0358
  12   2.0000      -0.378126       -10.2893
  13   2.0000      -0.288546        -7.8517
  14   2.0000      -0.251406        -6.8411
  15   0.0000      -0.056037        -1.5248
  16   0.0000       0.049434         1.3452
  17   0.0000       0.070368         1.9148
  18   0.0000       0.097475         2.6524
  19   0.0000       0.117188         3.1889

MULLIKEN ATOMIC CHARGES
-----------------------
   0 C :    0.177171
   1 O :   -0.154330
   2 C :   -0.148626
   3 C :    0.099241
   4 H :   -0.022390
   5 H :    0.008047
   6 H :    0.012389
   7 H :    0.028499
Sum of atomic charges:   -0.0000000

LOEWDIN ATOMIC CHARGES
----------------------
   0 C :   -0.039477
   1 O :    0.032945
   2 C :   -0.078396
   3 C :    0.013232
   4 H :   -0.012082
   5 H :    0.030583
   6 H :    0.014806
   7 H :    0.038390

  Mayer bond orders larger than 0.100000
B(  0-C ,  1-O ) :   2.2500 B(  0-C ,  2-C ) :   0.9893 B(  0-C ,  4-H ) :   0.9103
B(  2-C ,  3-C ) :   1.9934 B(  2-C ,  5-H ) :   0.9402 B(  3-C ,  6-H ) :   0.9479
B(  3-C ,  7-H ) :   0.9438

-----------------------------------------------------------------------------
         ABSORPTION SPECTRUM VIA TRANSITION ELECTRIC DIPOLE MOMENTS
-----------------------------------------------------------------------------
State   Energy    Wavelength  fosc         T2        TX        TY        TZ
        (cm-1)      (nm)                 (au**2)    (au)      (au)      (au)
-----------------------------------------------------------------------------
   1   30163.4    331.5   0.000221427   0.00242   0.04676   0.00341  -0.01478

FINAL SINGLE POINT ENERGY      -191.657032885767

DIPOLE MOMENT
-------------
                                X             Y             Z
Electronic contribution:     -2.06177      -1.92700      -0.05217
Nuclear contribution   :      2.30881       2.70968       0.12494
                        -----------------------------------------
Total Dipole Moment    :      0.24704       0.78267       0.07277
                        -----------------------------------------
Magnitude (a.u.)       :      0.82396
Magnitude (Debye)      :      2.09433

Rotational constants in cm-1:     0.751395     0.205724     0.162301
Rotational constants in MHz : 22526.240584  6167.451968  4865.660238

                             ****ORCA TERMINATED NORMALLY****
TOTAL RUN TIME: 0 days 0 hours 3 minutes 21 seconds 958 msec
