                         Program Version 5.0.3 -  RELEASE  -
|  1> ! B3LYP cc-pVDZ
|  2> !TightSCF
|  3> %scf
|  4>  ConvForced true
|  5>  convergence tight
|  6>  MaxIter 500
|  7> end
|  8>
|  9> %tddft
| 10>  nroots 1
| 11> end
| 12>
| 13> # 	3302
| 14> * xyz 0 1
| 15> 		C   -1.193364  -0.393011   0.008741
| 16> 		O   -1.264446  -1.523205  -0.259789
| 17> 		C    0.015491   0.501623  -0.095651
| 18> 		C    1.229753  -0.021946   0.048482
| 19> 		H   -2.110624   0.169990   0.349926
| 20> 		H   -0.216762   1.610167  -0.343002
| 21> 		H    1.374560  -1.045217   0.185218
| 22> 		H    2.111704   0.627303   0.129368
| 23> *
| 24>
| 25>                          ****END OF INPUT****

CARTESIAN COORDINATES (ANGSTROEM)
---------------------------------
  C     -1.193364   -0.393011    0.008741
  O     -1.264446   -1.523205   -0.259789
  C      0.015491    0.501623   -0.095651
  C      1.229753   -0.021946    0.048482
  H     -2.110624    0.169990    0.349926
  H     -0.216762    1.610167   -0.343002
  H      1.374560   -1.045217    0.185218
  H      2.111704    0.627303    0.129368

 Total Charge           Charge          ....    0
 Multiplicity           Mult            ....    1
 Number of Electrons    NEL             ....   30
 Basis Dimension        Dim             ....   76

ORBITAL ENERGIES
----------------

  NO   OCC          E(Eh)            E(eV)
   0   2.0000     -19.141261      -520.8602
   1   2.0000     -10.274040      -279.5709
   2   2.0000     -10.209527      -277.8154
   3   2.0000     -10.206205      -277.7250
   4   2.0000      -1.074849       -29.2481
   5   2.0000      -0.792840       -21.5743
   6   2.0000      -0.650885       -17.7115
   7   2.0000      -0.540489       -14.7074
   8   2.0000      -0.503951       -13.7132
   9   2.0000      -0.454324       -12.3628
  10   2.0000      -0.435431       -11.8487
  11   2.0000      -0.405628       -11.0377
  12   2.0000      -0.386926       -10.5288
  13   2.0000      -0.289852        -7.8873
  14   2.0000      -0.252847        -6.8803
  15   0.0000      -0.054557        -1.4846
  16   0.0000       0.043117         1.1733
  17   0.0000       0.071249         1.9388
  18   0.0000       0.096065         2.6140
  19   0.0000       0.117169         3.1883

MULLIKEN ATOMIC CHARGES
-----------------------
   0 C :    0.172625
   1 O :   -0.145996
   2 C :   -0.163182
   3 C :    0.101241
   4 H :   -0.035093
   5 H :    0.021199
   6 H :    0.016870
   7 H :    0.032335
Sum of atomic charges:   -0.0000000

LOEWDIN ATOMIC CHARGES
----------------------
   0 C :   -0.063283
   1 O :    0.044877
   2 C :   -0.080285
   3 C :    0.015986
   4 H :   -0.014739
   5 H :    0.042546
   6 H :    0.019900
   7 H :    0.034997

  Mayer bond orders larger than 0.100000
B(  0-C ,  1-O ) :   2.2632 B(  0-C ,  2-C ) :   1.0142 B(  0-C ,  4-H ) :   0.9006
B(  2-C ,  3-C ) :   1.9852 B(  2-C ,  5-H ) :   0.9381 B(  3-C ,  6-H ) :   0.9377
B(  3-C ,  7-H ) :   0.9462

-----------------------------------------------------------------------------
         ABSORPTION SPECTRUM VIA TRANSITION ELECTRIC DIPOLE MOMENTS
-----------------------------------------------------------------------------
State   Energy    Wavelength  fosc         T2        TX        TY        TZ
        (cm-1)      (nm)                 (au**2)    (au)      (au)      (au)
-----------------------------------------------------------------------------
   1   30949.5    323.1   0.000106020   0.00113  -0.02819  -0.00780  -0.01650

FINAL SINGLE POINT ENERGY      -191.657239656996

DIPOLE MOMENT
-------------
                                X             Y             Z
Electronic contribution:     -1.90618      -1.95312      -0.41673
Nuclear contribution   :      2.30760       2.73092       0.58634
                        -----------------------------------------
Total Dipole Moment    :      0.40143       0.77780       0.16960
                        -----------------------------------------
Magnitude (a.u.)       :      0.89156
Magnitude (Debye)      :      2.26616

Rotational constants in cm-1:     0.804141     0.199988     0.162639
Rotational constants in MHz : 24107.535958  5995.488786  4875.799984

                             ****ORCA TERMINATED NORMALLY****
TOTAL RUN TIME: 0 days 0 hours 3 minutes 0 seconds 522 msec
