                         Program Version 5.0.3 -  RELEASE  -
|  1> ! B3LYP cc-pVDZ
|  2> !TightSCF
|  3> %scf
|  4>  ConvForced true
|  5>  convergence tight
|  6>  MaxIter 500
|  7> end
|  8>
|  9> %tddft
| 10>  nroots 1
| 11> end
| 12>
| 13> # 	10823
| 14> * xyz 0 1
| 15> 		C   -1.141568  -0.297851   0.025228
| 16> 		O   -1.184928  -1.441467   0.186981
| 17> 		C    0.054323   0.534667   0.046369
| 18> 		C    1.243772  -0.051906  -0.008786
| 19> 		H   -2.241768   0.274548  -0.095963
| 20> 		H   -0.174221   1.575663  -0.032133
| 21> 		H    1.282360  -1.146680  -0.125400
| 22> 		H    2.149936   0.576218  -0.012409
| 23> *
| 24>
| 25>                          ****END OF INPUT****

CARTESIAN COORDINATES (ANGSTROEM)
---------------------------------
  C     -1.141568   -0.297851    0.025228
  O     -1.184928   -1.441467    0.186981
  C      0.054323    0.534667    0.046369
  C      1.243772   -0.051906   -0.008786
  H     -2.241768    0.274548   -0.095963
  H     -0.174221    1.575663   -0.032133
  H      1.282360   -1.146680   -0.125400
  H      2.149936    0.576218   -0.012409

 Total Charge           Charge          ....    0
 Multiplicity           Mult            ....    1
 Number of Electrons    NEL             ....   30
 Basis Dimension        Dim             ....   76

ORBITAL ENERGIES
----------------

  NO   OCC          E(Eh)            E(eV)
   0   2.0000     -19.138513      -520.7854
   1   2.0000     -10.274602      -279.5861
   2   2.0000     -10.216929      -278.0168
   3   2.0000     -10.201457      -277.5958
   4   2.0000      -1.079485       -29.3743
   5   2.0000      -0.802664       -21.8416
   6   2.0000      -0.651920       -17.7397
   7   2.0000      -0.527819       -14.3627
   8   2.0000      -0.511431       -13.9168
   9   2.0000      -0.455788       -12.4026
  10   2.0000      -0.426381       -11.6024
  11   2.0000      -0.416322       -11.3287
  12   2.0000      -0.389425       -10.5968
  13   2.0000      -0.293625        -7.9899
  14   2.0000      -0.250754        -6.8234
  15   0.0000      -0.064052        -1.7429
  16   0.0000       0.062954         1.7131
  17   0.0000       0.070517         1.9189
  18   0.0000       0.087755         2.3879
  19   0.0000       0.118939         3.2365

MULLIKEN ATOMIC CHARGES
-----------------------
   0 C :    0.114518
   1 O :   -0.136254
   2 C :   -0.077050
   3 C :    0.080193
   4 H :   -0.045413
   5 H :   -0.017071
   6 H :    0.043371
   7 H :    0.037706
Sum of atomic charges:   -0.0000000

LOEWDIN ATOMIC CHARGES
----------------------
   0 C :   -0.082265
   1 O :    0.049033
   2 C :   -0.079408
   3 C :    0.030759
   4 H :   -0.018890
   5 H :    0.025133
   6 H :    0.038857
   7 H :    0.036781

  Mayer bond orders larger than 0.100000
B(  0-C ,  1-O ) :   2.2539 B(  0-C ,  2-C ) :   1.0473 B(  0-C ,  4-H ) :   0.8825
B(  2-C ,  3-C ) :   1.9595 B(  2-C ,  5-H ) :   0.9499 B(  3-C ,  6-H ) :   0.9260
B(  3-C ,  7-H ) :   0.9407

-----------------------------------------------------------------------------
         ABSORPTION SPECTRUM VIA TRANSITION ELECTRIC DIPOLE MOMENTS
-----------------------------------------------------------------------------
State   Energy    Wavelength  fosc         T2        TX        TY        TZ
        (cm-1)      (nm)                 (au**2)    (au)      (au)      (au)
-----------------------------------------------------------------------------
   1   28798.0    347.2   0.000415986   0.00476   0.04329   0.00230  -0.05363

FINAL SINGLE POINT ENERGY      -191.662428877287

DIPOLE MOMENT
-------------
                                X             Y             Z
Electronic contribution:     -1.48424      -1.75332       0.34462
Nuclear contribution   :      2.01472       2.49314      -0.48041
                        -----------------------------------------
Total Dipole Moment    :      0.53049       0.73982      -0.13580
                        -----------------------------------------
Magnitude (a.u.)       :      0.92043
Magnitude (Debye)      :      2.33955

Rotational constants in cm-1:     0.784914     0.216608     0.170291
Rotational constants in MHz : 23531.143982  6493.730521  5105.180789

                             ****ORCA TERMINATED NORMALLY****
TOTAL RUN TIME: 0 days 0 hours 3 minutes 20 seconds 941 msec
