                         Program Version 5.0.3 -  RELEASE  -
|  1> ! HF-3c
|  2> !TightSCF
|  3> %scf
|  4>  ConvForced true
|  5>  convergence tight
|  6>  MaxIter 500
|  7> end
|  8>
|  9> %tddft
| 10>  nroots 1
| 11> end
| 12>
| 13> # 	25186
| 14> * xyz 0 1
| 15> 		C   -0.596558  -0.458632   0.055328
| 16> 		O   -0.581521  -1.628581  -0.036557
| 17> 		C    0.656007   0.435125  -0.046652
| 18> 		C    1.850206  -0.126290   0.016490
| 19> 		H   -1.548176   0.037983   0.220181
| 20> 		H    0.581160   1.474943  -0.162277
| 21> 		H    1.772452  -1.228010   0.182868
| 22> 		H    2.649873   0.563109   0.027424
| 23> *
| 24>
| 25>                          ****END OF INPUT****

CARTESIAN COORDINATES (ANGSTROEM)
---------------------------------
  C     -0.596558   -0.458632    0.055328
  O     -0.581521   -1.628581   -0.036557
  C      0.656007    0.435125   -0.046652
  C      1.850206   -0.126290    0.016490
  H     -1.548176    0.037983    0.220181
  H      0.581160    1.474943   -0.162277
  H      1.772452   -1.228010    0.182868
  H      2.649873    0.563109    0.027424

 Total Charge           Charge          ....    0
 Multiplicity           Mult            ....    1
 Number of Electrons    NEL             ....   30
 Basis Dimension        Dim             ....   24

ORBITAL ENERGIES
----------------

  NO   OCC          E(Eh)            E(eV)
   0   2.0000     -20.381055      -554.5967
   1   2.0000     -11.307411      -307.6903
   2   2.0000     -11.183537      -304.3195
   3   2.0000     -11.180004      -304.2234
   4   2.0000      -1.435261       -39.0554
   5   2.0000      -1.082271       -29.4501
   6   2.0000      -0.877943       -23.8900
   7   2.0000      -0.750260       -20.4156
   8   2.0000      -0.723396       -19.6846
   9   2.0000      -0.618325       -16.8255
  10   2.0000      -0.599585       -16.3155
  11   2.0000      -0.556467       -15.1422
  12   2.0000      -0.540107       -14.6971
  13   2.0000      -0.413019       -11.2388
  14   2.0000      -0.402156       -10.9432
  15   0.0000       0.148207         4.0329
  16   0.0000       0.303743         8.2653
  17   0.0000       0.535240        14.5646
  18   0.0000       0.595048        16.1921
  19   0.0000       0.655810        17.8455

MULLIKEN ATOMIC CHARGES
-----------------------
   0 C :    0.180364
   1 O :   -0.362981
   2 C :   -0.175722
   3 C :   -0.238802
   4 H :    0.135372
   5 H :    0.138322
   6 H :    0.171409
   7 H :    0.152038
Sum of atomic charges:   -0.0000000

LOEWDIN ATOMIC CHARGES
----------------------
   0 C :    0.153213
   1 O :   -0.254156
   2 C :   -0.132407
   3 C :   -0.136750
   4 H :    0.068817
   5 H :    0.084315
   6 H :    0.118325
   7 H :    0.098645

  Mayer bond orders larger than 0.100000
B(  0-C ,  1-O ) :   1.9294 B(  0-C ,  2-C ) :   0.9859 B(  0-C ,  4-H ) :   0.9239
B(  2-C ,  3-C ) :   1.9671 B(  2-C ,  5-H ) :   0.9637 B(  3-C ,  6-H ) :   0.9519
B(  3-C ,  7-H ) :   0.9636

-----------------------------------------------------------------------------
         ABSORPTION SPECTRUM VIA TRANSITION ELECTRIC DIPOLE MOMENTS
-----------------------------------------------------------------------------
State   Energy    Wavelength  fosc         T2        TX        TY        TZ
        (cm-1)      (nm)                 (au**2)    (au)      (au)      (au)
-----------------------------------------------------------------------------
   1   35839.9    279.0   0.000011161   0.00010  -0.00152  -0.00077   0.00998

Dispersion correction           -0.026113408
FINAL SINGLE POINT ENERGY      -189.320882337527

DIPOLE MOMENT
-------------
                                X             Y             Z
Electronic contribution:     -1.85560      -1.71781      -0.14273
Nuclear contribution   :      2.08289       2.58591       0.25190
                        -----------------------------------------
Total Dipole Moment    :      0.22730       0.86810       0.10916
                        -----------------------------------------
Magnitude (a.u.)       :      0.90398
Magnitude (Debye)      :      2.29774

Rotational constants in cm-1:     0.798731     0.206862     0.164942
Rotational constants in MHz : 23945.355088  6201.568235  4944.849075

                             ****ORCA TERMINATED NORMALLY****
TOTAL RUN TIME: 0 days 0 hours 0 minutes 12 seconds 880 msec
