                         Program Version 5.0.3 -  RELEASE  -
|  1> ! HF-3c
|  2> !TightSCF
|  3> %scf
|  4>  ConvForced true
|  5>  convergence tight
|  6>  MaxIter 500
|  7> end
|  8>
|  9> %tddft
| 10>  nroots 1
| 11> end
| 12>
| 13> # 	17599
| 14> * xyz 0 1
| 15> 		C   -1.263897  -0.393629  -0.092428
| 16> 		O   -2.245451  -0.262958  -0.567845
| 17> 		C   -0.079897   0.376991  -0.254995
| 18> 		C    1.175722   0.065606   0.287014
| 19> 		H   -1.104376  -1.090341   0.566267
| 20> 		H   -0.111526   1.432280  -1.024348
| 21> 		H    1.373808  -0.707827   1.022062
| 22> 		H    2.223857   0.616067   0.019102
| 23> *
| 24>
| 25>                          ****END OF INPUT****

CARTESIAN COORDINATES (ANGSTROEM)
---------------------------------
  C     -1.263897   -0.393629   -0.092428
  O     -2.245451   -0.262958   -0.567845
  C     -0.079897    0.376991   -0.254995
  C      1.175722    0.065606    0.287014
  H     -1.104376   -1.090341    0.566267
  H     -0.111526    1.432280   -1.024348
  H      1.373808   -0.707827    1.022062
  H      2.223857    0.616067    0.019102

 Total Charge           Charge          ....    0
 Multiplicity           Mult            ....    1
 Number of Electrons    NEL             ....   30
 Basis Dimension        Dim             ....   24

ORBITAL ENERGIES
----------------

  NO   OCC          E(Eh)            E(eV)
   0   2.0000     -20.404049      -555.2224
   1   2.0000     -11.336817      -308.4905
   2   2.0000     -11.186958      -304.4126
   3   2.0000     -11.175479      -304.1002
   4   2.0000      -1.497275       -40.7429
   5   2.0000      -1.060970       -28.8705
   6   2.0000      -0.890741       -24.2383
   7   2.0000      -0.799008       -21.7421
   8   2.0000      -0.680464       -18.5164
   9   2.0000      -0.643328       -17.5058
  10   2.0000      -0.604877       -16.4596
  11   2.0000      -0.565985       -15.4012
  12   2.0000      -0.504050       -13.7159
  13   2.0000      -0.409134       -11.1331
  14   2.0000      -0.374975       -10.2036
  15   0.0000       0.131046         3.5659
  16   0.0000       0.335473         9.1287
  17   0.0000       0.439666        11.9639
  18   0.0000       0.538619        14.6566
  19   0.0000       0.667412        18.1612

MULLIKEN ATOMIC CHARGES
-----------------------
   0 C :    0.165245
   1 O :   -0.361976
   2 C :   -0.148885
   3 C :   -0.206493
   4 H :    0.129247
   5 H :    0.146385
   6 H :    0.132344
   7 H :    0.144133
Sum of atomic charges:   -0.0000000

LOEWDIN ATOMIC CHARGES
----------------------
   0 C :    0.132733
   1 O :   -0.227016
   2 C :   -0.135644
   3 C :   -0.115789
   4 H :    0.050211
   5 H :    0.109663
   6 H :    0.082943
   7 H :    0.102899

  Mayer bond orders larger than 0.100000
B(  0-C ,  1-O ) :   1.8947 B(  0-C ,  2-C ) :   1.0312 B(  0-C ,  4-H ) :   0.9158
B(  2-C ,  3-C ) :   1.9263 B(  2-C ,  5-H ) :   0.9484 B(  3-C ,  6-H ) :   0.9660
B(  3-C ,  7-H ) :   0.9628

-----------------------------------------------------------------------------
         ABSORPTION SPECTRUM VIA TRANSITION ELECTRIC DIPOLE MOMENTS
-----------------------------------------------------------------------------
State   Energy    Wavelength  fosc         T2        TX        TY        TZ
        (cm-1)      (nm)                 (au**2)    (au)      (au)      (au)
-----------------------------------------------------------------------------
   1   37513.7    266.6   0.000049170   0.00043   0.01524  -0.00925   0.01066

Dispersion correction           -0.025087933
FINAL SINGLE POINT ENERGY      -189.220169252499

DIPOLE MOMENT
-------------
                                X             Y             Z
Electronic contribution:     -3.43587      -0.39707      -0.81335
Nuclear contribution   :      4.58978       0.45707       1.15841
                        -----------------------------------------
Total Dipole Moment    :      1.15391       0.06000       0.34506
                        -----------------------------------------
Magnitude (a.u.)       :      1.20589
Magnitude (Debye)      :      3.06513

Rotational constants in cm-1:     1.698179     0.154760     0.142067
Rotational constants in MHz : 50910.119649  4639.576306  4259.064772

                             ****ORCA TERMINATED NORMALLY****
TOTAL RUN TIME: 0 days 0 hours 0 minutes 13 seconds 523 msec
