                         Program Version 5.0.3 -  RELEASE  -
|  1> ! B3LYP cc-pVDZ
|  2> !TightSCF
|  3> %scf
|  4>  ConvForced true
|  5>  convergence tight
|  6>  MaxIter 500
|  7> end
|  8>
|  9> %tddft
| 10>  nroots 1
| 11> end
| 12>
| 13> # 	2011
| 14> * xyz 0 1
| 15> 		C   -1.231002  -0.322850  -0.110327
| 16> 		O   -1.668811  -0.967478  -0.984857
| 17> 		C    0.057101   0.470334  -0.301995
| 18> 		C    1.147805   0.057039   0.293834
| 19> 		H   -1.496270  -0.298640   1.073460
| 20> 		H   -0.091108   1.382658  -0.844439
| 21> 		H    1.161294  -0.976910   0.702159
| 22> 		H    2.080721   0.624964   0.185862
| 23> *
| 24>
| 25>                          ****END OF INPUT****

CARTESIAN COORDINATES (ANGSTROEM)
---------------------------------
  C     -1.231002   -0.322850   -0.110327
  O     -1.668811   -0.967478   -0.984857
  C      0.057101    0.470334   -0.301995
  C      1.147805    0.057039    0.293834
  H     -1.496270   -0.298640    1.073460
  H     -0.091108    1.382658   -0.844439
  H      1.161294   -0.976910    0.702159
  H      2.080721    0.624964    0.185862

 Total Charge           Charge          ....    0
 Multiplicity           Mult            ....    1
 Number of Electrons    NEL             ....   30
 Basis Dimension        Dim             ....   76

ORBITAL ENERGIES
----------------

  NO   OCC          E(Eh)            E(eV)
   0   2.0000     -19.155572      -521.2496
   1   2.0000     -10.289049      -279.9792
   2   2.0000     -10.200746      -277.5764
   3   2.0000     -10.198027      -277.5024
   4   2.0000      -1.081182       -29.4205
   5   2.0000      -0.796322       -21.6690
   6   2.0000      -0.635972       -17.3057
   7   2.0000      -0.553813       -15.0700
   8   2.0000      -0.483553       -13.1581
   9   2.0000      -0.468085       -12.7372
  10   2.0000      -0.445982       -12.1358
  11   2.0000      -0.400434       -10.8964
  12   2.0000      -0.387950       -10.5567
  13   2.0000      -0.286660        -7.8004
  14   2.0000      -0.255318        -6.9476
  15   0.0000      -0.038296        -1.0421
  16   0.0000       0.008888         0.2418
  17   0.0000       0.082456         2.2437
  18   0.0000       0.087689         2.3861
  19   0.0000       0.096458         2.6248

MULLIKEN ATOMIC CHARGES
-----------------------
   0 C :    0.120994
   1 O :   -0.135171
   2 C :   -0.065650
   3 C :    0.023237
   4 H :   -0.003696
   5 H :    0.003104
   6 H :    0.026407
   7 H :    0.030774
Sum of atomic charges:   -0.0000000

LOEWDIN ATOMIC CHARGES
----------------------
   0 C :   -0.049559
   1 O :    0.056524
   2 C :   -0.054338
   3 C :   -0.042394
   4 H :   -0.003197
   5 H :    0.025666
   6 H :    0.034412
   7 H :    0.032887

  Mayer bond orders larger than 0.100000
B(  0-C ,  1-O ) :   2.2658 B(  0-C ,  2-C ) :   0.9663 B(  0-C ,  4-H ) :   0.8782
B(  2-C ,  3-C ) :   2.0414 B(  2-C ,  5-H ) :   0.9454 B(  3-C ,  6-H ) :   0.9355
B(  3-C ,  7-H ) :   0.9415

-----------------------------------------------------------------------------
         ABSORPTION SPECTRUM VIA TRANSITION ELECTRIC DIPOLE MOMENTS
-----------------------------------------------------------------------------
State   Energy    Wavelength  fosc         T2        TX        TY        TZ
        (cm-1)      (nm)                 (au**2)    (au)      (au)      (au)
-----------------------------------------------------------------------------
   1   33733.1    296.4   0.000856043   0.00835   0.01836   0.01790  -0.08773

FINAL SINGLE POINT ENERGY      -191.630190898945

DIPOLE MOMENT
-------------
                                X             Y             Z
Electronic contribution:     -2.79649      -1.01889      -1.66754
Nuclear contribution   :      3.23083       1.49800       2.11224
                        -----------------------------------------
Total Dipole Moment    :      0.43435       0.47911       0.44470
                        -----------------------------------------
Magnitude (a.u.)       :      0.78483
Magnitude (Debye)      :      1.99489

Rotational constants in cm-1:     1.044669     0.166913     0.162717
Rotational constants in MHz : 31318.380466  5003.925321  4878.126285

                             ****ORCA TERMINATED NORMALLY****
TOTAL RUN TIME: 0 days 0 hours 3 minutes 23 seconds 756 msec
