                         Program Version 5.0.3 -  RELEASE  -
|  1> ! B3LYP cc-pVDZ
|  2> !TightSCF
|  3> %scf
|  4>  ConvForced true
|  5>  convergence tight
|  6>  MaxIter 500
|  7> end
|  8>
|  9> %tddft
| 10>  nroots 1
| 11> end
| 12>
| 13> # 	29640
| 14> * xyz 0 1
| 15> 		C   -0.601431  -0.379166  -0.047850
| 16> 		O   -0.596158  -1.686029   0.029115
| 17> 		C    0.645639   0.400738   0.044705
| 18> 		C    1.882345  -0.107535  -0.018883
| 19> 		H   -1.653826   0.055589  -0.186963
| 20> 		H    0.365522   1.563045   0.140892
| 21> 		H    2.158822  -1.107834  -0.085416
| 22> 		H    2.601181   0.557719  -0.060715
| 23> *
| 24>
| 25>                          ****END OF INPUT****

CARTESIAN COORDINATES (ANGSTROEM)
---------------------------------
  C     -0.601431   -0.379166   -0.047850
  O     -0.596158   -1.686029    0.029115
  C      0.645639    0.400738    0.044705
  C      1.882345   -0.107535   -0.018883
  H     -1.653826    0.055589   -0.186963
  H      0.365522    1.563045    0.140892
  H      2.158822   -1.107834   -0.085416
  H      2.601181    0.557719   -0.060715

 Total Charge           Charge          ....    0
 Multiplicity           Mult            ....    1
 Number of Electrons    NEL             ....   30
 Basis Dimension        Dim             ....   76

ORBITAL ENERGIES
----------------

  NO   OCC          E(Eh)            E(eV)
   0   2.0000     -19.133478      -520.6484
   1   2.0000     -10.281376      -279.7705
   2   2.0000     -10.224410      -278.2203
   3   2.0000     -10.206703      -277.7385
   4   2.0000      -0.991766       -26.9873
   5   2.0000      -0.800282       -21.7768
   6   2.0000      -0.671343       -18.2682
   7   2.0000      -0.546266       -14.8646
   8   2.0000      -0.503260       -13.6944
   9   2.0000      -0.451592       -12.2884
  10   2.0000      -0.420490       -11.4421
  11   2.0000      -0.378479       -10.2989
  12   2.0000      -0.367551       -10.0016
  13   2.0000      -0.285821        -7.7776
  14   2.0000      -0.249972        -6.8021
  15   0.0000      -0.083548        -2.2735
  16   0.0000       0.044931         1.2226
  17   0.0000       0.056942         1.5495
  18   0.0000       0.098732         2.6866
  19   0.0000       0.104927         2.8552

MULLIKEN ATOMIC CHARGES
-----------------------
   0 C :    0.166417
   1 O :   -0.265093
   2 C :   -0.164637
   3 C :    0.207015
   4 H :    0.015998
   5 H :    0.022550
   6 H :    0.022818
   7 H :   -0.005069
Sum of atomic charges:   -0.0000000

LOEWDIN ATOMIC CHARGES
----------------------
   0 C :    0.011533
   1 O :   -0.097601
   2 C :   -0.073649
   3 C :    0.061098
   4 H :    0.015671
   5 H :    0.047059
   6 H :    0.028219
   7 H :    0.007671

  Mayer bond orders larger than 0.100000
B(  0-C ,  1-O ) :   2.0779 B(  0-C ,  2-C ) :   1.0766 B(  0-C ,  4-H ) :   0.9289
B(  1-O ,  3-C ) :   0.1067 B(  2-C ,  3-C ) :   1.9528 B(  2-C ,  5-H ) :   0.9314
B(  3-C ,  6-H ) :   0.9433 B(  3-C ,  7-H ) :   0.9262

-----------------------------------------------------------------------------
         ABSORPTION SPECTRUM VIA TRANSITION ELECTRIC DIPOLE MOMENTS
-----------------------------------------------------------------------------
State   Energy    Wavelength  fosc         T2        TX        TY        TZ
        (cm-1)      (nm)                 (au**2)    (au)      (au)      (au)
-----------------------------------------------------------------------------
   1   23155.1    431.9   0.000057164   0.00081  -0.00789  -0.00120  -0.02737

FINAL SINGLE POINT ENERGY      -191.668761367363

DIPOLE MOMENT
-------------
                                X             Y             Z
Electronic contribution:     -1.64000      -1.78223       0.10888
Nuclear contribution   :      2.09904       2.78723      -0.18039
                        -----------------------------------------
Total Dipole Moment    :      0.45904       1.00500      -0.07151
                        -----------------------------------------
Magnitude (a.u.)       :      1.10719
Magnitude (Debye)      :      2.81424

Rotational constants in cm-1:     0.719639     0.200710     0.157337
Rotational constants in MHz : 21574.232832  6017.147753  4716.829907

                             ****ORCA TERMINATED NORMALLY****
TOTAL RUN TIME: 0 days 0 hours 3 minutes 22 seconds 912 msec
