                         Program Version 5.0.3 -  RELEASE  -
|  1> ! B3LYP cc-pVDZ
|  2> !TightSCF
|  3> %scf
|  4>  ConvForced true
|  5>  convergence tight
|  6>  MaxIter 500
|  7> end
|  8>
|  9> %tddft
| 10>  nroots 1
| 11> end
| 12>
| 13> # 	1324
| 14> * xyz 0 1
| 15> 		C   -1.168750  -0.365031  -0.012767
| 16> 		O   -1.430291  -1.388665  -0.547348
| 17> 		C    0.002290   0.422069  -0.183683
| 18> 		C    1.210607   0.016061   0.100304
| 19> 		H   -1.967273   0.034719   0.759127
| 20> 		H   -0.122995   1.497755  -0.564750
| 21> 		H    1.384555  -0.866619   0.501469
| 22> 		H    2.050538   0.613766  -0.052644
| 23> *
| 24>
| 25>                          ****END OF INPUT****

CARTESIAN COORDINATES (ANGSTROEM)
---------------------------------
  C     -1.168750   -0.365031   -0.012767
  O     -1.430291   -1.388665   -0.547348
  C      0.002290    0.422069   -0.183683
  C      1.210607    0.016061    0.100304
  H     -1.967273    0.034719    0.759127
  H     -0.122995    1.497755   -0.564750
  H      1.384555   -0.866619    0.501469
  H      2.050538    0.613766   -0.052644

 Total Charge           Charge          ....    0
 Multiplicity           Mult            ....    1
 Number of Electrons    NEL             ....   30
 Basis Dimension        Dim             ....   76

ORBITAL ENERGIES
----------------

  NO   OCC          E(Eh)            E(eV)
   0   2.0000     -19.141289      -520.8610
   1   2.0000     -10.277525      -279.6657
   2   2.0000     -10.206263      -277.7265
   3   2.0000     -10.192007      -277.3386
   4   2.0000      -1.065006       -28.9803
   5   2.0000      -0.811644       -22.0859
   6   2.0000      -0.667606       -18.1665
   7   2.0000      -0.548768       -14.9327
   8   2.0000      -0.509274       -13.8581
   9   2.0000      -0.462718       -12.5912
  10   2.0000      -0.449471       -12.2307
  11   2.0000      -0.401067       -10.9136
  12   2.0000      -0.377814       -10.2808
  13   2.0000      -0.294006        -8.0003
  14   2.0000      -0.253447        -6.8966
  15   0.0000      -0.041990        -1.1426
  16   0.0000       0.012456         0.3389
  17   0.0000       0.075996         2.0680
  18   0.0000       0.098859         2.6901
  19   0.0000       0.110110         2.9963

MULLIKEN ATOMIC CHARGES
-----------------------
   0 C :    0.146447
   1 O :   -0.157901
   2 C :   -0.122834
   3 C :    0.151916
   4 H :   -0.027574
   5 H :    0.025080
   6 H :   -0.024470
   7 H :    0.009336
Sum of atomic charges:   -0.0000000

LOEWDIN ATOMIC CHARGES
----------------------
   0 C :   -0.057801
   1 O :    0.031270
   2 C :   -0.063384
   3 C :    0.018540
   4 H :   -0.008539
   5 H :    0.052403
   6 H :    0.002002
   7 H :    0.025508

  Mayer bond orders larger than 0.100000
B(  0-C ,  1-O ) :   2.2566 B(  0-C ,  2-C ) :   1.0120 B(  0-C ,  4-H ) :   0.8985
B(  2-C ,  3-C ) :   2.0457 B(  2-C ,  5-H ) :   0.9197 B(  3-C ,  6-H ) :   0.9407
B(  3-C ,  7-H ) :   0.9395

-----------------------------------------------------------------------------
         ABSORPTION SPECTRUM VIA TRANSITION ELECTRIC DIPOLE MOMENTS
-----------------------------------------------------------------------------
State   Energy    Wavelength  fosc         T2        TX        TY        TZ
        (cm-1)      (nm)                 (au**2)    (au)      (au)      (au)
-----------------------------------------------------------------------------
   1   32634.6    306.4   0.000726224   0.00733  -0.08512  -0.00537  -0.00722

FINAL SINGLE POINT ENERGY      -191.632751094363

DIPOLE MOMENT
-------------
                                X             Y             Z
Electronic contribution:     -2.12361      -1.76740      -0.90445
Nuclear contribution   :      2.65155       2.52729       1.21785
                        -----------------------------------------
Total Dipole Moment    :      0.52794       0.75989       0.31339
                        -----------------------------------------
Magnitude (a.u.)       :      0.97692
Magnitude (Debye)      :      2.48313

Rotational constants in cm-1:     0.934068     0.187715     0.165888
Rotational constants in MHz : 28002.649624  5627.543359  4973.202267

                             ****ORCA TERMINATED NORMALLY****
TOTAL RUN TIME: 0 days 0 hours 3 minutes 17 seconds 194 msec
