                         Program Version 5.0.3 -  RELEASE  -
|  1> ! HF-3c
|  2> !TightSCF
|  3> %scf
|  4>  ConvForced true
|  5>  convergence tight
|  6>  MaxIter 500
|  7> end
|  8>
|  9> %tddft
| 10>  nroots 1
| 11> end
| 12>
| 13> # 	1772
| 14> * xyz 0 1
| 15> 		C   -1.226487  -0.348566   0.037604
| 16> 		O   -1.677289  -1.195327   0.713073
| 17> 		C    0.029123   0.497502   0.228050
| 18> 		C    1.267282  -0.072707  -0.143444
| 19> 		H   -1.753112  -0.120507  -0.876053
| 20> 		H   -0.098281   1.601648   0.615925
| 21> 		H    1.345716  -0.946832  -0.508280
| 22> 		H    2.121652   0.575512  -0.016943
| 23> *
| 24>
| 25>                          ****END OF INPUT****

CARTESIAN COORDINATES (ANGSTROEM)
---------------------------------
  C     -1.226487   -0.348566    0.037604
  O     -1.677289   -1.195327    0.713073
  C      0.029123    0.497502    0.228050
  C      1.267282   -0.072707   -0.143444
  H     -1.753112   -0.120507   -0.876053
  H     -0.098281    1.601648    0.615925
  H      1.345716   -0.946832   -0.508280
  H      2.121652    0.575512   -0.016943

 Total Charge           Charge          ....    0
 Multiplicity           Mult            ....    1
 Number of Electrons    NEL             ....   30
 Basis Dimension        Dim             ....   24

ORBITAL ENERGIES
----------------

  NO   OCC          E(Eh)            E(eV)
   0   2.0000     -20.392322      -554.9033
   1   2.0000     -11.311222      -307.7940
   2   2.0000     -11.193270      -304.5844
   3   2.0000     -11.178266      -304.1761
   4   2.0000      -1.437866       -39.1263
   5   2.0000      -1.057518       -28.7765
   6   2.0000      -0.890044       -24.2193
   7   2.0000      -0.771128       -20.9835
   8   2.0000      -0.692742       -18.8505
   9   2.0000      -0.631519       -17.1845
  10   2.0000      -0.609853       -16.5950
  11   2.0000      -0.570714       -15.5299
  12   2.0000      -0.520959       -14.1760
  13   2.0000      -0.412492       -11.2245
  14   2.0000      -0.380780       -10.3615
  15   0.0000       0.177630         4.8336
  16   0.0000       0.207238         5.6392
  17   0.0000       0.533805        14.5256
  18   0.0000       0.575923        15.6717
  19   0.0000       0.714875        19.4527

MULLIKEN ATOMIC CHARGES
-----------------------
   0 C :    0.172962
   1 O :   -0.345852
   2 C :   -0.126307
   3 C :   -0.272680
   4 H :    0.133113
   5 H :    0.155984
   6 H :    0.137738
   7 H :    0.145042
Sum of atomic charges:   -0.0000000

LOEWDIN ATOMIC CHARGES
----------------------
   0 C :    0.147913
   1 O :   -0.236509
   2 C :   -0.090042
   3 C :   -0.172096
   4 H :    0.066095
   5 H :    0.110215
   6 H :    0.078842
   7 H :    0.095581

  Mayer bond orders larger than 0.100000
B(  0-C ,  1-O ) :   1.9553 B(  0-C ,  2-C ) :   0.9755 B(  0-C ,  4-H ) :   0.9172
B(  2-C ,  3-C ) :   1.9855 B(  2-C ,  5-H ) :   0.9506 B(  3-C ,  6-H ) :   0.9731
B(  3-C ,  7-H ) :   0.9670

-----------------------------------------------------------------------------
         ABSORPTION SPECTRUM VIA TRANSITION ELECTRIC DIPOLE MOMENTS
-----------------------------------------------------------------------------
State   Energy    Wavelength  fosc         T2        TX        TY        TZ
        (cm-1)      (nm)                 (au**2)    (au)      (au)      (au)
-----------------------------------------------------------------------------
   1   36463.8    274.2   0.000078997   0.00071  -0.02570  -0.00725   0.00018

Dispersion correction           -0.024663000
FINAL SINGLE POINT ENERGY      -189.281692472741

DIPOLE MOMENT
-------------
                                X             Y             Z
Electronic contribution:     -2.70291      -1.37030       1.05134
Nuclear contribution   :      3.12867       2.17196      -1.53834
                        -----------------------------------------
Total Dipole Moment    :      0.42576       0.80166      -0.48700
                        -----------------------------------------
Magnitude (a.u.)       :      1.03010
Magnitude (Debye)      :      2.61830

Rotational constants in cm-1:     0.928681     0.166247     0.152418
Rotational constants in MHz : 27841.165560  4983.954201  4569.362902

                             ****ORCA TERMINATED NORMALLY****
TOTAL RUN TIME: 0 days 0 hours 0 minutes 15 seconds 934 msec
