                         Program Version 5.0.3 -  RELEASE  -
|  1> ! HF-3c
|  2> !TightSCF
|  3> %scf
|  4>  ConvForced true
|  5>  convergence tight
|  6>  MaxIter 500
|  7> end
|  8>
|  9> %tddft
| 10>  nroots 1
| 11> end
| 12>
| 13> # 	28705
| 14> * xyz 0 1
| 15> 		C   -0.535152  -0.449489  -0.018758
| 16> 		O   -0.628271  -1.652142   0.005219
| 17> 		C    0.649712   0.387639  -0.008531
| 18> 		C    1.839127  -0.093009  -0.014685
| 19> 		H   -1.515062   0.275513   0.176647
| 20> 		H    0.531402   1.532735   0.018913
| 21> 		H    2.070224  -1.190621   0.061088
| 22> 		H    2.618147   0.726543   0.167134
| 23> *
| 24>
| 25>                          ****END OF INPUT****

CARTESIAN COORDINATES (ANGSTROEM)
---------------------------------
  C     -0.535152   -0.449489   -0.018758
  O     -0.628271   -1.652142    0.005219
  C      0.649712    0.387639   -0.008531
  C      1.839127   -0.093009   -0.014685
  H     -1.515062    0.275513    0.176647
  H      0.531402    1.532735    0.018913
  H      2.070224   -1.190621    0.061088
  H      2.618147    0.726543    0.167134

 Total Charge           Charge          ....    0
 Multiplicity           Mult            ....    1
 Number of Electrons    NEL             ....   30
 Basis Dimension        Dim             ....   24

ORBITAL ENERGIES
----------------

  NO   OCC          E(Eh)            E(eV)
   0   2.0000     -20.362852      -554.1014
   1   2.0000     -11.291137      -307.2474
   2   2.0000     -11.191545      -304.5374
   3   2.0000     -11.187030      -304.4146
   4   2.0000      -1.398601       -38.0579
   5   2.0000      -1.096150       -29.8278
   6   2.0000      -0.882777       -24.0216
   7   2.0000      -0.716243       -19.4900
   8   2.0000      -0.692781       -18.8515
   9   2.0000      -0.611896       -16.6505
  10   2.0000      -0.577737       -15.7210
  11   2.0000      -0.544154       -14.8072
  12   2.0000      -0.517863       -14.0918
  13   2.0000      -0.406549       -11.0628
  14   2.0000      -0.394427       -10.7329
  15   0.0000       0.138026         3.7559
  16   0.0000       0.330000         8.9798
  17   0.0000       0.494501        13.4561
  18   0.0000       0.573368        15.6021
  19   0.0000       0.591970        16.1083

MULLIKEN ATOMIC CHARGES
-----------------------
   0 C :    0.186813
   1 O :   -0.362652
   2 C :   -0.187116
   3 C :   -0.210882
   4 H :    0.117398
   5 H :    0.144501
   6 H :    0.163855
   7 H :    0.148083
Sum of atomic charges:    0.0000000

LOEWDIN ATOMIC CHARGES
----------------------
   0 C :    0.155396
   1 O :   -0.265695
   2 C :   -0.148234
   3 C :   -0.117546
   4 H :    0.065541
   5 H :    0.097045
   6 H :    0.111673
   7 H :    0.101820

  Mayer bond orders larger than 0.100000
B(  0-C ,  1-O ) :   1.9098 B(  0-C ,  2-C ) :   1.0280 B(  0-C ,  4-H ) :   0.9081
B(  2-C ,  3-C ) :   1.9470 B(  2-C ,  5-H ) :   0.9533 B(  3-C ,  6-H ) :   0.9545
B(  3-C ,  7-H ) :   0.9583

-----------------------------------------------------------------------------
         ABSORPTION SPECTRUM VIA TRANSITION ELECTRIC DIPOLE MOMENTS
-----------------------------------------------------------------------------
State   Energy    Wavelength  fosc         T2        TX        TY        TZ
        (cm-1)      (nm)                 (au**2)    (au)      (au)      (au)
-----------------------------------------------------------------------------
   1   32500.9    307.7   0.000078391   0.00079  -0.01900   0.00488   0.02023

Dispersion correction           -0.025691134
FINAL SINGLE POINT ENERGY      -189.316956903879

DIPOLE MOMENT
-------------
                                X             Y             Z
Electronic contribution:     -1.86688      -2.02238      -0.31593
Nuclear contribution   :      2.31401       3.04685       0.39722
                        -----------------------------------------
Total Dipole Moment    :      0.44713       1.02447       0.08129
                        -----------------------------------------
Magnitude (a.u.)       :      1.12074
Magnitude (Debye)      :      2.84870

Rotational constants in cm-1:     0.812299     0.203367     0.162872
Rotational constants in MHz : 24352.122149  6096.785693  4882.775022

                             ****ORCA TERMINATED NORMALLY****
TOTAL RUN TIME: 0 days 0 hours 0 minutes 10 seconds 341 msec
