                         Program Version 5.0.3 -  RELEASE  -
|  1> ! B3LYP cc-pVDZ
|  2> !TightSCF
|  3> %scf
|  4>  ConvForced true
|  5>  convergence tight
|  6>  MaxIter 500
|  7> end
|  8>
|  9> %tddft
| 10>  nroots 1
| 11> end
| 12>
| 13> # 	14040
| 14> * xyz 0 1
| 15> 		C   -1.211877  -0.319204   0.017647
| 16> 		O   -1.118610  -1.509211   0.081306
| 17> 		C    0.026636   0.645124   0.141126
| 18> 		C    1.228449  -0.066081   0.024425
| 19> 		H   -2.197427   0.254660  -0.291401
| 20> 		H   -0.229296   1.676751   0.156789
| 21> 		H    1.286786  -1.203539  -0.092697
| 22> 		H    2.241215   0.526102  -0.056969
| 23> *
| 24>
| 25>                          ****END OF INPUT****

CARTESIAN COORDINATES (ANGSTROEM)
---------------------------------
  C     -1.211877   -0.319204    0.017647
  O     -1.118610   -1.509211    0.081306
  C      0.026636    0.645124    0.141126
  C      1.228449   -0.066081    0.024425
  H     -2.197427    0.254660   -0.291401
  H     -0.229296    1.676751    0.156789
  H      1.286786   -1.203539   -0.092697
  H      2.241215    0.526102   -0.056969

 Total Charge           Charge          ....    0
 Multiplicity           Mult            ....    1
 Number of Electrons    NEL             ....   30
 Basis Dimension        Dim             ....   76

ORBITAL ENERGIES
----------------

  NO   OCC          E(Eh)            E(eV)
   0   2.0000     -19.143531      -520.9220
   1   2.0000     -10.284094      -279.8444
   2   2.0000     -10.231081      -278.4019
   3   2.0000     -10.215094      -277.9668
   4   2.0000      -1.057265       -28.7697
   5   2.0000      -0.770853       -20.9760
   6   2.0000      -0.634682       -17.2706
   7   2.0000      -0.538164       -14.6442
   8   2.0000      -0.490782       -13.3549
   9   2.0000      -0.447804       -12.1854
  10   2.0000      -0.422789       -11.5047
  11   2.0000      -0.399284       -10.8651
  12   2.0000      -0.375308       -10.2126
  13   2.0000      -0.278343        -7.5741
  14   2.0000      -0.254634        -6.9289
  15   0.0000      -0.065285        -1.7765
  16   0.0000       0.037554         1.0219
  17   0.0000       0.066162         1.8004
  18   0.0000       0.077632         2.1125
  19   0.0000       0.113307         3.0832

MULLIKEN ATOMIC CHARGES
-----------------------
   0 C :    0.151498
   1 O :   -0.173428
   2 C :   -0.088343
   3 C :   -0.003447
   4 H :   -0.008366
   5 H :   -0.005327
   6 H :    0.075465
   7 H :    0.051948
Sum of atomic charges:    0.0000000

LOEWDIN ATOMIC CHARGES
----------------------
   0 C :   -0.037798
   1 O :    0.008825
   2 C :   -0.074515
   3 C :    0.004792
   4 H :   -0.005360
   5 H :    0.016332
   6 H :    0.047055
   7 H :    0.040670

  Mayer bond orders larger than 0.100000
B(  0-C ,  1-O ) :   2.2054 B(  0-C ,  2-C ) :   1.0034 B(  0-C ,  4-H ) :   0.8936
B(  2-C ,  3-C ) :   1.9279 B(  2-C ,  5-H ) :   0.9578 B(  3-C ,  6-H ) :   0.9319
B(  3-C ,  7-H ) :   0.9495

-----------------------------------------------------------------------------
         ABSORPTION SPECTRUM VIA TRANSITION ELECTRIC DIPOLE MOMENTS
-----------------------------------------------------------------------------
State   Energy    Wavelength  fosc         T2        TX        TY        TZ
        (cm-1)      (nm)                 (au**2)    (au)      (au)      (au)
-----------------------------------------------------------------------------
   1   29169.0    342.8   0.000073186   0.00083   0.00071   0.01486  -0.02459

FINAL SINGLE POINT ENERGY      -191.655355053583

DIPOLE MOMENT
-------------
                                X             Y             Z
Electronic contribution:     -1.81656      -1.67889       0.37976
Nuclear contribution   :      2.10983       2.48206      -0.48152
                        -----------------------------------------
Total Dipole Moment    :      0.29327       0.80317      -0.10177
                        -----------------------------------------
Magnitude (a.u.)       :      0.86107
Magnitude (Debye)      :      2.18867

Rotational constants in cm-1:     0.660200     0.215675     0.163473
Rotational constants in MHz : 19792.288680  6465.769328  4900.790666

                             ****ORCA TERMINATED NORMALLY****
TOTAL RUN TIME: 0 days 0 hours 3 minutes 22 seconds 14 msec
