                         Program Version 5.0.3 -  RELEASE  -
|  1> ! B3LYP cc-pVDZ
|  2> !TightSCF
|  3> %scf
|  4>  ConvForced true
|  5>  convergence tight
|  6>  MaxIter 500
|  7> end
|  8>
|  9> %tddft
| 10>  nroots 1
| 11> end
| 12>
| 13> # 	12942
| 14> * xyz 0 1
| 15> 		C   -1.186889  -0.295578   0.040600
| 16> 		O   -1.271989  -1.439794   0.313983
| 17> 		C    0.013588   0.513787   0.181315
| 18> 		C    1.151698  -0.017006  -0.041009
| 19> 		H   -2.152545   0.230243  -0.522552
| 20> 		H   -0.120221   1.587916   0.310019
| 21> 		H    1.469632  -1.128762  -0.257854
| 22> 		H    2.158625   0.516337  -0.057206
| 23> *
| 24>
| 25>                          ****END OF INPUT****

CARTESIAN COORDINATES (ANGSTROEM)
---------------------------------
  C     -1.186889   -0.295578    0.040600
  O     -1.271989   -1.439794    0.313983
  C      0.013588    0.513787    0.181315
  C      1.151698   -0.017006   -0.041009
  H     -2.152545    0.230243   -0.522552
  H     -0.120221    1.587916    0.310019
  H      1.469632   -1.128762   -0.257854
  H      2.158625    0.516337   -0.057206

 Total Charge           Charge          ....    0
 Multiplicity           Mult            ....    1
 Number of Electrons    NEL             ....   30
 Basis Dimension        Dim             ....   76

ORBITAL ENERGIES
----------------

  NO   OCC          E(Eh)            E(eV)
   0   2.0000     -19.139768      -520.8196
   1   2.0000     -10.280223      -279.7391
   2   2.0000     -10.218105      -278.0488
   3   2.0000     -10.202655      -277.6283
   4   2.0000      -1.066106       -29.0102
   5   2.0000      -0.810723       -22.0609
   6   2.0000      -0.647380       -17.6161
   7   2.0000      -0.535907       -14.5828
   8   2.0000      -0.505372       -13.7519
   9   2.0000      -0.461730       -12.5643
  10   2.0000      -0.437177       -11.8962
  11   2.0000      -0.396933       -10.8011
  12   2.0000      -0.361374        -9.8335
  13   2.0000      -0.301622        -8.2075
  14   2.0000      -0.252806        -6.8792
  15   0.0000      -0.051757        -1.4084
  16   0.0000       0.040375         1.0987
  17   0.0000       0.068254         1.8573
  18   0.0000       0.077578         2.1110
  19   0.0000       0.104062         2.8317

MULLIKEN ATOMIC CHARGES
-----------------------
   0 C :    0.123142
   1 O :   -0.153765
   2 C :   -0.028380
   3 C :   -0.000915
   4 H :   -0.027631
   5 H :    0.001181
   6 H :    0.052268
   7 H :    0.034099
Sum of atomic charges:   -0.0000000

LOEWDIN ATOMIC CHARGES
----------------------
   0 C :   -0.056422
   1 O :    0.029458
   2 C :   -0.088705
   3 C :   -0.000896
   4 H :   -0.009875
   5 H :    0.037773
   6 H :    0.050151
   7 H :    0.038517

  Mayer bond orders larger than 0.100000
B(  0-C ,  1-O ) :   2.2487 B(  0-C ,  2-C ) :   1.0198 B(  0-C ,  4-H ) :   0.8856
B(  2-C ,  3-C ) :   1.9799 B(  2-C ,  5-H ) :   0.9304 B(  3-C ,  6-H ) :   0.9442
B(  3-C ,  7-H ) :   0.9442

-----------------------------------------------------------------------------
         ABSORPTION SPECTRUM VIA TRANSITION ELECTRIC DIPOLE MOMENTS
-----------------------------------------------------------------------------
State   Energy    Wavelength  fosc         T2        TX        TY        TZ
        (cm-1)      (nm)                 (au**2)    (au)      (au)      (au)
-----------------------------------------------------------------------------
   1   31096.4    321.6   0.000370135   0.00392   0.05262   0.00858  -0.03280

FINAL SINGLE POINT ENERGY      -191.642002899118

DIPOLE MOMENT
-------------
                                X             Y             Z
Electronic contribution:     -2.02813      -1.63434       0.75302
Nuclear contribution   :      2.54605       2.41379      -0.93818
                        -----------------------------------------
Total Dipole Moment    :      0.51792       0.77945      -0.18516
                        -----------------------------------------
Magnitude (a.u.)       :      0.95398
Magnitude (Debye)      :      2.42482

Rotational constants in cm-1:     0.793839     0.210261     0.170374
Rotational constants in MHz : 23798.709333  6303.453866  5107.675167

                             ****ORCA TERMINATED NORMALLY****
TOTAL RUN TIME: 0 days 0 hours 3 minutes 19 seconds 509 msec
