                         Program Version 5.0.3 -  RELEASE  -
|  1> ! HF-3c
|  2> !TightSCF
|  3> %scf
|  4>  ConvForced true
|  5>  convergence tight
|  6>  MaxIter 500
|  7> end
|  8>
|  9> %tddft
| 10>  nroots 1
| 11> end
| 12>
| 13> # 	13351
| 14> * xyz 0 1
| 15> 		C   -1.154906  -0.390044   0.001054
| 16> 		O   -1.903933  -0.881939  -0.907351
| 17> 		C   -0.035420   0.449447  -0.226039
| 18> 		C    1.200196   0.064674   0.155708
| 19> 		H   -1.349683  -0.520732   0.994355
| 20> 		H   -0.152308   1.390434  -0.896816
| 21> 		H    1.238418  -0.894670   0.764030
| 22> 		H    2.085554   0.738331   0.145660
| 23> *
| 24>
| 25>                          ****END OF INPUT****

CARTESIAN COORDINATES (ANGSTROEM)
---------------------------------
  C     -1.154906   -0.390044    0.001054
  O     -1.903933   -0.881939   -0.907351
  C     -0.035420    0.449447   -0.226039
  C      1.200196    0.064674    0.155708
  H     -1.349683   -0.520732    0.994355
  H     -0.152308    1.390434   -0.896816
  H      1.238418   -0.894670    0.764030
  H      2.085554    0.738331    0.145660

 Total Charge           Charge          ....    0
 Multiplicity           Mult            ....    1
 Number of Electrons    NEL             ....   30
 Basis Dimension        Dim             ....   24

ORBITAL ENERGIES
----------------

  NO   OCC          E(Eh)            E(eV)
   0   2.0000     -20.361888      -554.0751
   1   2.0000     -11.290254      -307.2234
   2   2.0000     -11.190063      -304.4971
   3   2.0000     -11.183482      -304.3180
   4   2.0000      -1.361903       -37.0593
   5   2.0000      -1.087517       -29.5929
   6   2.0000      -0.898201       -24.4413
   7   2.0000      -0.771031       -20.9808
   8   2.0000      -0.664225       -18.0745
   9   2.0000      -0.636175       -17.3112
  10   2.0000      -0.589066       -16.0293
  11   2.0000      -0.533300       -14.5118
  12   2.0000      -0.480315       -13.0700
  13   2.0000      -0.426064       -11.5938
  14   2.0000      -0.390355       -10.6221
  15   0.0000       0.133538         3.6338
  16   0.0000       0.242758         6.6058
  17   0.0000       0.557661        15.1747
  18   0.0000       0.613054        16.6820
  19   0.0000       0.626526        17.0486

MULLIKEN ATOMIC CHARGES
-----------------------
   0 C :    0.127130
   1 O :   -0.321743
   2 C :   -0.168936
   3 C :   -0.223292
   4 H :    0.143781
   5 H :    0.159944
   6 H :    0.135854
   7 H :    0.147262
Sum of atomic charges:    0.0000000

LOEWDIN ATOMIC CHARGES
----------------------
   0 C :    0.136042
   1 O :   -0.247420
   2 C :   -0.126775
   3 C :   -0.136931
   4 H :    0.074095
   5 H :    0.111755
   6 H :    0.090847
   7 H :    0.098387

  Mayer bond orders larger than 0.100000
B(  0-C ,  1-O ) :   1.9133 B(  0-C ,  2-C ) :   1.0397 B(  0-C ,  4-H ) :   0.9337
B(  2-C ,  3-C ) :   1.9620 B(  2-C ,  5-H ) :   0.9406 B(  3-C ,  6-H ) :   0.9641
B(  3-C ,  7-H ) :   0.9630

-----------------------------------------------------------------------------
         ABSORPTION SPECTRUM VIA TRANSITION ELECTRIC DIPOLE MOMENTS
-----------------------------------------------------------------------------
State   Energy    Wavelength  fosc         T2        TX        TY        TZ
        (cm-1)      (nm)                 (au**2)    (au)      (au)      (au)
-----------------------------------------------------------------------------
   1   29471.3    339.3   0.000100897   0.00113  -0.03209  -0.00949   0.00265

Dispersion correction           -0.025489797
FINAL SINGLE POINT ENERGY      -189.322948467093

DIPOLE MOMENT
-------------
                                X             Y             Z
Electronic contribution:     -2.82842      -0.98793      -1.21760
Nuclear contribution   :      3.59678       1.45595       1.89475
                        -----------------------------------------
Total Dipole Moment    :      0.76835       0.46802       0.67715
                        -----------------------------------------
Magnitude (a.u.)       :      1.12603
Magnitude (Debye)      :      2.86213

Rotational constants in cm-1:     1.183264     0.158609     0.153272
Rotational constants in MHz : 35473.368966  4754.978975  4594.968892

                             ****ORCA TERMINATED NORMALLY****
TOTAL RUN TIME: 0 days 0 hours 0 minutes 10 seconds 677 msec
