                         Program Version 5.0.3 -  RELEASE  -
|  1> ! B3LYP cc-pVDZ
|  2> !TightSCF
|  3> %scf
|  4>  ConvForced true
|  5>  convergence tight
|  6>  MaxIter 500
|  7> end
|  8>
|  9> %tddft
| 10>  nroots 1
| 11> end
| 12>
| 13> # 	9847
| 14> * xyz 0 1
| 15> 		C   -1.201460  -0.325345   0.035439
| 16> 		O   -1.490732  -1.299056   0.654530
| 17> 		C   -0.025727   0.482279   0.173975
| 18> 		C    1.190981   0.030637  -0.045984
| 19> 		H   -1.824576  -0.146452  -0.729535
| 20> 		H   -0.114682   1.584090   0.489462
| 21> 		H    1.301367  -0.984299  -0.419147
| 22> 		H    2.100417   0.647548  -0.162344
| 23> *
| 24>
| 25>                          ****END OF INPUT****

CARTESIAN COORDINATES (ANGSTROEM)
---------------------------------
  C     -1.201460   -0.325345    0.035439
  O     -1.490732   -1.299056    0.654530
  C     -0.025727    0.482279    0.173975
  C      1.190981    0.030637   -0.045984
  H     -1.824576   -0.146452   -0.729535
  H     -0.114682    1.584090    0.489462
  H      1.301367   -0.984299   -0.419147
  H      2.100417    0.647548   -0.162344

 Total Charge           Charge          ....    0
 Multiplicity           Mult            ....    1
 Number of Electrons    NEL             ....   30
 Basis Dimension        Dim             ....   76

ORBITAL ENERGIES
----------------

  NO   OCC          E(Eh)            E(eV)
   0   2.0000     -19.134863      -520.6861
   1   2.0000     -10.263175      -279.2752
   2   2.0000     -10.207030      -277.7474
   3   2.0000     -10.205792      -277.7137
   4   2.0000      -1.059123       -28.8202
   5   2.0000      -0.803988       -21.8776
   6   2.0000      -0.663200       -18.0466
   7   2.0000      -0.562077       -15.2949
   8   2.0000      -0.509316       -13.8592
   9   2.0000      -0.459189       -12.4952
  10   2.0000      -0.442954       -12.0534
  11   2.0000      -0.389243       -10.5918
  12   2.0000      -0.369568       -10.0565
  13   2.0000      -0.292250        -7.9525
  14   2.0000      -0.251677        -6.8485
  15   0.0000      -0.037408        -1.0179
  16   0.0000       0.001892         0.0515
  17   0.0000       0.077029         2.0961
  18   0.0000       0.097547         2.6544
  19   0.0000       0.117217         3.1896

MULLIKEN ATOMIC CHARGES
-----------------------
   0 C :    0.224449
   1 O :   -0.176691
   2 C :   -0.119870
   3 C :    0.035436
   4 H :   -0.045222
   5 H :    0.027064
   6 H :    0.019663
   7 H :    0.035172
Sum of atomic charges:    0.0000000

LOEWDIN ATOMIC CHARGES
----------------------
   0 C :   -0.038535
   1 O :    0.026591
   2 C :   -0.065614
   3 C :   -0.014653
   4 H :   -0.020208
   5 H :    0.049414
   6 H :    0.027227
   7 H :    0.035779

  Mayer bond orders larger than 0.100000
B(  0-C ,  1-O ) :   2.2520 B(  0-C ,  2-C ) :   1.0021 B(  0-C ,  4-H ) :   0.9373
B(  2-C ,  3-C ) :   2.0305 B(  2-C ,  5-H ) :   0.9252 B(  3-C ,  6-H ) :   0.9430
B(  3-C ,  7-H ) :   0.9460

-----------------------------------------------------------------------------
         ABSORPTION SPECTRUM VIA TRANSITION ELECTRIC DIPOLE MOMENTS
-----------------------------------------------------------------------------
State   Energy    Wavelength  fosc         T2        TX        TY        TZ
        (cm-1)      (nm)                 (au**2)    (au)      (au)      (au)
-----------------------------------------------------------------------------
   1   32526.2    307.4   0.000051870   0.00053   0.01491   0.01717  -0.00276

FINAL SINGLE POINT ENERGY      -191.631606734668

DIPOLE MOMENT
-------------
                                X             Y             Z
Electronic contribution:     -2.44287      -1.41851       1.05198
Nuclear contribution   :      2.88295       2.18430      -1.54106
                        -----------------------------------------
Total Dipole Moment    :      0.44007       0.76579      -0.48908
                        -----------------------------------------
Magnitude (a.u.)       :      1.00960
Magnitude (Debye)      :      2.56620

Rotational constants in cm-1:     0.942304     0.185388     0.164569
Rotational constants in MHz : 28249.568525  5557.787200  4933.657904

                             ****ORCA TERMINATED NORMALLY****
TOTAL RUN TIME: 0 days 0 hours 3 minutes 22 seconds 13 msec
