                         Program Version 5.0.3 -  RELEASE  -
|  1> ! HF-3c
|  2> !TightSCF
|  3> %scf
|  4>  ConvForced true
|  5>  convergence tight
|  6>  MaxIter 500
|  7> end
|  8>
|  9> %tddft
| 10>  nroots 1
| 11> end
| 12>
| 13> # 	6718
| 14> * xyz 0 1
| 15> 		C   -1.174901  -0.330046  -0.024687
| 16> 		O   -2.188469  -0.279163   0.610609
| 17> 		C   -0.012193   0.368177   0.397402
| 18> 		C    1.182461   0.155882  -0.248360
| 19> 		H   -1.051122  -1.099751  -0.936754
| 20> 		H   -0.077852   0.923732   1.272315
| 21> 		H    1.263849  -0.495378  -1.028282
| 22> 		H    2.128479   0.774187   0.018910
| 23> *
| 24>
| 25>                          ****END OF INPUT****

CARTESIAN COORDINATES (ANGSTROEM)
---------------------------------
  C     -1.174901   -0.330046   -0.024687
  O     -2.188469   -0.279163    0.610609
  C     -0.012193    0.368177    0.397402
  C      1.182461    0.155882   -0.248360
  H     -1.051122   -1.099751   -0.936754
  H     -0.077852    0.923732    1.272315
  H      1.263849   -0.495378   -1.028282
  H      2.128479    0.774187    0.018910

 Total Charge           Charge          ....    0
 Multiplicity           Mult            ....    1
 Number of Electrons    NEL             ....   30
 Basis Dimension        Dim             ....   24

ORBITAL ENERGIES
----------------

  NO   OCC          E(Eh)            E(eV)
   0   2.0000     -20.358733      -553.9893
   1   2.0000     -11.294769      -307.3463
   2   2.0000     -11.198816      -304.7353
   3   2.0000     -11.192859      -304.5732
   4   2.0000      -1.408412       -38.3248
   5   2.0000      -1.086061       -29.5532
   6   2.0000      -0.882464       -24.0131
   7   2.0000      -0.779274       -21.2051
   8   2.0000      -0.670902       -18.2562
   9   2.0000      -0.640951       -17.4412
  10   2.0000      -0.569140       -15.4871
  11   2.0000      -0.557563       -15.1721
  12   2.0000      -0.548351       -14.9214
  13   2.0000      -0.407400       -11.0859
  14   2.0000      -0.384350       -10.4587
  15   0.0000       0.120869         3.2890
  16   0.0000       0.310278         8.4431
  17   0.0000       0.539908        14.6916
  18   0.0000       0.560748        15.2587
  19   0.0000       0.682514        18.5722

MULLIKEN ATOMIC CHARGES
-----------------------
   0 C :    0.171980
   1 O :   -0.359384
   2 C :   -0.182026
   3 C :   -0.209289
   4 H :    0.131117
   5 H :    0.158229
   6 H :    0.137660
   7 H :    0.151713
Sum of atomic charges:   -0.0000000

LOEWDIN ATOMIC CHARGES
----------------------
   0 C :    0.142342
   1 O :   -0.261693
   2 C :   -0.132857
   3 C :   -0.110384
   4 H :    0.075752
   5 H :    0.098651
   6 H :    0.082769
   7 H :    0.105420

  Mayer bond orders larger than 0.100000
B(  0-C ,  1-O ) :   1.8851 B(  0-C ,  2-C ) :   1.0598 B(  0-C ,  4-H ) :   0.9117
B(  2-C ,  3-C ) :   1.9166 B(  2-C ,  5-H ) :   0.9569 B(  3-C ,  6-H ) :   0.9695
B(  3-C ,  7-H ) :   0.9642

-----------------------------------------------------------------------------
         ABSORPTION SPECTRUM VIA TRANSITION ELECTRIC DIPOLE MOMENTS
-----------------------------------------------------------------------------
State   Energy    Wavelength  fosc         T2        TX        TY        TZ
        (cm-1)      (nm)                 (au**2)    (au)      (au)      (au)
-----------------------------------------------------------------------------
   1   32625.6    306.5   0.000143843   0.00145  -0.02605   0.01838   0.02086

Dispersion correction           -0.025778752
FINAL SINGLE POINT ENERGY      -189.321641144827

DIPOLE MOMENT
-------------
                                X             Y             Z
Electronic contribution:     -3.14801      -0.22911       0.83196
Nuclear contribution   :      4.29438       0.22889      -1.33434
                        -----------------------------------------
Total Dipole Moment    :      1.14636      -0.00022      -0.50237
                        -----------------------------------------
Magnitude (a.u.)       :      1.25161
Magnitude (Debye)      :      3.18134

Rotational constants in cm-1:     1.565270     0.160584     0.145887
Rotational constants in MHz : 46925.627348  4814.198636  4373.571078

                             ****ORCA TERMINATED NORMALLY****
TOTAL RUN TIME: 0 days 0 hours 0 minutes 12 seconds 32 msec
