                         Program Version 5.0.3 -  RELEASE  -
|  1> ! HF-3c
|  2> !TightSCF
|  3> %scf
|  4>  ConvForced true
|  5>  convergence tight
|  6>  MaxIter 500
|  7> end
|  8>
|  9> %tddft
| 10>  nroots 1
| 11> end
| 12>
| 13> # 	2569
| 14> * xyz 0 1
| 15> 		C   -1.147143  -0.373756   0.037163
| 16> 		O   -1.454545  -1.255355   0.764559
| 17> 		C    0.030243   0.490751   0.183542
| 18> 		C    1.301718   0.059317  -0.178363
| 19> 		H   -2.078694   0.014438  -0.722156
| 20> 		H   -0.074181   1.503291   0.429275
| 21> 		H    1.340358  -1.138647  -0.398059
| 22> 		H    2.139664   0.729121  -0.110464
| 23> *
| 24>
| 25>                          ****END OF INPUT****

CARTESIAN COORDINATES (ANGSTROEM)
---------------------------------
  C     -1.147143   -0.373756    0.037163
  O     -1.454545   -1.255355    0.764559
  C      0.030243    0.490751    0.183542
  C      1.301718    0.059317   -0.178363
  H     -2.078694    0.014438   -0.722156
  H     -0.074181    1.503291    0.429275
  H      1.340358   -1.138647   -0.398059
  H      2.139664    0.729121   -0.110464

 Total Charge           Charge          ....    0
 Multiplicity           Mult            ....    1
 Number of Electrons    NEL             ....   30
 Basis Dimension        Dim             ....   24

ORBITAL ENERGIES
----------------

  NO   OCC          E(Eh)            E(eV)
   0   2.0000     -20.373606      -554.3940
   1   2.0000     -11.299554      -307.4765
   2   2.0000     -11.181854      -304.2737
   3   2.0000     -11.179046      -304.1973
   4   2.0000      -1.421254       -38.6743
   5   2.0000      -1.060962       -28.8702
   6   2.0000      -0.866811       -23.5871
   7   2.0000      -0.731417       -19.9029
   8   2.0000      -0.690668       -18.7940
   9   2.0000      -0.618560       -16.8319
  10   2.0000      -0.595657       -16.2087
  11   2.0000      -0.538247       -14.6464
  12   2.0000      -0.507382       -13.8066
  13   2.0000      -0.399040       -10.8584
  14   2.0000      -0.378903       -10.3105
  15   0.0000       0.165403         4.5009
  16   0.0000       0.234724         6.3872
  17   0.0000       0.491847        13.3838
  18   0.0000       0.520886        14.1740
  19   0.0000       0.654995        17.8233

MULLIKEN ATOMIC CHARGES
-----------------------
   0 C :    0.184975
   1 O :   -0.355472
   2 C :   -0.185535
   3 C :   -0.211833
   4 H :    0.127798
   5 H :    0.146359
   6 H :    0.150127
   7 H :    0.143581
Sum of atomic charges:   -0.0000000

LOEWDIN ATOMIC CHARGES
----------------------
   0 C :    0.147356
   1 O :   -0.250395
   2 C :   -0.141062
   3 C :   -0.126728
   4 H :    0.076908
   5 H :    0.092251
   6 H :    0.109145
   7 H :    0.092526

  Mayer bond orders larger than 0.100000
B(  0-C ,  1-O ) :   1.9380 B(  0-C ,  2-C ) :   1.0073 B(  0-C ,  4-H ) :   0.8956
B(  2-C ,  3-C ) :   1.9638 B(  2-C ,  5-H ) :   0.9549 B(  3-C ,  6-H ) :   0.9609
B(  3-C ,  7-H ) :   0.9656

-----------------------------------------------------------------------------
         ABSORPTION SPECTRUM VIA TRANSITION ELECTRIC DIPOLE MOMENTS
-----------------------------------------------------------------------------
State   Energy    Wavelength  fosc         T2        TX        TY        TZ
        (cm-1)      (nm)                 (au**2)    (au)      (au)      (au)
-----------------------------------------------------------------------------
   1   34931.6    286.3   0.001529968   0.01442   0.11847  -0.01165   0.01577

Dispersion correction           -0.024894584
FINAL SINGLE POINT ENERGY      -189.284903190139

DIPOLE MOMENT
-------------
                                X             Y             Z
Electronic contribution:     -2.10686      -1.47165       0.95935
Nuclear contribution   :      2.54834       2.15342      -1.54244
                        -----------------------------------------
Total Dipole Moment    :      0.44148       0.68177      -0.58309
                        -----------------------------------------
Magnitude (a.u.)       :      0.99986
Magnitude (Debye)      :      2.54143

Rotational constants in cm-1:     0.906523     0.174451     0.157135
Rotational constants in MHz : 27176.883673  5229.913830  4710.782296

                             ****ORCA TERMINATED NORMALLY****
TOTAL RUN TIME: 0 days 0 hours 0 minutes 9 seconds 556 msec
