                         Program Version 5.0.3 -  RELEASE  -
|  1> ! B3LYP cc-pVDZ
|  2> !TightSCF
|  3> %scf
|  4>  ConvForced true
|  5>  convergence tight
|  6>  MaxIter 500
|  7> end
|  8>
|  9> %tddft
| 10>  nroots 1
| 11> end
| 12>
| 13> # 	14898
| 14> * xyz 0 1
| 15> 		C   -1.186553  -0.314917   0.003940
| 16> 		O   -2.214184  -0.354752   0.653790
| 17> 		C    0.017132   0.344913   0.461307
| 18> 		C    1.200898   0.218012  -0.297108
| 19> 		H   -1.090924  -1.035906  -0.892449
| 20> 		H   -0.098770   0.824438   1.252935
| 21> 		H    1.163996  -0.354325  -1.146433
| 22> 		H    2.208960   0.573272  -0.027242
| 23> *
| 24>
| 25>                          ****END OF INPUT****

CARTESIAN COORDINATES (ANGSTROEM)
---------------------------------
  C     -1.186553   -0.314917    0.003940
  O     -2.214184   -0.354752    0.653790
  C      0.017132    0.344913    0.461307
  C      1.200898    0.218012   -0.297108
  H     -1.090924   -1.035906   -0.892449
  H     -0.098770    0.824438    1.252935
  H      1.163996   -0.354325   -1.146433
  H      2.208960    0.573272   -0.027242

 Total Charge           Charge          ....    0
 Multiplicity           Mult            ....    1
 Number of Electrons    NEL             ....   30
 Basis Dimension        Dim             ....   76

ORBITAL ENERGIES
----------------

  NO   OCC          E(Eh)            E(eV)
   0   2.0000     -19.134927      -520.6878
   1   2.0000     -10.272758      -279.5360
   2   2.0000     -10.228315      -278.3266
   3   2.0000     -10.205811      -277.7142
   4   2.0000      -1.041472       -28.3399
   5   2.0000      -0.801444       -21.8084
   6   2.0000      -0.660429       -17.9712
   7   2.0000      -0.584890       -15.9157
   8   2.0000      -0.476718       -12.9721
   9   2.0000      -0.474287       -12.9060
  10   2.0000      -0.417272       -11.3546
  11   2.0000      -0.410400       -11.1675
  12   2.0000      -0.396723       -10.7954
  13   2.0000      -0.285953        -7.7812
  14   2.0000      -0.252692        -6.8761
  15   0.0000      -0.077209        -2.1010
  16   0.0000       0.042194         1.1482
  17   0.0000       0.075305         2.0492
  18   0.0000       0.090864         2.4725
  19   0.0000       0.130733         3.5574

MULLIKEN ATOMIC CHARGES
-----------------------
   0 C :    0.141083
   1 O :   -0.203885
   2 C :    0.059440
   3 C :    0.060203
   4 H :   -0.025589
   5 H :   -0.092077
   6 H :    0.011449
   7 H :    0.049376
Sum of atomic charges:    0.0000000

LOEWDIN ATOMIC CHARGES
----------------------
   0 C :   -0.044004
   1 O :   -0.010455
   2 C :   -0.006722
   3 C :    0.041549
   4 H :   -0.004184
   5 H :   -0.022974
   6 H :    0.010385
   7 H :    0.036406

  Mayer bond orders larger than 0.100000
B(  0-C ,  1-O ) :   2.1281 B(  0-C ,  2-C ) :   1.1158 B(  0-C ,  4-H ) :   0.9149
B(  1-O ,  3-C ) :   0.1150 B(  2-C ,  3-C ) :   1.8829 B(  2-C ,  5-H ) :   0.9581
B(  3-C ,  6-H ) :   0.9442 B(  3-C ,  7-H ) :   0.9575

-----------------------------------------------------------------------------
         ABSORPTION SPECTRUM VIA TRANSITION ELECTRIC DIPOLE MOMENTS
-----------------------------------------------------------------------------
State   Energy    Wavelength  fosc         T2        TX        TY        TZ
        (cm-1)      (nm)                 (au**2)    (au)      (au)      (au)
-----------------------------------------------------------------------------
   1   26362.7    379.3   0.000074096   0.00093   0.02249  -0.02037  -0.00215

FINAL SINGLE POINT ENERGY      -191.656378374328

DIPOLE MOMENT
-------------
                                X             Y             Z
Electronic contribution:     -3.07841      -0.04716       1.13419
Nuclear contribution   :      4.22278       0.18249      -1.53678
                        -----------------------------------------
Total Dipole Moment    :      1.14437       0.13533      -0.40259
                        -----------------------------------------
Magnitude (a.u.)       :      1.22064
Magnitude (Debye)      :      3.10263

Rotational constants in cm-1:     1.627689     0.153674     0.140629
Rotational constants in MHz : 48796.889478  4607.022454  4215.941961

                             ****ORCA TERMINATED NORMALLY****
TOTAL RUN TIME: 0 days 0 hours 3 minutes 9 seconds 331 msec
