                         Program Version 5.0.3 -  RELEASE  -
|  1> ! HF-3c
|  2> !TightSCF
|  3> %scf
|  4>  ConvForced true
|  5>  convergence tight
|  6>  MaxIter 500
|  7> end
|  8>
|  9> %tddft
| 10>  nroots 1
| 11> end
| 12>
| 13> # 	28243
| 14> * xyz 0 1
| 15> 		C   -0.534102  -0.405397  -0.021906
| 16> 		O   -0.603549  -1.676459  -0.007015
| 17> 		C    0.633684   0.433148  -0.028445
| 18> 		C    1.826115  -0.132176   0.067177
| 19> 		H   -1.444975   0.146680   0.286343
| 20> 		H    0.526114   1.566955   0.006876
| 21> 		H    1.997059  -1.174458  -0.058439
| 22> 		H    2.564485   0.578946  -0.345624
| 23> *
| 24>
| 25>                          ****END OF INPUT****

CARTESIAN COORDINATES (ANGSTROEM)
---------------------------------
  C     -0.534102   -0.405397   -0.021906
  O     -0.603549   -1.676459   -0.007015
  C      0.633684    0.433148   -0.028445
  C      1.826115   -0.132176    0.067177
  H     -1.444975    0.146680    0.286343
  H      0.526114    1.566955    0.006876
  H      1.997059   -1.174458   -0.058439
  H      2.564485    0.578946   -0.345624

 Total Charge           Charge          ....    0
 Multiplicity           Mult            ....    1
 Number of Electrons    NEL             ....   30
 Basis Dimension        Dim             ....   24

ORBITAL ENERGIES
----------------

  NO   OCC          E(Eh)            E(eV)
   0   2.0000     -20.348029      -553.6980
   1   2.0000     -11.278058      -306.8916
   2   2.0000     -11.195474      -304.6443
   3   2.0000     -11.189574      -304.4838
   4   2.0000      -1.355024       -36.8721
   5   2.0000      -1.095389       -29.8070
   6   2.0000      -0.902058       -24.5462
   7   2.0000      -0.737220       -20.0608
   8   2.0000      -0.699431       -19.0325
   9   2.0000      -0.609930       -16.5970
  10   2.0000      -0.574363       -15.6292
  11   2.0000      -0.531385       -14.4597
  12   2.0000      -0.513705       -13.9786
  13   2.0000      -0.416049       -11.3213
  14   2.0000      -0.385362       -10.4862
  15   0.0000       0.108112         2.9419
  16   0.0000       0.296450         8.0668
  17   0.0000       0.540946        14.7199
  18   0.0000       0.608637        16.5619
  19   0.0000       0.670613        18.2483

MULLIKEN ATOMIC CHARGES
-----------------------
   0 C :    0.141575
   1 O :   -0.340416
   2 C :   -0.171169
   3 C :   -0.224649
   4 H :    0.131048
   5 H :    0.150759
   6 H :    0.162046
   7 H :    0.150807
Sum of atomic charges:   -0.0000000

LOEWDIN ATOMIC CHARGES
----------------------
   0 C :    0.137999
   1 O :   -0.265183
   2 C :   -0.125877
   3 C :   -0.125854
   4 H :    0.070383
   5 H :    0.101190
   6 H :    0.105163
   7 H :    0.102178

  Mayer bond orders larger than 0.100000
B(  0-C ,  1-O ) :   1.8827 B(  0-C ,  2-C ) :   1.0584 B(  0-C ,  4-H ) :   0.9333
B(  2-C ,  3-C ) :   1.9220 B(  2-C ,  5-H ) :   0.9544 B(  3-C ,  6-H ) :   0.9582
B(  3-C ,  7-H ) :   0.9597

-----------------------------------------------------------------------------
         ABSORPTION SPECTRUM VIA TRANSITION ELECTRIC DIPOLE MOMENTS
-----------------------------------------------------------------------------
State   Energy    Wavelength  fosc         T2        TX        TY        TZ
        (cm-1)      (nm)                 (au**2)    (au)      (au)      (au)
-----------------------------------------------------------------------------
   1   27677.4    361.3   0.000112324   0.00134  -0.02193  -0.00241  -0.02915

Dispersion correction           -0.025965890
FINAL SINGLE POINT ENERGY      -189.331831105305

DIPOLE MOMENT
-------------
                                X             Y             Z
Electronic contribution:     -1.87487      -1.79364       0.04277
Nuclear contribution   :      2.25640       2.83516      -0.10263
                        -----------------------------------------
Total Dipole Moment    :      0.38153       1.04152      -0.05985
                        -----------------------------------------
Magnitude (a.u.)       :      1.11082
Magnitude (Debye)      :      2.82347

Rotational constants in cm-1:     0.752775     0.208754     0.164314
Rotational constants in MHz : 22567.613837  6258.272804  4926.002565

                             ****ORCA TERMINATED NORMALLY****
TOTAL RUN TIME: 0 days 0 hours 0 minutes 11 seconds 437 msec
