                         Program Version 5.0.3 -  RELEASE  -
|  1> ! B3LYP cc-pVDZ
|  2> !TightSCF
|  3> %scf
|  4>  ConvForced true
|  5>  convergence tight
|  6>  MaxIter 500
|  7> end
|  8>
|  9> %tddft
| 10>  nroots 1
| 11> end
| 12>
| 13> # 	10377
| 14> * xyz 0 1
| 15> 		C   -1.173262  -0.422298   0.083940
| 16> 		O   -2.152854  -0.457525   0.788640
| 17> 		C    0.079222   0.323645   0.339078
| 18> 		C    1.171474   0.208372  -0.343373
| 19> 		H   -1.171721  -0.892888  -0.938866
| 20> 		H   -0.005827   1.043485   1.311332
| 21> 		H    1.270310  -0.541353  -1.295298
| 22> 		H    1.980359   0.786524   0.009017
| 23> *
| 24>
| 25>                          ****END OF INPUT****

CARTESIAN COORDINATES (ANGSTROEM)
---------------------------------
  C     -1.173262   -0.422298    0.083940
  O     -2.152854   -0.457525    0.788640
  C      0.079222    0.323645    0.339078
  C      1.171474    0.208372   -0.343373
  H     -1.171721   -0.892888   -0.938866
  H     -0.005827    1.043485    1.311332
  H      1.270310   -0.541353   -1.295298
  H      1.980359    0.786524    0.009017

 Total Charge           Charge          ....    0
 Multiplicity           Mult            ....    1
 Number of Electrons    NEL             ....   30
 Basis Dimension        Dim             ....   76

ORBITAL ENERGIES
----------------

  NO   OCC          E(Eh)            E(eV)
   0   2.0000     -19.142294      -520.8883
   1   2.0000     -10.277170      -279.6560
   2   2.0000     -10.221672      -278.1458
   3   2.0000     -10.212793      -277.9042
   4   2.0000      -1.049577       -28.5605
   5   2.0000      -0.810082       -22.0435
   6   2.0000      -0.650110       -17.6904
   7   2.0000      -0.550427       -14.9779
   8   2.0000      -0.477586       -12.9958
   9   2.0000      -0.467928       -12.7330
  10   2.0000      -0.425143       -11.5687
  11   2.0000      -0.400779       -10.9057
  12   2.0000      -0.371399       -10.1063
  13   2.0000      -0.302934        -8.2433
  14   2.0000      -0.256419        -6.9775
  15   0.0000      -0.062973        -1.7136
  16   0.0000       0.049943         1.3590
  17   0.0000       0.055904         1.5212
  18   0.0000       0.070112         1.9079
  19   0.0000       0.114230         3.1084

MULLIKEN ATOMIC CHARGES
-----------------------
   0 C :    0.178824
   1 O :   -0.186395
   2 C :   -0.135086
   3 C :    0.060478
   4 H :   -0.032048
   5 H :    0.029698
   6 H :    0.055978
   7 H :    0.028552
Sum of atomic charges:   -0.0000000

LOEWDIN ATOMIC CHARGES
----------------------
   0 C :   -0.042496
   1 O :    0.006732
   2 C :   -0.081299
   3 C :   -0.010772
   4 H :   -0.009531
   5 H :    0.051857
   6 H :    0.055582
   7 H :    0.029928

  Mayer bond orders larger than 0.100000
B(  0-C ,  1-O ) :   2.1838 B(  0-C ,  2-C ) :   1.0689 B(  0-C ,  4-H ) :   0.9105
B(  2-C ,  3-C ) :   1.9607 B(  2-C ,  5-H ) :   0.9240 B(  3-C ,  6-H ) :   0.9267
B(  3-C ,  7-H ) :   0.9159

-----------------------------------------------------------------------------
         ABSORPTION SPECTRUM VIA TRANSITION ELECTRIC DIPOLE MOMENTS
-----------------------------------------------------------------------------
State   Energy    Wavelength  fosc         T2        TX        TY        TZ
        (cm-1)      (nm)                 (au**2)    (au)      (au)      (au)
-----------------------------------------------------------------------------
   1   29346.9    340.8   0.000170163   0.00191  -0.02535   0.01339  -0.03297

FINAL SINGLE POINT ENERGY      -191.658140344494

DIPOLE MOMENT
-------------
                                X             Y             Z
Electronic contribution:     -3.00864      -0.57394       1.23011
Nuclear contribution   :      4.02479       0.74107      -1.69593
                        -----------------------------------------
Total Dipole Moment    :      1.01615       0.16713      -0.46582
                        -----------------------------------------
Magnitude (a.u.)       :      1.13026
Magnitude (Debye)      :      2.87288

Rotational constants in cm-1:     1.569798     0.153457     0.140199
Rotational constants in MHz : 47061.351499  4600.538242  4203.069866

                             ****ORCA TERMINATED NORMALLY****
TOTAL RUN TIME: 0 days 0 hours 3 minutes 16 seconds 238 msec
