                         Program Version 5.0.3 -  RELEASE  -
|  1> ! HF-3c
|  2> !TightSCF
|  3> %scf
|  4>  ConvForced true
|  5>  convergence tight
|  6>  MaxIter 500
|  7> end
|  8>
|  9> %tddft
| 10>  nroots 1
| 11> end
| 12>
| 13> # 	19627
| 14> * xyz 0 1
| 15> 		C   -1.183332  -0.426796  -0.109355
| 16> 		O   -1.464096  -1.474561  -0.709825
| 17> 		C    0.055362   0.415769  -0.244395
| 18> 		C    1.244768   0.017488   0.073387
| 19> 		H   -1.972839   0.095523   0.625101
| 20> 		H   -0.057993   1.673052  -0.461168
| 21> 		H    1.285381  -1.019523   0.537233
| 22> 		H    2.101671   0.809530   0.238513
| 23> *
| 24>
| 25>                          ****END OF INPUT****

CARTESIAN COORDINATES (ANGSTROEM)
---------------------------------
  C     -1.183332   -0.426796   -0.109355
  O     -1.464096   -1.474561   -0.709825
  C      0.055362    0.415769   -0.244395
  C      1.244768    0.017488    0.073387
  H     -1.972839    0.095523    0.625101
  H     -0.057993    1.673052   -0.461168
  H      1.285381   -1.019523    0.537233
  H      2.101671    0.809530    0.238513

 Total Charge           Charge          ....    0
 Multiplicity           Mult            ....    1
 Number of Electrons    NEL             ....   30
 Basis Dimension        Dim             ....   24

ORBITAL ENERGIES
----------------

  NO   OCC          E(Eh)            E(eV)
   0   2.0000     -20.364199      -554.1380
   1   2.0000     -11.291614      -307.2604
   2   2.0000     -11.184432      -304.3439
   3   2.0000     -11.175068      -304.0891
   4   2.0000      -1.378903       -37.5219
   5   2.0000      -1.075527       -29.2666
   6   2.0000      -0.867186       -23.5973
   7   2.0000      -0.709286       -19.3006
   8   2.0000      -0.667786       -18.1714
   9   2.0000      -0.598918       -16.2974
  10   2.0000      -0.591372       -16.0921
  11   2.0000      -0.514206       -13.9923
  12   2.0000      -0.481181       -13.0936
  13   2.0000      -0.407614       -11.0917
  14   2.0000      -0.395925       -10.7737
  15   0.0000       0.161842         4.4039
  16   0.0000       0.257946         7.0191
  17   0.0000       0.464801        12.6479
  18   0.0000       0.516670        14.0593
  19   0.0000       0.576951        15.6996

MULLIKEN ATOMIC CHARGES
-----------------------
   0 C :    0.171411
   1 O :   -0.346320
   2 C :   -0.158107
   3 C :   -0.236748
   4 H :    0.133823
   5 H :    0.146624
   6 H :    0.143194
   7 H :    0.146123
Sum of atomic charges:    0.0000000

LOEWDIN ATOMIC CHARGES
----------------------
   0 C :    0.152776
   1 O :   -0.259237
   2 C :   -0.126859
   3 C :   -0.155822
   4 H :    0.079508
   5 H :    0.109454
   6 H :    0.097026
   7 H :    0.103154

  Mayer bond orders larger than 0.100000
B(  0-C ,  1-O ) :   1.9357 B(  0-C ,  2-C ) :   1.0005 B(  0-C ,  4-H ) :   0.9102
B(  2-C ,  3-C ) :   1.9859 B(  2-C ,  5-H ) :   0.9369 B(  3-C ,  6-H ) :   0.9570
B(  3-C ,  7-H ) :   0.9562

-----------------------------------------------------------------------------
         ABSORPTION SPECTRUM VIA TRANSITION ELECTRIC DIPOLE MOMENTS
-----------------------------------------------------------------------------
State   Energy    Wavelength  fosc         T2        TX        TY        TZ
        (cm-1)      (nm)                 (au**2)    (au)      (au)      (au)
-----------------------------------------------------------------------------
   1   32993.2    303.1   0.000399722   0.00399  -0.05778  -0.02485   0.00572

Dispersion correction           -0.024696986
FINAL SINGLE POINT ENERGY      -189.291872818924

DIPOLE MOMENT
-------------
                                X             Y             Z
Electronic contribution:     -2.26570      -1.91308      -1.17478
Nuclear contribution   :      2.63868       2.91497       1.79688
                        -----------------------------------------
Total Dipole Moment    :      0.37298       1.00190       0.62210
                        -----------------------------------------
Magnitude (a.u.)       :      1.23690
Magnitude (Debye)      :      3.14395

Rotational constants in cm-1:     0.893194     0.171899     0.152448
Rotational constants in MHz : 26777.286556  5153.407534  4570.274403

                             ****ORCA TERMINATED NORMALLY****
TOTAL RUN TIME: 0 days 0 hours 0 minutes 10 seconds 438 msec
