                         Program Version 5.0.3 -  RELEASE  -
|  1> ! B3LYP cc-pVDZ
|  2> !TightSCF
|  3> %scf
|  4>  ConvForced true
|  5>  convergence tight
|  6>  MaxIter 500
|  7> end
|  8>
|  9> %tddft
| 10>  nroots 1
| 11> end
| 12>
| 13> # 	23218
| 14> * xyz 0 1
| 15> 		C   -0.594302  -0.393120  -0.054028
| 16> 		O   -0.502787  -1.561310   0.031996
| 17> 		C    0.570644   0.376390   0.011999
| 18> 		C    1.796524  -0.223838  -0.011061
| 19> 		H   -1.467151   0.143812  -0.020343
| 20> 		H    0.403381   1.600422   0.209180
| 21> 		H    2.006609  -1.240339  -0.116337
| 22> 		H    2.843105   0.446530   0.067554
| 23> *
| 24>
| 25>                          ****END OF INPUT****

CARTESIAN COORDINATES (ANGSTROEM)
---------------------------------
  C     -0.594302   -0.393120   -0.054028
  O     -0.502787   -1.561310    0.031996
  C      0.570644    0.376390    0.011999
  C      1.796524   -0.223838   -0.011061
  H     -1.467151    0.143812   -0.020343
  H      0.403381    1.600422    0.209180
  H      2.006609   -1.240339   -0.116337
  H      2.843105    0.446530    0.067554

 Total Charge           Charge          ....    0
 Multiplicity           Mult            ....    1
 Number of Electrons    NEL             ....   30
 Basis Dimension        Dim             ....   76

ORBITAL ENERGIES
----------------

  NO   OCC          E(Eh)            E(eV)
   0   2.0000     -19.129518      -520.5407
   1   2.0000     -10.256059      -279.0816
   2   2.0000     -10.225257      -278.2434
   3   2.0000     -10.210693      -277.8471
   4   2.0000      -1.066131       -29.0109
   5   2.0000      -0.788203       -21.4481
   6   2.0000      -0.668656       -18.1951
   7   2.0000      -0.548616       -14.9286
   8   2.0000      -0.499944       -13.6042
   9   2.0000      -0.453431       -12.3385
  10   2.0000      -0.414970       -11.2919
  11   2.0000      -0.406758       -11.0684
  12   2.0000      -0.365724        -9.9519
  13   2.0000      -0.281159        -7.6507
  14   2.0000      -0.253328        -6.8934
  15   0.0000      -0.072384        -1.9697
  16   0.0000       0.042051         1.1443
  17   0.0000       0.072943         1.9849
  18   0.0000       0.082546         2.2462
  19   0.0000       0.127148         3.4599

MULLIKEN ATOMIC CHARGES
-----------------------
   0 C :    0.255209
   1 O :   -0.173453
   2 C :   -0.172352
   3 C :    0.041127
   4 H :   -0.058385
   5 H :    0.025266
   6 H :    0.030006
   7 H :    0.052583
Sum of atomic charges:    0.0000000

LOEWDIN ATOMIC CHARGES
----------------------
   0 C :   -0.076832
   1 O :    0.034368
   2 C :   -0.092058
   3 C :    0.035408
   4 H :   -0.017549
   5 H :    0.047706
   6 H :    0.016407
   7 H :    0.052551

  Mayer bond orders larger than 0.100000
B(  0-C ,  1-O ) :   2.2198 B(  0-C ,  2-C ) :   1.1030 B(  0-C ,  4-H ) :   0.9258
B(  1-O ,  3-C ) :   0.1183 B(  2-C ,  3-C ) :   1.9197 B(  2-C ,  5-H ) :   0.9248
B(  3-C ,  6-H ) :   0.9437 B(  3-C ,  7-H ) :   0.9470

-----------------------------------------------------------------------------
         ABSORPTION SPECTRUM VIA TRANSITION ELECTRIC DIPOLE MOMENTS
-----------------------------------------------------------------------------
State   Energy    Wavelength  fosc         T2        TX        TY        TZ
        (cm-1)      (nm)                 (au**2)    (au)      (au)      (au)
-----------------------------------------------------------------------------
   1   27086.2    369.2   0.000308751   0.00375  -0.05497  -0.00396  -0.02674

FINAL SINGLE POINT ENERGY      -191.640711443905

DIPOLE MOMENT
-------------
                                X             Y             Z
Electronic contribution:     -2.09280      -1.92109      -0.15881
Nuclear contribution   :      2.39761       2.67698       0.13083
                        -----------------------------------------
Total Dipole Moment    :      0.30481       0.75590      -0.02797
                        -----------------------------------------
Magnitude (a.u.)       :      0.81552
Magnitude (Debye)      :      2.07288

Rotational constants in cm-1:     0.721665     0.234847     0.177624
Rotational constants in MHz : 21634.962571  7040.528874  5325.039112

                             ****ORCA TERMINATED NORMALLY****
TOTAL RUN TIME: 0 days 0 hours 3 minutes 20 seconds 802 msec
