                         Program Version 5.0.3 -  RELEASE  -
|  1> ! B3LYP cc-pVDZ
|  2> !TightSCF
|  3> %scf
|  4>  ConvForced true
|  5>  convergence tight
|  6>  MaxIter 500
|  7> end
|  8>
|  9> %tddft
| 10>  nroots 1
| 11> end
| 12>
| 13> # 	20015
| 14> * xyz 0 1
| 15> 		C   -0.579816  -0.454861   0.020062
| 16> 		O   -0.621598  -1.705305   0.004228
| 17> 		C    0.625308   0.496776   0.005251
| 18> 		C    1.918834  -0.099215  -0.029870
| 19> 		H   -1.634787  -0.024061  -0.188390
| 20> 		H    0.551999   1.620440   0.014204
| 21> 		H    1.915907  -1.242242  -0.038977
| 22> 		H    2.641058   0.610313   0.215871
| 23> *
| 24>
| 25>                          ****END OF INPUT****

CARTESIAN COORDINATES (ANGSTROEM)
---------------------------------
  C     -0.579816   -0.454861    0.020062
  O     -0.621598   -1.705305    0.004228
  C      0.625308    0.496776    0.005251
  C      1.918834   -0.099215   -0.029870
  H     -1.634787   -0.024061   -0.188390
  H      0.551999    1.620440    0.014204
  H      1.915907   -1.242242   -0.038977
  H      2.641058    0.610313    0.215871

 Total Charge           Charge          ....    0
 Multiplicity           Mult            ....    1
 Number of Electrons    NEL             ....   30
 Basis Dimension        Dim             ....   76

ORBITAL ENERGIES
----------------

  NO   OCC          E(Eh)            E(eV)
   0   2.0000     -19.141867      -520.8767
   1   2.0000     -10.286412      -279.9075
   2   2.0000     -10.227365      -278.3007
   3   2.0000     -10.226311      -278.2721
   4   2.0000      -1.025319       -27.9003
   5   2.0000      -0.780977       -21.2515
   6   2.0000      -0.646342       -17.5879
   7   2.0000      -0.536280       -14.5929
   8   2.0000      -0.506024       -13.7696
   9   2.0000      -0.433744       -11.8028
  10   2.0000      -0.413860       -11.2617
  11   2.0000      -0.392735       -10.6869
  12   2.0000      -0.381762       -10.3883
  13   2.0000      -0.280276        -7.6267
  14   2.0000      -0.252348        -6.8667
  15   0.0000      -0.082839        -2.2542
  16   0.0000       0.036317         0.9882
  17   0.0000       0.063199         1.7197
  18   0.0000       0.085107         2.3159
  19   0.0000       0.107843         2.9346

MULLIKEN ATOMIC CHARGES
-----------------------
   0 C :    0.177660
   1 O :   -0.221481
   2 C :   -0.147146
   3 C :    0.070089
   4 H :    0.000316
   5 H :    0.023729
   6 H :    0.069378
   7 H :    0.027456
Sum of atomic charges:    0.0000000

LOEWDIN ATOMIC CHARGES
----------------------
   0 C :   -0.015433
   1 O :   -0.046220
   2 C :   -0.077127
   3 C :    0.029842
   4 H :    0.001516
   5 H :    0.037112
   6 H :    0.050866
   7 H :    0.019444

  Mayer bond orders larger than 0.100000
B(  0-C ,  1-O ) :   2.1244 B(  0-C ,  2-C ) :   1.0159 B(  0-C ,  4-H ) :   0.9237
B(  2-C ,  3-C ) :   1.9226 B(  2-C ,  5-H ) :   0.9491 B(  3-C ,  6-H ) :   0.9326
B(  3-C ,  7-H ) :   0.9434

-----------------------------------------------------------------------------
         ABSORPTION SPECTRUM VIA TRANSITION ELECTRIC DIPOLE MOMENTS
-----------------------------------------------------------------------------
State   Energy    Wavelength  fosc         T2        TX        TY        TZ
        (cm-1)      (nm)                 (au**2)    (au)      (au)      (au)
-----------------------------------------------------------------------------
   1   24853.0    402.4   0.000158756   0.00210  -0.00779   0.00654   0.04472

FINAL SINGLE POINT ENERGY      -191.666499799458

DIPOLE MOMENT
-------------
                                X             Y             Z
Electronic contribution:     -1.63060      -1.72834       0.03863
Nuclear contribution   :      2.09768       2.69395       0.00155
                        -----------------------------------------
Total Dipole Moment    :      0.46708       0.96561       0.04018
                        -----------------------------------------
Magnitude (a.u.)       :      1.07340
Magnitude (Debye)      :      2.72836

Rotational constants in cm-1:     0.718952     0.191458     0.151468
Rotational constants in MHz : 21553.625734  5739.779616  4540.894527

                             ****ORCA TERMINATED NORMALLY****
TOTAL RUN TIME: 0 days 0 hours 3 minutes 19 seconds 14 msec
