                         Program Version 5.0.3 -  RELEASE  -
|  1> ! B3LYP cc-pVDZ
|  2> !TightSCF
|  3> %scf
|  4>  ConvForced true
|  5>  convergence tight
|  6>  MaxIter 500
|  7> end
|  8>
|  9> %tddft
| 10>  nroots 1
| 11> end
| 12>
| 13> # 	11227
| 14> * xyz 0 1
| 15> 		C   -1.240067  -0.293454   0.063401
| 16> 		O   -1.544410  -1.239216   0.743407
| 17> 		C    0.021667   0.452805   0.200673
| 18> 		C    1.177163   0.018229  -0.130410
| 19> 		H   -1.781319  -0.087503  -0.922740
| 20> 		H   -0.049335   1.499093   0.498684
| 21> 		H    1.303464  -0.932510  -0.442778
| 22> 		H    2.042092   0.545708   0.009803
| 23> *
| 24>
| 25>                          ****END OF INPUT****

CARTESIAN COORDINATES (ANGSTROEM)
---------------------------------
  C     -1.240067   -0.293454    0.063401
  O     -1.544410   -1.239216    0.743407
  C      0.021667    0.452805    0.200673
  C      1.177163    0.018229   -0.130410
  H     -1.781319   -0.087503   -0.922740
  H     -0.049335    1.499093    0.498684
  H      1.303464   -0.932510   -0.442778
  H      2.042092    0.545708    0.009803

 Total Charge           Charge          ....    0
 Multiplicity           Mult            ....    1
 Number of Electrons    NEL             ....   30
 Basis Dimension        Dim             ....   76

ORBITAL ENERGIES
----------------

  NO   OCC          E(Eh)            E(eV)
   0   2.0000     -19.147051      -521.0177
   1   2.0000     -10.282751      -279.8079
   2   2.0000     -10.197487      -277.4877
   3   2.0000     -10.183160      -277.0979
   4   2.0000      -1.056660       -28.7532
   5   2.0000      -0.810908       -22.0659
   6   2.0000      -0.660892       -17.9838
   7   2.0000      -0.557437       -15.1686
   8   2.0000      -0.504816       -13.7367
   9   2.0000      -0.468114       -12.7380
  10   2.0000      -0.448308       -12.1991
  11   2.0000      -0.395976       -10.7750
  12   2.0000      -0.373793       -10.1714
  13   2.0000      -0.295597        -8.0436
  14   2.0000      -0.256782        -6.9874
  15   0.0000      -0.037532        -1.0213
  16   0.0000       0.003917         0.1066
  17   0.0000       0.083192         2.2638
  18   0.0000       0.098904         2.6913
  19   0.0000       0.111754         3.0410

MULLIKEN ATOMIC CHARGES
-----------------------
   0 C :    0.154575
   1 O :   -0.171790
   2 C :   -0.102535
   3 C :    0.143305
   4 H :   -0.004967
   5 H :    0.001433
   6 H :   -0.019382
   7 H :   -0.000638
Sum of atomic charges:    0.0000000

LOEWDIN ATOMIC CHARGES
----------------------
   0 C :   -0.026996
   1 O :    0.018210
   2 C :   -0.056647
   3 C :   -0.000412
   4 H :   -0.000851
   5 H :    0.036697
   6 H :    0.010102
   7 H :    0.019897

  Mayer bond orders larger than 0.100000
B(  0-C ,  1-O ) :   2.2374 B(  0-C ,  2-C ) :   0.9798 B(  0-C ,  4-H ) :   0.9059
B(  2-C ,  3-C ) :   2.0882 B(  2-C ,  5-H ) :   0.9216 B(  3-C ,  6-H ) :   0.9362
B(  3-C ,  7-H ) :   0.9350

-----------------------------------------------------------------------------
         ABSORPTION SPECTRUM VIA TRANSITION ELECTRIC DIPOLE MOMENTS
-----------------------------------------------------------------------------
State   Energy    Wavelength  fosc         T2        TX        TY        TZ
        (cm-1)      (nm)                 (au**2)    (au)      (au)      (au)
-----------------------------------------------------------------------------
   1   32778.5    305.1   0.000300219   0.00302  -0.01133   0.00193  -0.05369

FINAL SINGLE POINT ENERGY      -191.632139650467

DIPOLE MOMENT
-------------
                                X             Y             Z
Electronic contribution:     -2.52859      -1.37432       1.19938
Nuclear contribution   :      2.98952       2.06268      -1.64214
                        -----------------------------------------
Total Dipole Moment    :      0.46092       0.68836      -0.44277
                        -----------------------------------------
Magnitude (a.u.)       :      0.93933
Magnitude (Debye)      :      2.38758

Rotational constants in cm-1:     0.962757     0.180033     0.163887
Rotational constants in MHz : 28862.734847  5397.248898  4913.213740

                             ****ORCA TERMINATED NORMALLY****
TOTAL RUN TIME: 0 days 0 hours 3 minutes 22 seconds 627 msec
