                         Program Version 5.0.3 -  RELEASE  -
|  1> ! HF-3c
|  2> !TightSCF
|  3> %scf
|  4>  ConvForced true
|  5>  convergence tight
|  6>  MaxIter 500
|  7> end
|  8>
|  9> %tddft
| 10>  nroots 1
| 11> end
| 12>
| 13> # 	17490
| 14> * xyz 0 1
| 15> 		C   -1.161090  -0.261621  -0.009571
| 16> 		O   -1.632536  -1.038309  -0.759529
| 17> 		C    0.022701   0.594098  -0.208095
| 18> 		C    1.208824   0.004649   0.098757
| 19> 		H   -1.768352  -0.227999   1.025948
| 20> 		H   -0.150412   1.487904  -0.779493
| 21> 		H    1.175064  -1.028223   0.547694
| 22> 		H    2.337421   0.542646   0.014263
| 23> *
| 24>
| 25>                          ****END OF INPUT****

CARTESIAN COORDINATES (ANGSTROEM)
---------------------------------
  C     -1.161090   -0.261621   -0.009571
  O     -1.632536   -1.038309   -0.759529
  C      0.022701    0.594098   -0.208095
  C      1.208824    0.004649    0.098757
  H     -1.768352   -0.227999    1.025948
  H     -0.150412    1.487904   -0.779493
  H      1.175064   -1.028223    0.547694
  H      2.337421    0.542646    0.014263

 Total Charge           Charge          ....    0
 Multiplicity           Mult            ....    1
 Number of Electrons    NEL             ....   30
 Basis Dimension        Dim             ....   24

ORBITAL ENERGIES
----------------

  NO   OCC          E(Eh)            E(eV)
   0   2.0000     -20.370971      -554.3223
   1   2.0000     -11.295717      -307.3721
   2   2.0000     -11.186035      -304.3875
   3   2.0000     -11.183273      -304.3123
   4   2.0000      -1.423866       -38.7454
   5   2.0000      -1.069629       -29.1061
   6   2.0000      -0.853978       -23.2379
   7   2.0000      -0.748997       -20.3812
   8   2.0000      -0.676718       -18.4144
   9   2.0000      -0.619112       -16.8469
  10   2.0000      -0.598861       -16.2958
  11   2.0000      -0.527896       -14.3648
  12   2.0000      -0.511372       -13.9151
  13   2.0000      -0.398478       -10.8431
  14   2.0000      -0.385981       -10.5031
  15   0.0000       0.197531         5.3751
  16   0.0000       0.215259         5.8575
  17   0.0000       0.490417        13.3449
  18   0.0000       0.545971        14.8566
  19   0.0000       0.592476        16.1221

MULLIKEN ATOMIC CHARGES
-----------------------
   0 C :    0.184014
   1 O :   -0.358062
   2 C :   -0.191404
   3 C :   -0.200687
   4 H :    0.125880
   5 H :    0.155328
   6 H :    0.136752
   7 H :    0.148179
Sum of atomic charges:   -0.0000000

LOEWDIN ATOMIC CHARGES
----------------------
   0 C :    0.150043
   1 O :   -0.252717
   2 C :   -0.146299
   3 C :   -0.122052
   4 H :    0.069741
   5 H :    0.101772
   6 H :    0.090457
   7 H :    0.109056

  Mayer bond orders larger than 0.100000
B(  0-C ,  1-O ) :   1.9467 B(  0-C ,  2-C ) :   0.9878 B(  0-C ,  4-H ) :   0.9059
B(  2-C ,  3-C ) :   1.9835 B(  2-C ,  5-H ) :   0.9508 B(  3-C ,  6-H ) :   0.9635
B(  3-C ,  7-H ) :   0.9562

-----------------------------------------------------------------------------
         ABSORPTION SPECTRUM VIA TRANSITION ELECTRIC DIPOLE MOMENTS
-----------------------------------------------------------------------------
State   Energy    Wavelength  fosc         T2        TX        TY        TZ
        (cm-1)      (nm)                 (au**2)    (au)      (au)      (au)
-----------------------------------------------------------------------------
   1   36138.7    276.7   0.000031666   0.00029  -0.00365   0.01652  -0.00150

Dispersion correction           -0.025008905
FINAL SINGLE POINT ENERGY      -189.283501488512

DIPOLE MOMENT
-------------
                                X             Y             Z
Electronic contribution:     -2.40488      -0.93193      -1.04141
Nuclear contribution   :      3.06143       1.50286       1.60501
                        -----------------------------------------
Total Dipole Moment    :      0.65655       0.57093       0.56360
                        -----------------------------------------
Magnitude (a.u.)       :      1.03666
Magnitude (Debye)      :      2.63499

Rotational constants in cm-1:     0.918485     0.175223     0.163314
Rotational constants in MHz : 27535.497216  5253.059598  4896.038163

                             ****ORCA TERMINATED NORMALLY****
TOTAL RUN TIME: 0 days 0 hours 0 minutes 11 seconds 636 msec
