                         Program Version 5.0.3 -  RELEASE  -
|  1> ! B3LYP cc-pVDZ
|  2> !TightSCF
|  3> %scf
|  4>  ConvForced true
|  5>  convergence tight
|  6>  MaxIter 500
|  7> end
|  8>
|  9> %tddft
| 10>  nroots 1
| 11> end
| 12>
| 13> # 	3413
| 14> * xyz 0 1
| 15> 		C   -1.154536  -0.351792  -0.002996
| 16> 		O   -1.928062  -0.979930  -0.884138
| 17> 		C    0.048319   0.341357  -0.293110
| 18> 		C    1.216938   0.091155   0.155813
| 19> 		H   -1.542281  -0.400123   0.977496
| 20> 		H   -0.008735   1.365705  -0.870755
| 21> 		H    1.307612  -0.751206   0.930373
| 22> 		H    2.078292   0.687550   0.028084
| 23> *
| 24>
| 25>                          ****END OF INPUT****

CARTESIAN COORDINATES (ANGSTROEM)
---------------------------------
  C     -1.154536   -0.351792   -0.002996
  O     -1.928062   -0.979930   -0.884138
  C      0.048319    0.341357   -0.293110
  C      1.216938    0.091155    0.155813
  H     -1.542281   -0.400123    0.977496
  H     -0.008735    1.365705   -0.870755
  H      1.307612   -0.751206    0.930373
  H      2.078292    0.687550    0.028084

 Total Charge           Charge          ....    0
 Multiplicity           Mult            ....    1
 Number of Electrons    NEL             ....   30
 Basis Dimension        Dim             ....   76

ORBITAL ENERGIES
----------------

  NO   OCC          E(Eh)            E(eV)
   0   2.0000     -19.142750      -520.9007
   1   2.0000     -10.282822      -279.8098
   2   2.0000     -10.213527      -277.9242
   3   2.0000     -10.208679      -277.7923
   4   2.0000      -0.989807       -26.9340
   5   2.0000      -0.821240       -22.3471
   6   2.0000      -0.671519       -18.2730
   7   2.0000      -0.562456       -15.3052
   8   2.0000      -0.495521       -13.4838
   9   2.0000      -0.478375       -13.0172
  10   2.0000      -0.423299       -11.5186
  11   2.0000      -0.378615       -10.3026
  12   2.0000      -0.338832        -9.2201
  13   2.0000      -0.300448        -8.1756
  14   2.0000      -0.256072        -6.9681
  15   0.0000      -0.071690        -1.9508
  16   0.0000      -0.000130        -0.0035
  17   0.0000       0.073832         2.0091
  18   0.0000       0.082232         2.2376
  19   0.0000       0.111246         3.0272

MULLIKEN ATOMIC CHARGES
-----------------------
   0 C :    0.198289
   1 O :   -0.266659
   2 C :   -0.082643
   3 C :    0.055257
   4 H :    0.008807
   5 H :    0.043053
   6 H :    0.023625
   7 H :    0.020272
Sum of atomic charges:    0.0000000

LOEWDIN ATOMIC CHARGES
----------------------
   0 C :    0.048329
   1 O :   -0.090891
   2 C :   -0.075139
   3 C :   -0.015385
   4 H :    0.004758
   5 H :    0.064655
   6 H :    0.037631
   7 H :    0.026043

  Mayer bond orders larger than 0.100000
B(  0-C ,  1-O ) :   2.1025 B(  0-C ,  2-C ) :   1.0282 B(  0-C ,  4-H ) :   0.9502
B(  2-C ,  3-C ) :   2.0441 B(  2-C ,  5-H ) :   0.9172 B(  3-C ,  6-H ) :   0.9395
B(  3-C ,  7-H ) :   0.9292

-----------------------------------------------------------------------------
         ABSORPTION SPECTRUM VIA TRANSITION ELECTRIC DIPOLE MOMENTS
-----------------------------------------------------------------------------
State   Energy    Wavelength  fosc         T2        TX        TY        TZ
        (cm-1)      (nm)                 (au**2)    (au)      (au)      (au)
-----------------------------------------------------------------------------
   1   25331.3    394.8   0.000260568   0.00339  -0.05721  -0.00776  -0.00729

FINAL SINGLE POINT ENERGY      -191.648051634132

DIPOLE MOMENT
-------------
                                X             Y             Z
Electronic contribution:     -2.71986      -1.10150      -1.27720
Nuclear contribution   :      3.55220       1.75898       1.97791
                        -----------------------------------------
Total Dipole Moment    :      0.83233       0.65748       0.70071
                        -----------------------------------------
Magnitude (a.u.)       :      1.27125
Magnitude (Debye)      :      3.23125

Rotational constants in cm-1:     1.272525     0.152096     0.148744
Rotational constants in MHz : 38149.351868  4559.727203  4459.244264

                             ****ORCA TERMINATED NORMALLY****
TOTAL RUN TIME: 0 days 0 hours 3 minutes 14 seconds 639 msec
