                         Program Version 5.0.3 -  RELEASE  -
|  1> ! B3LYP cc-pVDZ
|  2> !TightSCF
|  3> %scf
|  4>  ConvForced true
|  5>  convergence tight
|  6>  MaxIter 500
|  7> end
|  8>
|  9> %tddft
| 10>  nroots 1
| 11> end
| 12>
| 13> # 	22549
| 14> * xyz 0 1
| 15> 		C   -0.551519  -0.401818   0.040961
| 16> 		O   -0.579668  -1.672760  -0.019354
| 17> 		C    0.643177   0.423859  -0.004796
| 18> 		C    1.823090  -0.126602  -0.005160
| 19> 		H   -1.605184   0.231003  -0.050002
| 20> 		H    0.298193   1.571705  -0.125173
| 21> 		H    1.844297  -1.263442   0.082632
| 22> 		H    2.813750   0.531007   0.025369
| 23> *
| 24>
| 25>                          ****END OF INPUT****

CARTESIAN COORDINATES (ANGSTROEM)
---------------------------------
  C     -0.551519   -0.401818    0.040961
  O     -0.579668   -1.672760   -0.019354
  C      0.643177    0.423859   -0.004796
  C      1.823090   -0.126602   -0.005160
  H     -1.605184    0.231003   -0.050002
  H      0.298193    1.571705   -0.125173
  H      1.844297   -1.263442    0.082632
  H      2.813750    0.531007    0.025369

 Total Charge           Charge          ....    0
 Multiplicity           Mult            ....    1
 Number of Electrons    NEL             ....   30
 Basis Dimension        Dim             ....   76

ORBITAL ENERGIES
----------------

  NO   OCC          E(Eh)            E(eV)
   0   2.0000     -19.142324      -520.8891
   1   2.0000     -10.286659      -279.9142
   2   2.0000     -10.228497      -278.3315
   3   2.0000     -10.216747      -278.0118
   4   2.0000      -1.015318       -27.6282
   5   2.0000      -0.807265       -21.9668
   6   2.0000      -0.656609       -17.8672
   7   2.0000      -0.517564       -14.0836
   8   2.0000      -0.495717       -13.4891
   9   2.0000      -0.447775       -12.1846
  10   2.0000      -0.409177       -11.1343
  11   2.0000      -0.388434       -10.5698
  12   2.0000      -0.367887       -10.0107
  13   2.0000      -0.295019        -8.0279
  14   2.0000      -0.257584        -7.0092
  15   0.0000      -0.079593        -2.1658
  16   0.0000       0.037554         1.0219
  17   0.0000       0.057662         1.5691
  18   0.0000       0.073672         2.0047
  19   0.0000       0.108419         2.9502

MULLIKEN ATOMIC CHARGES
-----------------------
   0 C :    0.145555
   1 O :   -0.234799
   2 C :   -0.105581
   3 C :    0.043002
   4 H :    0.002050
   5 H :    0.022654
   6 H :    0.065206
   7 H :    0.061912
Sum of atomic charges:    0.0000000

LOEWDIN ATOMIC CHARGES
----------------------
   0 C :   -0.012084
   1 O :   -0.062739
   2 C :   -0.105299
   3 C :    0.014099
   4 H :    0.008209
   5 H :    0.049979
   6 H :    0.052615
   7 H :    0.055221

  Mayer bond orders larger than 0.100000
B(  0-C ,  1-O ) :   2.1108 B(  0-C ,  2-C ) :   1.0841 B(  0-C ,  4-H ) :   0.8973
B(  2-C ,  3-C ) :   1.9394 B(  2-C ,  5-H ) :   0.9367 B(  3-C ,  6-H ) :   0.9089
B(  3-C ,  7-H ) :   0.9347

-----------------------------------------------------------------------------
         ABSORPTION SPECTRUM VIA TRANSITION ELECTRIC DIPOLE MOMENTS
-----------------------------------------------------------------------------
State   Energy    Wavelength  fosc         T2        TX        TY        TZ
        (cm-1)      (nm)                 (au**2)    (au)      (au)      (au)
-----------------------------------------------------------------------------
   1   25941.6    385.5   0.000260456   0.00331   0.00483  -0.01236   0.05594

FINAL SINGLE POINT ENERGY      -191.662394905927

DIPOLE MOMENT
-------------
                                X             Y             Z
Electronic contribution:     -1.48114      -1.85495       0.08642
Nuclear contribution   :      1.98607       2.78970      -0.06297
                        -----------------------------------------
Total Dipole Moment    :      0.50493       0.93475       0.02345
                        -----------------------------------------
Magnitude (a.u.)       :      1.06266
Magnitude (Debye)      :      2.70108

Rotational constants in cm-1:     0.723275     0.210340     0.163117
Rotational constants in MHz : 21683.234273  6305.844063  4890.128585

                             ****ORCA TERMINATED NORMALLY****
TOTAL RUN TIME: 0 days 0 hours 3 minutes 26 seconds 393 msec
