                         Program Version 5.0.3 -  RELEASE  -
|  1> ! B3LYP cc-pVDZ
|  2> !TightSCF
|  3> %scf
|  4>  ConvForced true
|  5>  convergence tight
|  6>  MaxIter 500
|  7> end
|  8>
|  9> %tddft
| 10>  nroots 1
| 11> end
| 12>
| 13> # 	20346
| 14> * xyz 0 1
| 15> 		C   -0.600872  -0.424920  -0.056712
| 16> 		O   -0.551541  -1.620319   0.020632
| 17> 		C    0.610630   0.450060   0.105865
| 18> 		C    1.838113  -0.162521  -0.049260
| 19> 		H   -1.499765  -0.102981  -0.225676
| 20> 		H    0.639049   1.503267  -0.060657
| 21> 		H    1.847348  -1.333284   0.136133
| 22> 		H    2.734085   0.503340  -0.186603
| 23> *
| 24>
| 25>                          ****END OF INPUT****

CARTESIAN COORDINATES (ANGSTROEM)
---------------------------------
  C     -0.600872   -0.424920   -0.056712
  O     -0.551541   -1.620319    0.020632
  C      0.610630    0.450060    0.105865
  C      1.838113   -0.162521   -0.049260
  H     -1.499765   -0.102981   -0.225676
  H      0.639049    1.503267   -0.060657
  H      1.847348   -1.333284    0.136133
  H      2.734085    0.503340   -0.186603

 Total Charge           Charge          ....    0
 Multiplicity           Mult            ....    1
 Number of Electrons    NEL             ....   30
 Basis Dimension        Dim             ....   76

ORBITAL ENERGIES
----------------

  NO   OCC          E(Eh)            E(eV)
   0   2.0000     -19.130218      -520.5597
   1   2.0000     -10.262291      -279.2511
   2   2.0000     -10.224318      -278.2178
   3   2.0000     -10.203748      -277.6581
   4   2.0000      -1.051475       -28.6121
   5   2.0000      -0.782188       -21.2844
   6   2.0000      -0.650496       -17.7009
   7   2.0000      -0.555415       -15.1136
   8   2.0000      -0.515146       -14.0178
   9   2.0000      -0.435000       -11.8370
  10   2.0000      -0.417769       -11.3681
  11   2.0000      -0.398141       -10.8340
  12   2.0000      -0.375411       -10.2155
  13   2.0000      -0.278674        -7.5831
  14   2.0000      -0.253499        -6.8981
  15   0.0000      -0.067333        -1.8322
  16   0.0000       0.046855         1.2750
  17   0.0000       0.068509         1.8642
  18   0.0000       0.093330         2.5396
  19   0.0000       0.126666         3.4467

MULLIKEN ATOMIC CHARGES
-----------------------
   0 C :    0.263669
   1 O :   -0.199737
   2 C :   -0.105242
   3 C :   -0.002019
   4 H :   -0.065041
   5 H :   -0.010595
   6 H :    0.073233
   7 H :    0.045733
Sum of atomic charges:   -0.0000000

LOEWDIN ATOMIC CHARGES
----------------------
   0 C :   -0.015796
   1 O :    0.004255
   2 C :   -0.084156
   3 C :    0.016561
   4 H :   -0.030037
   5 H :    0.019261
   6 H :    0.052888
   7 H :    0.037023

  Mayer bond orders larger than 0.100000
B(  0-C ,  1-O ) :   2.1687 B(  0-C ,  2-C ) :   1.0225 B(  0-C ,  4-H ) :   0.9563
B(  2-C ,  3-C ) :   1.9462 B(  2-C ,  5-H ) :   0.9457 B(  3-C ,  6-H ) :   0.9244
B(  3-C ,  7-H ) :   0.9422

-----------------------------------------------------------------------------
         ABSORPTION SPECTRUM VIA TRANSITION ELECTRIC DIPOLE MOMENTS
-----------------------------------------------------------------------------
State   Energy    Wavelength  fosc         T2        TX        TY        TZ
        (cm-1)      (nm)                 (au**2)    (au)      (au)      (au)
-----------------------------------------------------------------------------
   1   28165.8    355.0   0.000650553   0.00760  -0.08087  -0.02973   0.01344

FINAL SINGLE POINT ENERGY      -191.645143288469

DIPOLE MOMENT
-------------
                                X             Y             Z
Electronic contribution:     -2.04591      -1.44712       0.19960
Nuclear contribution   :      2.33199       2.32543      -0.31496
                        -----------------------------------------
Total Dipole Moment    :      0.28608       0.87830      -0.11536
                        -----------------------------------------
Magnitude (a.u.)       :      0.93089
Magnitude (Debye)      :      2.36614

Rotational constants in cm-1:     0.744254     0.213575     0.166997
Rotational constants in MHz : 22312.176803  6402.802988  5006.437584

                             ****ORCA TERMINATED NORMALLY****
TOTAL RUN TIME: 0 days 0 hours 3 minutes 19 seconds 989 msec
