                         Program Version 5.0.3 -  RELEASE  -
|  1> ! B3LYP cc-pVDZ
|  2> !TightSCF
|  3> %scf
|  4>  ConvForced true
|  5>  convergence tight
|  6>  MaxIter 500
|  7> end
|  8>
|  9> %tddft
| 10>  nroots 1
| 11> end
| 12>
| 13> # 	27004
| 14> * xyz 0 1
| 15> 		C   -0.583030  -0.450921  -0.036331
| 16> 		O   -0.598774  -1.646757   0.006840
| 17> 		C    0.601084   0.421942  -0.028328
| 18> 		C    1.895405  -0.109979   0.011694
| 19> 		H   -1.561061   0.212812   0.351881
| 20> 		H    0.572399   1.432041   0.061506
| 21> 		H    2.005724  -1.222759   0.023558
| 22> 		H    2.657838   0.623735   0.087683
| 23> *
| 24>
| 25>                          ****END OF INPUT****

CARTESIAN COORDINATES (ANGSTROEM)
---------------------------------
  C     -0.583030   -0.450921   -0.036331
  O     -0.598774   -1.646757    0.006840
  C      0.601084    0.421942   -0.028328
  C      1.895405   -0.109979    0.011694
  H     -1.561061    0.212812    0.351881
  H      0.572399    1.432041    0.061506
  H      2.005724   -1.222759    0.023558
  H      2.657838    0.623735    0.087683

 Total Charge           Charge          ....    0
 Multiplicity           Mult            ....    1
 Number of Electrons    NEL             ....   30
 Basis Dimension        Dim             ....   76

ORBITAL ENERGIES
----------------

  NO   OCC          E(Eh)            E(eV)
   0   2.0000     -19.145814      -520.9841
   1   2.0000     -10.285251      -279.8759
   2   2.0000     -10.222648      -278.1724
   3   2.0000     -10.205069      -277.6941
   4   2.0000      -1.058210       -28.7953
   5   2.0000      -0.791899       -21.5487
   6   2.0000      -0.654655       -17.8141
   7   2.0000      -0.542930       -14.7739
   8   2.0000      -0.504584       -13.7304
   9   2.0000      -0.448564       -12.2060
  10   2.0000      -0.418439       -11.3863
  11   2.0000      -0.404759       -11.0140
  12   2.0000      -0.393271       -10.7015
  13   2.0000      -0.284041        -7.7292
  14   2.0000      -0.255339        -6.9481
  15   0.0000      -0.078606        -2.1390
  16   0.0000       0.045108         1.2275
  17   0.0000       0.069324         1.8864
  18   0.0000       0.085108         2.3159
  19   0.0000       0.121001         3.2926

MULLIKEN ATOMIC CHARGES
-----------------------
   0 C :    0.148845
   1 O :   -0.167941
   2 C :   -0.064112
   3 C :    0.063634
   4 H :   -0.024721
   5 H :   -0.036489
   6 H :    0.052263
   7 H :    0.028522
Sum of atomic charges:   -0.0000000

LOEWDIN ATOMIC CHARGES
----------------------
   0 C :   -0.057738
   1 O :    0.014771
   2 C :   -0.067369
   3 C :    0.044744
   4 H :   -0.009321
   5 H :    0.008663
   6 H :    0.041000
   7 H :    0.025249

  Mayer bond orders larger than 0.100000
B(  0-C ,  1-O ) :   2.1980 B(  0-C ,  2-C ) :   1.0502 B(  0-C ,  4-H ) :   0.8825
B(  2-C ,  3-C ) :   1.9431 B(  2-C ,  5-H ) :   0.9511 B(  3-C ,  6-H ) :   0.9404
B(  3-C ,  7-H ) :   0.9411

-----------------------------------------------------------------------------
         ABSORPTION SPECTRUM VIA TRANSITION ELECTRIC DIPOLE MOMENTS
-----------------------------------------------------------------------------
State   Energy    Wavelength  fosc         T2        TX        TY        TZ
        (cm-1)      (nm)                 (au**2)    (au)      (au)      (au)
-----------------------------------------------------------------------------
   1   26667.9    375.0   0.000399120   0.00493  -0.03101  -0.03211  -0.05417

FINAL SINGLE POINT ENERGY      -191.663333928495

DIPOLE MOMENT
-------------
                                X             Y             Z
Electronic contribution:     -1.73133      -1.92241      -0.46249
Nuclear contribution   :      2.28926       2.76861       0.49215
                        -----------------------------------------
Total Dipole Moment    :      0.55793       0.84620       0.02966
                        -----------------------------------------
Magnitude (a.u.)       :      1.01401
Magnitude (Debye)      :      2.57741

Rotational constants in cm-1:     0.757497     0.202410     0.160229
Rotational constants in MHz : 22709.189718  6068.089473  4803.545089

                             ****ORCA TERMINATED NORMALLY****
TOTAL RUN TIME: 0 days 0 hours 3 minutes 17 seconds 33 msec
