                         Program Version 5.0.3 -  RELEASE  -
|  1> ! HF-3c
|  2> !TightSCF
|  3> %scf
|  4>  ConvForced true
|  5>  convergence tight
|  6>  MaxIter 500
|  7> end
|  8>
|  9> %tddft
| 10>  nroots 1
| 11> end
| 12>
| 13> # 	7753
| 14> * xyz 0 1
| 15> 		C   -1.226678  -0.321016  -0.038520
| 16> 		O   -1.926589  -0.592649  -0.911674
| 17> 		C    0.017356   0.497199  -0.185853
| 18> 		C    1.209405   0.017738   0.136057
| 19> 		H   -1.432839  -0.780883   0.901261
| 20> 		H   -0.139851   1.534396  -0.706585
| 21> 		H    1.302160  -0.964951   0.711065
| 22> 		H    2.221496   0.590179   0.114337
| 23> *
| 24>
| 25>                          ****END OF INPUT****

CARTESIAN COORDINATES (ANGSTROEM)
---------------------------------
  C     -1.226678   -0.321016   -0.038520
  O     -1.926589   -0.592649   -0.911674
  C      0.017356    0.497199   -0.185853
  C      1.209405    0.017738    0.136057
  H     -1.432839   -0.780883    0.901261
  H     -0.139851    1.534396   -0.706585
  H      1.302160   -0.964951    0.711065
  H      2.221496    0.590179    0.114337

 Total Charge           Charge          ....    0
 Multiplicity           Mult            ....    1
 Number of Electrons    NEL             ....   30
 Basis Dimension        Dim             ....   24

ORBITAL ENERGIES
----------------

  NO   OCC          E(Eh)            E(eV)
   0   2.0000     -20.389453      -554.8252
   1   2.0000     -11.314231      -307.8759
   2   2.0000     -11.185783      -304.3806
   3   2.0000     -11.179694      -304.2149
   4   2.0000      -1.454085       -39.5677
   5   2.0000      -1.069344       -29.0983
   6   2.0000      -0.867393       -23.6030
   7   2.0000      -0.776566       -21.1314
   8   2.0000      -0.672875       -18.3099
   9   2.0000      -0.639419       -17.3995
  10   2.0000      -0.606131       -16.4937
  11   2.0000      -0.546498       -14.8710
  12   2.0000      -0.515159       -14.0182
  13   2.0000      -0.407200       -11.0805
  14   2.0000      -0.399905       -10.8820
  15   0.0000       0.171337         4.6623
  16   0.0000       0.269944         7.3456
  17   0.0000       0.511925        13.9302
  18   0.0000       0.570142        15.5144
  19   0.0000       0.609670        16.5900

MULLIKEN ATOMIC CHARGES
-----------------------
   0 C :    0.175784
   1 O :   -0.352927
   2 C :   -0.163482
   3 C :   -0.227002
   4 H :    0.135723
   5 H :    0.154195
   6 H :    0.133460
   7 H :    0.144249
Sum of atomic charges:    0.0000000

LOEWDIN ATOMIC CHARGES
----------------------
   0 C :    0.146147
   1 O :   -0.237150
   2 C :   -0.127405
   3 C :   -0.143915
   4 H :    0.066469
   5 H :    0.107471
   6 H :    0.088925
   7 H :    0.099458

  Mayer bond orders larger than 0.100000
B(  0-C ,  1-O ) :   1.9388 B(  0-C ,  2-C ) :   0.9828 B(  0-C ,  4-H ) :   0.9204
B(  2-C ,  3-C ) :   1.9919 B(  2-C ,  5-H ) :   0.9464 B(  3-C ,  6-H ) :   0.9618
B(  3-C ,  7-H ) :   0.9597

-----------------------------------------------------------------------------
         ABSORPTION SPECTRUM VIA TRANSITION ELECTRIC DIPOLE MOMENTS
-----------------------------------------------------------------------------
State   Energy    Wavelength  fosc         T2        TX        TY        TZ
        (cm-1)      (nm)                 (au**2)    (au)      (au)      (au)
-----------------------------------------------------------------------------
   1   36999.1    270.3   0.000031981   0.00028  -0.00224  -0.00879   0.01422

Dispersion correction           -0.024976996
FINAL SINGLE POINT ENERGY      -189.298813499555

DIPOLE MOMENT
-------------
                                X             Y             Z
Electronic contribution:     -2.99662      -0.54340      -1.25844
Nuclear contribution   :      3.74097       0.80156       1.92588
                        -----------------------------------------
Total Dipole Moment    :      0.74435       0.25816       0.66744
                        -----------------------------------------
Magnitude (a.u.)       :      1.03256
Magnitude (Debye)      :      2.62456

Rotational constants in cm-1:     1.220315     0.160795     0.153533
Rotational constants in MHz : 36584.126904  4820.514694  4602.804624

                             ****ORCA TERMINATED NORMALLY****
TOTAL RUN TIME: 0 days 0 hours 0 minutes 11 seconds 352 msec
