                         Program Version 5.0.3 -  RELEASE  -
|  1> ! B3LYP cc-pVDZ
|  2> !TightSCF
|  3> %scf
|  4>  ConvForced true
|  5>  convergence tight
|  6>  MaxIter 500
|  7> end
|  8>
|  9> %tddft
| 10>  nroots 1
| 11> end
| 12>
| 13> # 	18166
| 14> * xyz 0 1
| 15> 		C   -1.196231  -0.355662  -0.001177
| 16> 		O   -1.378222  -1.484346  -0.300233
| 17> 		C    0.005583   0.480448  -0.122772
| 18> 		C    1.233825  -0.037688   0.054670
| 19> 		H   -2.083491   0.190881   0.420668
| 20> 		H   -0.081586   1.552294  -0.218671
| 21> 		H    1.451146  -0.986614   0.153523
| 22> 		H    2.065585   0.661544  -0.002029
| 23> *
| 24>
| 25>                          ****END OF INPUT****

CARTESIAN COORDINATES (ANGSTROEM)
---------------------------------
  C     -1.196231   -0.355662   -0.001177
  O     -1.378222   -1.484346   -0.300233
  C      0.005583    0.480448   -0.122772
  C      1.233825   -0.037688    0.054670
  H     -2.083491    0.190881    0.420668
  H     -0.081586    1.552294   -0.218671
  H      1.451146   -0.986614    0.153523
  H      2.065585    0.661544   -0.002029

 Total Charge           Charge          ....    0
 Multiplicity           Mult            ....    1
 Number of Electrons    NEL             ....   30
 Basis Dimension        Dim             ....   76

ORBITAL ENERGIES
----------------

  NO   OCC          E(Eh)            E(eV)
   0   2.0000     -19.137675      -520.7626
   1   2.0000     -10.272184      -279.5203
   2   2.0000     -10.206180      -277.7243
   3   2.0000     -10.204428      -277.6766
   4   2.0000      -1.061775       -28.8924
   5   2.0000      -0.801160       -21.8007
   6   2.0000      -0.662571       -18.0295
   7   2.0000      -0.553895       -15.0723
   8   2.0000      -0.511702       -13.9241
   9   2.0000      -0.454144       -12.3579
  10   2.0000      -0.433273       -11.7900
  11   2.0000      -0.400657       -10.9024
  12   2.0000      -0.394076       -10.7234
  13   2.0000      -0.290868        -7.9149
  14   2.0000      -0.251152        -6.8342
  15   0.0000      -0.060936        -1.6581
  16   0.0000       0.043808         1.1921
  17   0.0000       0.072014         1.9596
  18   0.0000       0.102428         2.7872
  19   0.0000       0.124185         3.3792

MULLIKEN ATOMIC CHARGES
-----------------------
   0 C :    0.176651
   1 O :   -0.163980
   2 C :   -0.112723
   3 C :    0.131849
   4 H :   -0.038018
   5 H :   -0.003023
   6 H :   -0.016585
   7 H :    0.025830
Sum of atomic charges:    0.0000000

LOEWDIN ATOMIC CHARGES
----------------------
   0 C :   -0.057547
   1 O :    0.025126
   2 C :   -0.064706
   3 C :    0.045569
   4 H :   -0.013410
   5 H :    0.032567
   6 H :   -0.003450
   7 H :    0.035850

  Mayer bond orders larger than 0.100000
B(  0-C ,  1-O ) :   2.2415 B(  0-C ,  2-C ) :   1.0322 B(  0-C ,  4-H ) :   0.9073
B(  2-C ,  3-C ) :   1.9870 B(  2-C ,  5-H ) :   0.9371 B(  3-C ,  6-H ) :   0.9503
B(  3-C ,  7-H ) :   0.9459

-----------------------------------------------------------------------------
         ABSORPTION SPECTRUM VIA TRANSITION ELECTRIC DIPOLE MOMENTS
-----------------------------------------------------------------------------
State   Energy    Wavelength  fosc         T2        TX        TY        TZ
        (cm-1)      (nm)                 (au**2)    (au)      (au)      (au)
-----------------------------------------------------------------------------
   1   29205.4    342.4   0.001016828   0.01146  -0.10554  -0.00575  -0.01704

FINAL SINGLE POINT ENERGY      -191.658883391023

DIPOLE MOMENT
-------------
                                X             Y             Z
Electronic contribution:     -2.05641      -1.91053      -0.48802
Nuclear contribution   :      2.60307       2.73799       0.68196
                        -----------------------------------------
Total Dipole Moment    :      0.54666       0.82746       0.19394
                        -----------------------------------------
Magnitude (a.u.)       :      1.01051
Magnitude (Debye)      :      2.56852

Rotational constants in cm-1:     0.857097     0.192812     0.160089
Rotational constants in MHz : 25695.132338  5780.351203  4799.336047

                             ****ORCA TERMINATED NORMALLY****
TOTAL RUN TIME: 0 days 0 hours 3 minutes 3 seconds 164 msec
