                         Program Version 5.0.3 -  RELEASE  -
|  1> ! B3LYP cc-pVDZ
|  2> !TightSCF
|  3> %scf
|  4>  ConvForced true
|  5>  convergence tight
|  6>  MaxIter 500
|  7> end
|  8>
|  9> %tddft
| 10>  nroots 1
| 11> end
| 12>
| 13> # 	30880
| 14> * xyz 0 1
| 15> 		C   -0.589303  -0.410791   0.025462
| 16> 		O   -0.517547  -1.655203  -0.034885
| 17> 		C    0.593278   0.491422  -0.023014
| 18> 		C    1.807421  -0.187503   0.021319
| 19> 		H   -1.513987   0.293511   0.333024
| 20> 		H    0.534063   1.576102  -0.214196
| 21> 		H    1.854104  -1.407458   0.256056
| 22> 		H    2.731628   0.365297  -0.129752
| 23> *
| 24>
| 25>                          ****END OF INPUT****

CARTESIAN COORDINATES (ANGSTROEM)
---------------------------------
  C     -0.589303   -0.410791    0.025462
  O     -0.517547   -1.655203   -0.034885
  C      0.593278    0.491422   -0.023014
  C      1.807421   -0.187503    0.021319
  H     -1.513987    0.293511    0.333024
  H      0.534063    1.576102   -0.214196
  H      1.854104   -1.407458    0.256056
  H      2.731628    0.365297   -0.129752

 Total Charge           Charge          ....    0
 Multiplicity           Mult            ....    1
 Number of Electrons    NEL             ....   30
 Basis Dimension        Dim             ....   76

ORBITAL ENERGIES
----------------

  NO   OCC          E(Eh)            E(eV)
   0   2.0000     -19.144828      -520.9572
   1   2.0000     -10.287616      -279.9403
   2   2.0000     -10.231152      -278.4038
   3   2.0000     -10.212785      -277.9040
   4   2.0000      -1.028949       -27.9991
   5   2.0000      -0.783671       -21.3248
   6   2.0000      -0.647943       -17.6314
   7   2.0000      -0.530880       -14.4460
   8   2.0000      -0.496782       -13.5181
   9   2.0000      -0.441295       -12.0083
  10   2.0000      -0.409826       -11.1519
  11   2.0000      -0.384596       -10.4654
  12   2.0000      -0.375344       -10.2136
  13   2.0000      -0.279741        -7.6121
  14   2.0000      -0.258322        -7.0293
  15   0.0000      -0.078562        -2.1378
  16   0.0000       0.041398         1.1265
  17   0.0000       0.060877         1.6565
  18   0.0000       0.073514         2.0004
  19   0.0000       0.103267         2.8100

MULLIKEN ATOMIC CHARGES
-----------------------
   0 C :    0.181272
   1 O :   -0.217501
   2 C :   -0.112734
   3 C :    0.010942
   4 H :    0.000040
   5 H :    0.012969
   6 H :    0.091015
   7 H :    0.033997
Sum of atomic charges:    0.0000000

LOEWDIN ATOMIC CHARGES
----------------------
   0 C :   -0.019886
   1 O :   -0.037256
   2 C :   -0.092995
   3 C :    0.024471
   4 H :    0.002602
   5 H :    0.032733
   6 H :    0.067380
   7 H :    0.022952

  Mayer bond orders larger than 0.100000
B(  0-C ,  1-O ) :   2.1342 B(  0-C ,  2-C ) :   1.0569 B(  0-C ,  4-H ) :   0.9003
B(  2-C ,  3-C ) :   1.9158 B(  2-C ,  5-H ) :   0.9481 B(  3-C ,  6-H ) :   0.9275
B(  3-C ,  7-H ) :   0.9441

-----------------------------------------------------------------------------
         ABSORPTION SPECTRUM VIA TRANSITION ELECTRIC DIPOLE MOMENTS
-----------------------------------------------------------------------------
State   Energy    Wavelength  fosc         T2        TX        TY        TZ
        (cm-1)      (nm)                 (au**2)    (au)      (au)      (au)
-----------------------------------------------------------------------------
   1   26732.6    374.1   0.000316278   0.00389  -0.03767   0.01559   0.04725

FINAL SINGLE POINT ENERGY      -191.659374878232

DIPOLE MOMENT
-------------
                                X             Y             Z
Electronic contribution:     -1.77209      -1.64537      -0.20642
Nuclear contribution   :      2.22537       2.56159       0.23118
                        -----------------------------------------
Total Dipole Moment    :      0.45327       0.91622       0.02476
                        -----------------------------------------
Magnitude (a.u.)       :      1.02251
Magnitude (Debye)      :      2.59902

Rotational constants in cm-1:     0.650290     0.222138     0.166493
Rotational constants in MHz : 19495.208830  6659.541514  4991.341300

                             ****ORCA TERMINATED NORMALLY****
TOTAL RUN TIME: 0 days 0 hours 3 minutes 27 seconds 857 msec
