                         Program Version 5.0.3 -  RELEASE  -
|  1> ! HF-3c
|  2> !TightSCF
|  3> %scf
|  4>  ConvForced true
|  5>  convergence tight
|  6>  MaxIter 500
|  7> end
|  8>
|  9> %tddft
| 10>  nroots 1
| 11> end
| 12>
| 13> # 	30831
| 14> * xyz 0 1
| 15> 		C   -0.591377  -0.420234   0.074581
| 16> 		O   -0.561445  -1.629822  -0.061523
| 17> 		C    0.605558   0.418846  -0.059213
| 18> 		C    1.849163  -0.153206   0.056386
| 19> 		H   -1.484903   0.219164   0.383598
| 20> 		H    0.511608   1.443123  -0.320568
| 21> 		H    1.982406  -1.211849   0.257083
| 22> 		H    2.654180   0.531927  -0.235619
| 23> *
| 24>
| 25>                          ****END OF INPUT****

CARTESIAN COORDINATES (ANGSTROEM)
---------------------------------
  C     -0.591377   -0.420234    0.074581
  O     -0.561445   -1.629822   -0.061523
  C      0.605558    0.418846   -0.059213
  C      1.849163   -0.153206    0.056386
  H     -1.484903    0.219164    0.383598
  H      0.511608    1.443123   -0.320568
  H      1.982406   -1.211849    0.257083
  H      2.654180    0.531927   -0.235619

 Total Charge           Charge          ....    0
 Multiplicity           Mult            ....    1
 Number of Electrons    NEL             ....   30
 Basis Dimension        Dim             ....   24

ORBITAL ENERGIES
----------------

  NO   OCC          E(Eh)            E(eV)
   0   2.0000     -20.362315      -554.0868
   1   2.0000     -11.292251      -307.2778
   2   2.0000     -11.186964      -304.4128
   3   2.0000     -11.177949      -304.1675
   4   2.0000      -1.394627       -37.9497
   5   2.0000      -1.068474       -29.0747
   6   2.0000      -0.889956       -24.2169
   7   2.0000      -0.740976       -20.1630
   8   2.0000      -0.699803       -19.0426
   9   2.0000      -0.611106       -16.6290
  10   2.0000      -0.584999       -15.9186
  11   2.0000      -0.548166       -14.9164
  12   2.0000      -0.524369       -14.2688
  13   2.0000      -0.409119       -11.1327
  14   2.0000      -0.381907       -10.3922
  15   0.0000       0.128857         3.5064
  16   0.0000       0.293447         7.9851
  17   0.0000       0.578520        15.7423
  18   0.0000       0.622907        16.9502
  19   0.0000       0.648703        17.6521

MULLIKEN ATOMIC CHARGES
-----------------------
   0 C :    0.168351
   1 O :   -0.355406
   2 C :   -0.182226
   3 C :   -0.211495
   4 H :    0.134391
   5 H :    0.139292
   6 H :    0.161567
   7 H :    0.145525
Sum of atomic charges:    0.0000000

LOEWDIN ATOMIC CHARGES
----------------------
   0 C :    0.150455
   1 O :   -0.263114
   2 C :   -0.140362
   3 C :   -0.111193
   4 H :    0.074375
   5 H :    0.086729
   6 H :    0.106898
   7 H :    0.096211

  Mayer bond orders larger than 0.100000
B(  0-C ,  1-O ) :   1.9061 B(  0-C ,  2-C ) :   1.0338 B(  0-C ,  4-H ) :   0.9186
B(  2-C ,  3-C ) :   1.9324 B(  2-C ,  5-H ) :   0.9629 B(  3-C ,  6-H ) :   0.9608
B(  3-C ,  7-H ) :   0.9661

-----------------------------------------------------------------------------
         ABSORPTION SPECTRUM VIA TRANSITION ELECTRIC DIPOLE MOMENTS
-----------------------------------------------------------------------------
State   Energy    Wavelength  fosc         T2        TX        TY        TZ
        (cm-1)      (nm)                 (au**2)    (au)      (au)      (au)
-----------------------------------------------------------------------------
   1   32448.2    308.2   0.000041057   0.00042  -0.01822  -0.00080   0.00916

Dispersion correction           -0.025818470
FINAL SINGLE POINT ENERGY      -189.337648501801

DIPOLE MOMENT
-------------
                                X             Y             Z
Electronic contribution:     -1.97063      -1.76616      -0.00216
Nuclear contribution   :      2.28002       2.70804       0.08087
                        -----------------------------------------
Total Dipole Moment    :      0.30939       0.94187       0.07871
                        -----------------------------------------
Magnitude (a.u.)       :      0.99451
Magnitude (Debye)      :      2.52783

Rotational constants in cm-1:     0.726040     0.213448     0.166854
Rotational constants in MHz : 21766.128571  6399.016186  5002.169832

                             ****ORCA TERMINATED NORMALLY****
TOTAL RUN TIME: 0 days 0 hours 0 minutes 14 seconds 658 msec
