                         Program Version 5.0.3 -  RELEASE  -
|  1> ! HF-3c
|  2> !TightSCF
|  3> %scf
|  4>  ConvForced true
|  5>  convergence tight
|  6>  MaxIter 500
|  7> end
|  8>
|  9> %tddft
| 10>  nroots 1
| 11> end
| 12>
| 13> # 	6124
| 14> * xyz 0 1
| 15> 		C   -1.228312  -0.319525  -0.013580
| 16> 		O   -1.319992  -1.412515  -0.458146
| 17> 		C    0.035255   0.505096  -0.149406
| 18> 		C    1.225812   0.025239   0.090644
| 19> 		H   -2.027545   0.202319   0.532514
| 20> 		H   -0.036311   1.540081  -0.465111
| 21> 		H    1.287619  -1.112236   0.355036
| 22> 		H    2.093031   0.574675   0.043738
| 23> *
| 24>
| 25>                          ****END OF INPUT****

CARTESIAN COORDINATES (ANGSTROEM)
---------------------------------
  C     -1.228312   -0.319525   -0.013580
  O     -1.319992   -1.412515   -0.458146
  C      0.035255    0.505096   -0.149406
  C      1.225812    0.025239    0.090644
  H     -2.027545    0.202319    0.532514
  H     -0.036311    1.540081   -0.465111
  H      1.287619   -1.112236    0.355036
  H      2.093031    0.574675    0.043738

 Total Charge           Charge          ....    0
 Multiplicity           Mult            ....    1
 Number of Electrons    NEL             ....   30
 Basis Dimension        Dim             ....   24

ORBITAL ENERGIES
----------------

  NO   OCC          E(Eh)            E(eV)
   0   2.0000     -20.386747      -554.7516
   1   2.0000     -11.310398      -307.7716
   2   2.0000     -11.183758      -304.3255
   3   2.0000     -11.181679      -304.2690
   4   2.0000      -1.429819       -38.9074
   5   2.0000      -1.079970       -29.3875
   6   2.0000      -0.886253       -24.1162
   7   2.0000      -0.754501       -20.5310
   8   2.0000      -0.703573       -19.1452
   9   2.0000      -0.629933       -17.1414
  10   2.0000      -0.615358       -16.7447
  11   2.0000      -0.543828       -14.7983
  12   2.0000      -0.519748       -14.1431
  13   2.0000      -0.415470       -11.3055
  14   2.0000      -0.405127       -11.0241
  15   0.0000       0.163024         4.4361
  16   0.0000       0.274937         7.4814
  17   0.0000       0.530016        14.4225
  18   0.0000       0.614831        16.7304
  19   0.0000       0.661745        18.0070

MULLIKEN ATOMIC CHARGES
-----------------------
   0 C :    0.181557
   1 O :   -0.348970
   2 C :   -0.173993
   3 C :   -0.234462
   4 H :    0.139935
   5 H :    0.143178
   6 H :    0.151048
   7 H :    0.141708
Sum of atomic charges:   -0.0000000

LOEWDIN ATOMIC CHARGES
----------------------
   0 C :    0.156639
   1 O :   -0.243423
   2 C :   -0.131027
   3 C :   -0.141013
   4 H :    0.074439
   5 H :    0.091750
   6 H :    0.105410
   7 H :    0.087225

  Mayer bond orders larger than 0.100000
B(  0-C ,  1-O ) :   1.9429 B(  0-C ,  2-C ) :   0.9858 B(  0-C ,  4-H ) :   0.9178
B(  2-C ,  3-C ) :   1.9859 B(  2-C ,  5-H ) :   0.9545 B(  3-C ,  6-H ) :   0.9574
B(  3-C ,  7-H ) :   0.9659

-----------------------------------------------------------------------------
         ABSORPTION SPECTRUM VIA TRANSITION ELECTRIC DIPOLE MOMENTS
-----------------------------------------------------------------------------
State   Energy    Wavelength  fosc         T2        TX        TY        TZ
        (cm-1)      (nm)                 (au**2)    (au)      (au)      (au)
-----------------------------------------------------------------------------
   1   35693.1    280.2   0.000014795   0.00014   0.00463  -0.00417   0.00988

Dispersion correction           -0.025555978
FINAL SINGLE POINT ENERGY      -189.321896649226

DIPOLE MOMENT
-------------
                                X             Y             Z
Electronic contribution:     -2.27943      -1.57520      -0.58188
Nuclear contribution   :      2.51939       2.37633       0.94996
                        -----------------------------------------
Total Dipole Moment    :      0.23996       0.80113       0.36808
                        -----------------------------------------
Magnitude (a.u.)       :      0.91372
Magnitude (Debye)      :      2.32248

Rotational constants in cm-1:     0.832839     0.194819     0.164041
Rotational constants in MHz : 24967.870422  5840.521911  4917.821174

                             ****ORCA TERMINATED NORMALLY****
TOTAL RUN TIME: 0 days 0 hours 0 minutes 14 seconds 550 msec
