                         Program Version 5.0.3 -  RELEASE  -
|  1> ! HF-3c
|  2> !TightSCF
|  3> %scf
|  4>  ConvForced true
|  5>  convergence tight
|  6>  MaxIter 500
|  7> end
|  8>
|  9> %tddft
| 10>  nroots 1
| 11> end
| 12>
| 13> # 	7964
| 14> * xyz 0 1
| 15> 		C   -1.229346  -0.346913   0.028774
| 16> 		O   -1.374282  -1.452444   0.435952
| 17> 		C    0.015660   0.481483   0.206217
| 18> 		C    1.285052  -0.044967  -0.105776
| 19> 		H   -1.950552   0.133739  -0.663243
| 20> 		H   -0.125741   1.518335   0.286933
| 21> 		H    1.424245  -1.034522  -0.304249
| 22> 		H    1.991285   0.742406   0.111236
| 23> *
| 24>
| 25>                          ****END OF INPUT****

CARTESIAN COORDINATES (ANGSTROEM)
---------------------------------
  C     -1.229346   -0.346913    0.028774
  O     -1.374282   -1.452444    0.435952
  C      0.015660    0.481483    0.206217
  C      1.285052   -0.044967   -0.105776
  H     -1.950552    0.133739   -0.663243
  H     -0.125741    1.518335    0.286933
  H      1.424245   -1.034522   -0.304249
  H      1.991285    0.742406    0.111236

 Total Charge           Charge          ....    0
 Multiplicity           Mult            ....    1
 Number of Electrons    NEL             ....   30
 Basis Dimension        Dim             ....   24

ORBITAL ENERGIES
----------------

  NO   OCC          E(Eh)            E(eV)
   0   2.0000     -20.379008      -554.5410
   1   2.0000     -11.302620      -307.5599
   2   2.0000     -11.185007      -304.3595
   3   2.0000     -11.182768      -304.2986
   4   2.0000      -1.421238       -38.6738
   5   2.0000      -1.063392       -28.9364
   6   2.0000      -0.892212       -24.2783
   7   2.0000      -0.759453       -20.6658
   8   2.0000      -0.704858       -19.1802
   9   2.0000      -0.625070       -17.0090
  10   2.0000      -0.595366       -16.2007
  11   2.0000      -0.570042       -15.5116
  12   2.0000      -0.523719       -14.2511
  13   2.0000      -0.409923       -11.1546
  14   2.0000      -0.380569       -10.3558
  15   0.0000       0.140844         3.8326
  16   0.0000       0.255667         6.9571
  17   0.0000       0.588065        16.0020
  18   0.0000       0.628026        17.0895
  19   0.0000       0.674838        18.3633

MULLIKEN ATOMIC CHARGES
-----------------------
   0 C :    0.172782
   1 O :   -0.351997
   2 C :   -0.156544
   3 C :   -0.242989
   4 H :    0.133619
   5 H :    0.138071
   6 H :    0.154389
   7 H :    0.152671
Sum of atomic charges:   -0.0000000

LOEWDIN ATOMIC CHARGES
----------------------
   0 C :    0.148154
   1 O :   -0.247864
   2 C :   -0.114313
   3 C :   -0.139298
   4 H :    0.070307
   5 H :    0.084782
   6 H :    0.096390
   7 H :    0.101842

  Mayer bond orders larger than 0.100000
B(  0-C ,  1-O ) :   1.9325 B(  0-C ,  2-C ) :   1.0009 B(  0-C ,  4-H ) :   0.9162
B(  2-C ,  3-C ) :   1.9558 B(  2-C ,  5-H ) :   0.9639 B(  3-C ,  6-H ) :   0.9669
B(  3-C ,  7-H ) :   0.9650

-----------------------------------------------------------------------------
         ABSORPTION SPECTRUM VIA TRANSITION ELECTRIC DIPOLE MOMENTS
-----------------------------------------------------------------------------
State   Energy    Wavelength  fosc         T2        TX        TY        TZ
        (cm-1)      (nm)                 (au**2)    (au)      (au)      (au)
-----------------------------------------------------------------------------
   1   34572.8    289.2   0.000112106   0.00107   0.02931   0.00077  -0.01441

Dispersion correction           -0.025326927
FINAL SINGLE POINT ENERGY      -189.309228195434

DIPOLE MOMENT
-------------
                                X             Y             Z
Electronic contribution:     -2.22840      -1.74773       0.68760
Nuclear contribution   :      2.56533       2.65153      -1.06211
                        -----------------------------------------
Total Dipole Moment    :      0.33693       0.90380      -0.37452
                        -----------------------------------------
Magnitude (a.u.)       :      1.03472
Magnitude (Debye)      :      2.63004

Rotational constants in cm-1:     0.810973     0.187471     0.158324
Rotational constants in MHz : 24312.369631  5620.252213  4746.434191

                             ****ORCA TERMINATED NORMALLY****
TOTAL RUN TIME: 0 days 0 hours 0 minutes 15 seconds 60 msec
