                         Program Version 5.0.3 -  RELEASE  -
|  1> ! B3LYP cc-pVDZ
|  2> !TightSCF
|  3> %scf
|  4>  ConvForced true
|  5>  convergence tight
|  6>  MaxIter 500
|  7> end
|  8>
|  9> %tddft
| 10>  nroots 1
| 11> end
| 12>
| 13> # 	32443
| 14> * xyz 0 1
| 15> 		C   -0.611269  -0.437611   0.026985
| 16> 		O   -0.594570  -1.626534  -0.014269
| 17> 		C    0.638837   0.373773  -0.019403
| 18> 		C    1.897431  -0.091484   0.012343
| 19> 		H   -1.618313   0.104830   0.051741
| 20> 		H    0.366015   1.458617  -0.085028
| 21> 		H    2.001950  -1.107648   0.000024
| 22> 		H    2.672453   0.467535   0.018565
| 23> *
| 24>
| 25>                          ****END OF INPUT****

CARTESIAN COORDINATES (ANGSTROEM)
---------------------------------
  C     -0.611269   -0.437611    0.026985
  O     -0.594570   -1.626534   -0.014269
  C      0.638837    0.373773   -0.019403
  C      1.897431   -0.091484    0.012343
  H     -1.618313    0.104830    0.051741
  H      0.366015    1.458617   -0.085028
  H      2.001950   -1.107648    0.000024
  H      2.672453    0.467535    0.018565

 Total Charge           Charge          ....    0
 Multiplicity           Mult            ....    1
 Number of Electrons    NEL             ....   30
 Basis Dimension        Dim             ....   76

ORBITAL ENERGIES
----------------

  NO   OCC          E(Eh)            E(eV)
   0   2.0000     -19.138024      -520.7721
   1   2.0000     -10.275557      -279.6121
   2   2.0000     -10.207142      -277.7504
   3   2.0000     -10.195734      -277.4400
   4   2.0000      -1.058776       -28.8108
   5   2.0000      -0.795142       -21.6369
   6   2.0000      -0.666504       -18.1365
   7   2.0000      -0.545976       -14.8568
   8   2.0000      -0.510638       -13.8952
   9   2.0000      -0.452428       -12.3112
  10   2.0000      -0.443817       -12.0769
  11   2.0000      -0.405106       -11.0235
  12   2.0000      -0.381939       -10.3931
  13   2.0000      -0.287531        -7.8241
  14   2.0000      -0.254907        -6.9364
  15   0.0000      -0.068673        -1.8687
  16   0.0000       0.063426         1.7259
  17   0.0000       0.070929         1.9301
  18   0.0000       0.104209         2.8357
  19   0.0000       0.122181         3.3247

MULLIKEN ATOMIC CHARGES
-----------------------
   0 C :    0.160087
   1 O :   -0.169598
   2 C :   -0.172870
   3 C :    0.234218
   4 H :   -0.018214
   5 H :   -0.011474
   6 H :    0.000717
   7 H :   -0.022866
Sum of atomic charges:    0.0000000

LOEWDIN ATOMIC CHARGES
----------------------
   0 C :   -0.052825
   1 O :    0.016867
   2 C :   -0.065163
   3 C :    0.061310
   4 H :   -0.002039
   5 H :    0.027583
   6 H :    0.020529
   7 H :   -0.006262

  Mayer bond orders larger than 0.100000
B(  0-C ,  1-O ) :   2.2134 B(  0-C ,  2-C ) :   1.0443 B(  0-C ,  4-H ) :   0.9076
B(  2-C ,  3-C ) :   1.9873 B(  2-C ,  5-H ) :   0.9423 B(  3-C ,  6-H ) :   0.9259
B(  3-C ,  7-H ) :   0.9359

-----------------------------------------------------------------------------
         ABSORPTION SPECTRUM VIA TRANSITION ELECTRIC DIPOLE MOMENTS
-----------------------------------------------------------------------------
State   Energy    Wavelength  fosc         T2        TX        TY        TZ
        (cm-1)      (nm)                 (au**2)    (au)      (au)      (au)
-----------------------------------------------------------------------------
   1   28099.4    355.9   0.000062880   0.00074  -0.00112   0.00440  -0.02676

FINAL SINGLE POINT ENERGY      -191.657866245477

DIPOLE MOMENT
-------------
                                X             Y             Z
Electronic contribution:     -1.68418      -1.83852       0.02583
Nuclear contribution   :      2.05544       2.65375      -0.01375
                        -----------------------------------------
Total Dipole Moment    :      0.37126       0.81523       0.01209
                        -----------------------------------------
Magnitude (a.u.)       :      0.89587
Magnitude (Debye)      :      2.27711

Rotational constants in cm-1:     0.796747     0.202939     0.161831
Rotational constants in MHz : 23885.878332  6083.967180  4851.573991

                             ****ORCA TERMINATED NORMALLY****
TOTAL RUN TIME: 0 days 0 hours 3 minutes 27 seconds 849 msec
