                         Program Version 5.0.3 -  RELEASE  -
|  1> ! B3LYP cc-pVDZ
|  2> !TightSCF
|  3> %scf
|  4>  ConvForced true
|  5>  convergence tight
|  6>  MaxIter 500
|  7> end
|  8>
|  9> %tddft
| 10>  nroots 1
| 11> end
| 12>
| 13> # 	383
| 14> * xyz 0 1
| 15> 		C   -1.236424  -0.320659  -0.016466
| 16> 		O   -1.321886  -1.448811   0.336410
| 17> 		C   -0.035851   0.504404   0.141113
| 18> 		C    1.174179  -0.022977  -0.127560
| 19> 		H   -1.964870   0.051978  -0.745043
| 20> 		H   -0.221596   1.653968   0.430275
| 21> 		H    1.407880  -1.034406  -0.087586
| 22> 		H    2.142866   0.660071   0.064808
| 23> *
| 24>
| 25>                          ****END OF INPUT****

CARTESIAN COORDINATES (ANGSTROEM)
---------------------------------
  C     -1.236424   -0.320659   -0.016466
  O     -1.321886   -1.448811    0.336410
  C     -0.035851    0.504404    0.141113
  C      1.174179   -0.022977   -0.127560
  H     -1.964870    0.051978   -0.745043
  H     -0.221596    1.653968    0.430275
  H      1.407880   -1.034406   -0.087586
  H      2.142866    0.660071    0.064808

 Total Charge           Charge          ....    0
 Multiplicity           Mult            ....    1
 Number of Electrons    NEL             ....   30
 Basis Dimension        Dim             ....   76

ORBITAL ENERGIES
----------------

  NO   OCC          E(Eh)            E(eV)
   0   2.0000     -19.139719      -520.8182
   1   2.0000     -10.272829      -279.5379
   2   2.0000     -10.217859      -278.0421
   3   2.0000     -10.215031      -277.9651
   4   2.0000      -1.063670       -28.9439
   5   2.0000      -0.791979       -21.5508
   6   2.0000      -0.654765       -17.8171
   7   2.0000      -0.545273       -14.8376
   8   2.0000      -0.497805       -13.5460
   9   2.0000      -0.453039       -12.3278
  10   2.0000      -0.443216       -12.0605
  11   2.0000      -0.384373       -10.4593
  12   2.0000      -0.374517       -10.1911
  13   2.0000      -0.287569        -7.8251
  14   2.0000      -0.254028        -6.9124
  15   0.0000      -0.056972        -1.5503
  16   0.0000       0.015110         0.4112
  17   0.0000       0.059399         1.6163
  18   0.0000       0.093825         2.5531
  19   0.0000       0.109244         2.9727

MULLIKEN ATOMIC CHARGES
-----------------------
   0 C :    0.179304
   1 O :   -0.168283
   2 C :   -0.128997
   3 C :    0.025058
   4 H :   -0.019789
   5 H :    0.036666
   6 H :    0.028845
   7 H :    0.047195
Sum of atomic charges:   -0.0000000

LOEWDIN ATOMIC CHARGES
----------------------
   0 C :   -0.054445
   1 O :    0.026876
   2 C :   -0.071739
   3 C :   -0.010298
   4 H :   -0.006908
   5 H :    0.049482
   6 H :    0.017631
   7 H :    0.049402

  Mayer bond orders larger than 0.100000
B(  0-C ,  1-O ) :   2.2332 B(  0-C ,  2-C ) :   1.0136 B(  0-C ,  4-H ) :   0.9162
B(  2-C ,  3-C ) :   1.9891 B(  2-C ,  5-H ) :   0.9278 B(  3-C ,  6-H ) :   0.9456
B(  3-C ,  7-H ) :   0.9466

-----------------------------------------------------------------------------
         ABSORPTION SPECTRUM VIA TRANSITION ELECTRIC DIPOLE MOMENTS
-----------------------------------------------------------------------------
State   Energy    Wavelength  fosc         T2        TX        TY        TZ
        (cm-1)      (nm)                 (au**2)    (au)      (au)      (au)
-----------------------------------------------------------------------------
   1   30105.3    332.2   0.000091510   0.00100   0.01250  -0.00333   0.02887

FINAL SINGLE POINT ENERGY      -191.641605485560

DIPOLE MOMENT
-------------
                                X             Y             Z
Electronic contribution:     -2.33721      -1.79601       0.48501
Nuclear contribution   :      2.66835       2.56556      -0.64817
                        -----------------------------------------
Total Dipole Moment    :      0.33114       0.76955      -0.16317
                        -----------------------------------------
Magnitude (a.u.)       :      0.85351
Magnitude (Debye)      :      2.16945

Rotational constants in cm-1:     0.788202     0.201141     0.166310
Rotational constants in MHz : 23629.715025  6030.067049  4985.842667

                             ****ORCA TERMINATED NORMALLY****
TOTAL RUN TIME: 0 days 0 hours 3 minutes 25 seconds 474 msec
