                         Program Version 5.0.3 -  RELEASE  -
|  1> ! HF-3c
|  2> !TightSCF
|  3> %scf
|  4>  ConvForced true
|  5>  convergence tight
|  6>  MaxIter 500
|  7> end
|  8>
|  9> %tddft
| 10>  nroots 1
| 11> end
| 12>
| 13> # 	21001
| 14> * xyz 0 1
| 15> 		C   -0.667103  -0.430606  -0.034833
| 16> 		O   -0.515103  -1.612435   0.004059
| 17> 		C    0.593583   0.441054   0.003019
| 18> 		C    1.879531  -0.172610  -0.027906
| 19> 		H   -1.603547   0.134688   0.206278
| 20> 		H    0.519596   1.523394   0.123141
| 21> 		H    1.959548  -1.345079   0.319872
| 22> 		H    2.722361   0.480730  -0.004472
| 23> *
| 24>
| 25>                          ****END OF INPUT****

CARTESIAN COORDINATES (ANGSTROEM)
---------------------------------
  C     -0.667103   -0.430606   -0.034833
  O     -0.515103   -1.612435    0.004059
  C      0.593583    0.441054    0.003019
  C      1.879531   -0.172610   -0.027906
  H     -1.603547    0.134688    0.206278
  H      0.519596    1.523394    0.123141
  H      1.959548   -1.345079    0.319872
  H      2.722361    0.480730   -0.004472

 Total Charge           Charge          ....    0
 Multiplicity           Mult            ....    1
 Number of Electrons    NEL             ....   30
 Basis Dimension        Dim             ....   24

ORBITAL ENERGIES
----------------

  NO   OCC          E(Eh)            E(eV)
   0   2.0000     -20.367943      -554.2399
   1   2.0000     -11.297608      -307.4236
   2   2.0000     -11.172592      -304.0217
   3   2.0000     -11.162564      -303.7488
   4   2.0000      -1.414412       -38.4881
   5   2.0000      -1.028991       -28.0003
   6   2.0000      -0.869075       -23.6487
   7   2.0000      -0.736847       -20.0506
   8   2.0000      -0.683924       -18.6105
   9   2.0000      -0.601563       -16.3694
  10   2.0000      -0.572876       -15.5888
  11   2.0000      -0.541449       -14.7336
  12   2.0000      -0.514853       -14.0099
  13   2.0000      -0.405864       -11.0441
  14   2.0000      -0.356283        -9.6950
  15   0.0000       0.127888         3.4800
  16   0.0000       0.284421         7.7395
  17   0.0000       0.521398        14.1880
  18   0.0000       0.575384        15.6570
  19   0.0000       0.627399        17.0724

MULLIKEN ATOMIC CHARGES
-----------------------
   0 C :    0.168593
   1 O :   -0.360237
   2 C :   -0.172404
   3 C :   -0.206929
   4 H :    0.140217
   5 H :    0.130048
   6 H :    0.166557
   7 H :    0.134155
Sum of atomic charges:   -0.0000000

LOEWDIN ATOMIC CHARGES
----------------------
   0 C :    0.146121
   1 O :   -0.258301
   2 C :   -0.137877
   3 C :   -0.117573
   4 H :    0.077563
   5 H :    0.081882
   6 H :    0.123580
   7 H :    0.084605

  Mayer bond orders larger than 0.100000
B(  0-C ,  1-O ) :   1.9131 B(  0-C ,  2-C ) :   1.0104 B(  0-C ,  4-H ) :   0.9192
B(  2-C ,  3-C ) :   1.9328 B(  2-C ,  5-H ) :   0.9663 B(  3-C ,  6-H ) :   0.9543
B(  3-C ,  7-H ) :   0.9686

-----------------------------------------------------------------------------
         ABSORPTION SPECTRUM VIA TRANSITION ELECTRIC DIPOLE MOMENTS
-----------------------------------------------------------------------------
State   Energy    Wavelength  fosc         T2        TX        TY        TZ
        (cm-1)      (nm)                 (au**2)    (au)      (au)      (au)
-----------------------------------------------------------------------------
   1   32856.3    304.4   0.000111941   0.00112  -0.03307   0.00177   0.00499

Dispersion correction           -0.025181949
FINAL SINGLE POINT ENERGY      -189.306387262770

DIPOLE MOMENT
-------------
                                X             Y             Z
Electronic contribution:     -2.02609      -1.69254      -0.46234
Nuclear contribution   :      2.22029       2.53152       0.60517
                        -----------------------------------------
Total Dipole Moment    :      0.19420       0.83898       0.14283
                        -----------------------------------------
Magnitude (a.u.)       :      0.87292
Magnitude (Debye)      :      2.21879

Rotational constants in cm-1:     0.682790     0.213605     0.163289
Rotational constants in MHz : 20469.536728  6403.709441  4895.276549

                             ****ORCA TERMINATED NORMALLY****
TOTAL RUN TIME: 0 days 0 hours 0 minutes 12 seconds 540 msec
