                         Program Version 5.0.3 -  RELEASE  -
|  1> ! B3LYP cc-pVDZ
|  2> !TightSCF
|  3> %scf
|  4>  ConvForced true
|  5>  convergence tight
|  6>  MaxIter 500
|  7> end
|  8>
|  9> %tddft
| 10>  nroots 1
| 11> end
| 12>
| 13> # 	1021
| 14> * xyz 0 1
| 15> 		C   -1.215398  -0.264095   0.009307
| 16> 		O   -1.175637  -1.447984  -0.171796
| 17> 		C    0.009854   0.632220  -0.074313
| 18> 		C    1.231842   0.075786   0.046269
| 19> 		H   -2.007587   0.215273   0.196795
| 20> 		H   -0.130981   1.634323  -0.022678
| 21> 		H    1.008685  -1.113921   0.134412
| 22> 		H    2.213028   0.270557  -0.132997
| 23> *
| 24>
| 25>                          ****END OF INPUT****

CARTESIAN COORDINATES (ANGSTROEM)
---------------------------------
  C     -1.215398   -0.264095    0.009307
  O     -1.175637   -1.447984   -0.171796
  C      0.009854    0.632220   -0.074313
  C      1.231842    0.075786    0.046269
  H     -2.007587    0.215273    0.196795
  H     -0.130981    1.634323   -0.022678
  H      1.008685   -1.113921    0.134412
  H      2.213028    0.270557   -0.132997

 Total Charge           Charge          ....    0
 Multiplicity           Mult            ....    1
 Number of Electrons    NEL             ....   30
 Basis Dimension        Dim             ....   76

ORBITAL ENERGIES
----------------

  NO   OCC          E(Eh)            E(eV)
   0   2.0000     -19.141418      -520.8645
   1   2.0000     -10.263871      -279.2941
   2   2.0000     -10.209691      -277.8198
   3   2.0000     -10.197013      -277.4748
   4   2.0000      -1.055919       -28.7330
   5   2.0000      -0.788178       -21.4474
   6   2.0000      -0.669843       -18.2274
   7   2.0000      -0.571986       -15.5645
   8   2.0000      -0.512249       -13.9390
   9   2.0000      -0.451902       -12.2969
  10   2.0000      -0.441991       -12.0272
  11   2.0000      -0.400967       -10.9109
  12   2.0000      -0.346831        -9.4377
  13   2.0000      -0.282722        -7.6933
  14   2.0000      -0.261857        -7.1255
  15   0.0000      -0.067298        -1.8313
  16   0.0000       0.049168         1.3379
  17   0.0000       0.090502         2.4627
  18   0.0000       0.095131         2.5887
  19   0.0000       0.131372         3.5748

MULLIKEN ATOMIC CHARGES
-----------------------
   0 C :    0.286285
   1 O :   -0.188995
   2 C :   -0.098229
   3 C :    0.056458
   4 H :   -0.068642
   5 H :   -0.042561
   6 H :    0.047371
   7 H :    0.008314
Sum of atomic charges:   -0.0000000

LOEWDIN ATOMIC CHARGES
----------------------
   0 C :   -0.000389
   1 O :    0.021182
   2 C :   -0.063483
   3 C :    0.025164
   4 H :   -0.037477
   5 H :    0.000700
   6 H :    0.050086
   7 H :    0.004216

  Mayer bond orders larger than 0.100000
B(  0-C ,  1-O ) :   2.1763 B(  0-C ,  2-C ) :   1.0481 B(  0-C ,  4-H ) :   0.9402
B(  2-C ,  3-C ) :   1.9411 B(  2-C ,  5-H ) :   0.9591 B(  3-C ,  6-H ) :   0.9165
B(  3-C ,  7-H ) :   0.9677

-----------------------------------------------------------------------------
         ABSORPTION SPECTRUM VIA TRANSITION ELECTRIC DIPOLE MOMENTS
-----------------------------------------------------------------------------
State   Energy    Wavelength  fosc         T2        TX        TY        TZ
        (cm-1)      (nm)                 (au**2)    (au)      (au)      (au)
-----------------------------------------------------------------------------
   1   29584.2    338.0   0.000014137   0.00016   0.01118   0.00097   0.00561

FINAL SINGLE POINT ENERGY      -191.620259480659

DIPOLE MOMENT
-------------
                                X             Y             Z
Electronic contribution:     -1.95486      -1.18731      -0.22048
Nuclear contribution   :      2.16816       2.05292       0.35008
                        -----------------------------------------
Total Dipole Moment    :      0.21330       0.86561       0.12960
                        -----------------------------------------
Magnitude (a.u.)       :      0.90088
Magnitude (Debye)      :      2.28985

Rotational constants in cm-1:     0.758198     0.211786     0.166649
Rotational constants in MHz : 22730.204145  6349.184029  4996.019302

                             ****ORCA TERMINATED NORMALLY****
TOTAL RUN TIME: 0 days 0 hours 3 minutes 14 seconds 714 msec
