                         Program Version 5.0.3 -  RELEASE  -
|  1> ! B3LYP cc-pVDZ
|  2> !TightSCF
|  3> %scf
|  4>  ConvForced true
|  5>  convergence tight
|  6>  MaxIter 500
|  7> end
|  8>
|  9> %tddft
| 10>  nroots 1
| 11> end
| 12>
| 13> # 	31092
| 14> * xyz 0 1
| 15> 		C   -0.601334  -0.414918   0.020987
| 16> 		O   -0.576676  -1.634842  -0.004572
| 17> 		C    0.631839   0.389019  -0.003003
| 18> 		C    1.843519  -0.115043   0.008377
| 19> 		H   -1.418763   0.043882  -0.090082
| 20> 		H    0.351052   1.520941  -0.063017
| 21> 		H    1.867233  -1.216833  -0.107443
| 22> 		H    2.966803   0.524916   0.020086
| 23> *
| 24>
| 25>                          ****END OF INPUT****

CARTESIAN COORDINATES (ANGSTROEM)
---------------------------------
  C     -0.601334   -0.414918    0.020987
  O     -0.576676   -1.634842   -0.004572
  C      0.631839    0.389019   -0.003003
  C      1.843519   -0.115043    0.008377
  H     -1.418763    0.043882   -0.090082
  H      0.351052    1.520941   -0.063017
  H      1.867233   -1.216833   -0.107443
  H      2.966803    0.524916    0.020086

 Total Charge           Charge          ....    0
 Multiplicity           Mult            ....    1
 Number of Electrons    NEL             ....   30
 Basis Dimension        Dim             ....   76

ORBITAL ENERGIES
----------------

  NO   OCC          E(Eh)            E(eV)
   0   2.0000     -19.135001      -520.6898
   1   2.0000     -10.260394      -279.1995
   2   2.0000     -10.226483      -278.2768
   3   2.0000     -10.206189      -277.7245
   4   2.0000      -1.040839       -28.3227
   5   2.0000      -0.794225       -21.6120
   6   2.0000      -0.671953       -18.2848
   7   2.0000      -0.548422       -14.9233
   8   2.0000      -0.498565       -13.5666
   9   2.0000      -0.445536       -12.1237
  10   2.0000      -0.420857       -11.4521
  11   2.0000      -0.397126       -10.8063
  12   2.0000      -0.360384        -9.8066
  13   2.0000      -0.288628        -7.8540
  14   2.0000      -0.256395        -6.9769
  15   0.0000      -0.071032        -1.9329
  16   0.0000       0.040769         1.1094
  17   0.0000       0.063520         1.7285
  18   0.0000       0.081395         2.2149
  19   0.0000       0.133202         3.6246

MULLIKEN ATOMIC CHARGES
-----------------------
   0 C :    0.292054
   1 O :   -0.210722
   2 C :   -0.136159
   3 C :    0.005846
   4 H :   -0.072802
   5 H :    0.001107
   6 H :    0.048082
   7 H :    0.072593
Sum of atomic charges:    0.0000000

LOEWDIN ATOMIC CHARGES
----------------------
   0 C :   -0.004109
   1 O :   -0.006915
   2 C :   -0.091958
   3 C :   -0.001602
   4 H :   -0.034993
   5 H :    0.036323
   6 H :    0.037917
   7 H :    0.065337

  Mayer bond orders larger than 0.100000
B(  0-C ,  1-O ) :   2.1689 B(  0-C ,  2-C ) :   1.0851 B(  0-C ,  4-H ) :   0.9353
B(  2-C ,  3-C ) :   1.9526 B(  2-C ,  5-H ) :   0.9371 B(  3-C ,  6-H ) :   0.9085
B(  3-C ,  7-H ) :   0.9368

-----------------------------------------------------------------------------
         ABSORPTION SPECTRUM VIA TRANSITION ELECTRIC DIPOLE MOMENTS
-----------------------------------------------------------------------------
State   Energy    Wavelength  fosc         T2        TX        TY        TZ
        (cm-1)      (nm)                 (au**2)    (au)      (au)      (au)
-----------------------------------------------------------------------------
   1   27224.9    367.3   0.000044824   0.00054   0.00141   0.00707  -0.02214

FINAL SINGLE POINT ENERGY      -191.635564156010

DIPOLE MOMENT
-------------
                                X             Y             Z
Electronic contribution:     -2.10769      -1.72558       0.18908
Nuclear contribution   :      2.37723       2.60706      -0.22573
                        -----------------------------------------
Total Dipole Moment    :      0.26954       0.88148      -0.03665
                        -----------------------------------------
Magnitude (a.u.)       :      0.92250
Magnitude (Debye)      :      2.34480

Rotational constants in cm-1:     0.777635     0.208285     0.164381
Rotational constants in MHz : 23312.899922  6244.217702  4928.024163

                             ****ORCA TERMINATED NORMALLY****
TOTAL RUN TIME: 0 days 0 hours 3 minutes 22 seconds 285 msec
