                         Program Version 5.0.3 -  RELEASE  -
|  1> ! B3LYP cc-pVDZ
|  2> !TightSCF
|  3> %scf
|  4>  ConvForced true
|  5>  convergence tight
|  6>  MaxIter 500
|  7> end
|  8>
|  9> %tddft
| 10>  nroots 1
| 11> end
| 12>
| 13> # 	32051
| 14> * xyz 0 1
| 15> 		C   -0.630286  -0.455751   0.018295
| 16> 		O   -0.573756  -1.661844  -0.005786
| 17> 		C    0.647182   0.435628  -0.050786
| 18> 		C    1.855172  -0.111154   0.043566
| 19> 		H   -1.574188   0.294436   0.069733
| 20> 		H    0.592174   1.557838   0.089766
| 21> 		H    2.029489  -1.111815  -0.132450
| 22> 		H    2.724828   0.479480  -0.066229
| 23> *
| 24>
| 25>                          ****END OF INPUT****

CARTESIAN COORDINATES (ANGSTROEM)
---------------------------------
  C     -0.630286   -0.455751    0.018295
  O     -0.573756   -1.661844   -0.005786
  C      0.647182    0.435628   -0.050786
  C      1.855172   -0.111154    0.043566
  H     -1.574188    0.294436    0.069733
  H      0.592174    1.557838    0.089766
  H      2.029489   -1.111815   -0.132450
  H      2.724828    0.479480   -0.066229

 Total Charge           Charge          ....    0
 Multiplicity           Mult            ....    1
 Number of Electrons    NEL             ....   30
 Basis Dimension        Dim             ....   76

ORBITAL ENERGIES
----------------

  NO   OCC          E(Eh)            E(eV)
   0   2.0000     -19.153540      -521.1943
   1   2.0000     -10.294655      -280.1318
   2   2.0000     -10.208117      -277.7770
   3   2.0000     -10.197706      -277.4937
   4   2.0000      -1.056845       -28.7582
   5   2.0000      -0.789351       -21.4793
   6   2.0000      -0.647142       -17.6096
   7   2.0000      -0.543489       -14.7891
   8   2.0000      -0.497102       -13.5268
   9   2.0000      -0.453461       -12.3393
  10   2.0000      -0.419682       -11.4201
  11   2.0000      -0.402919       -10.9640
  12   2.0000      -0.381316       -10.3761
  13   2.0000      -0.289774        -7.8851
  14   2.0000      -0.261534        -7.1167
  15   0.0000      -0.068300        -1.8586
  16   0.0000       0.048097         1.3088
  17   0.0000       0.062590         1.7032
  18   0.0000       0.088050         2.3960
  19   0.0000       0.116776         3.1776

MULLIKEN ATOMIC CHARGES
-----------------------
   0 C :    0.167120
   1 O :   -0.171442
   2 C :   -0.156490
   3 C :    0.115416
   4 H :    0.004151
   5 H :    0.009176
   6 H :    0.014147
   7 H :    0.017923
Sum of atomic charges:    0.0000000

LOEWDIN ATOMIC CHARGES
----------------------
   0 C :   -0.028063
   1 O :    0.010297
   2 C :   -0.084620
   3 C :    0.024899
   4 H :    0.001365
   5 H :    0.034564
   6 H :    0.015929
   7 H :    0.025629

  Mayer bond orders larger than 0.100000
B(  0-C ,  1-O ) :   2.2109 B(  0-C ,  2-C ) :   0.9921 B(  0-C ,  4-H ) :   0.8887
B(  2-C ,  3-C ) :   1.9935 B(  2-C ,  5-H ) :   0.9344 B(  3-C ,  6-H ) :   0.9453
B(  3-C ,  7-H ) :   0.9444

-----------------------------------------------------------------------------
         ABSORPTION SPECTRUM VIA TRANSITION ELECTRIC DIPOLE MOMENTS
-----------------------------------------------------------------------------
State   Energy    Wavelength  fosc         T2        TX        TY        TZ
        (cm-1)      (nm)                 (au**2)    (au)      (au)      (au)
-----------------------------------------------------------------------------
   1   29576.5    338.1   0.000662108   0.00737  -0.08115  -0.00632  -0.02729

FINAL SINGLE POINT ENERGY      -191.655871802398

DIPOLE MOMENT
-------------
                                X             Y             Z
Electronic contribution:     -2.03518      -2.10779       0.03202
Nuclear contribution   :      2.38092       2.92996      -0.03691
                        -----------------------------------------
Total Dipole Moment    :      0.34574       0.82217      -0.00488
                        -----------------------------------------
Magnitude (a.u.)       :      0.89192
Magnitude (Debye)      :      2.26708

Rotational constants in cm-1:     0.737613     0.202654     0.159257
Rotational constants in MHz : 22113.088301  6075.415100  4774.407056

                             ****ORCA TERMINATED NORMALLY****
TOTAL RUN TIME: 0 days 0 hours 3 minutes 20 seconds 966 msec
