                         Program Version 5.0.3 -  RELEASE  -
|  1> ! HF-3c
|  2> !TightSCF
|  3> %scf
|  4>  ConvForced true
|  5>  convergence tight
|  6>  MaxIter 500
|  7> end
|  8>
|  9> %tddft
| 10>  nroots 1
| 11> end
| 12>
| 13> # 	11440
| 14> * xyz 0 1
| 15> 		C   -1.259224  -0.281477   0.049422
| 16> 		O   -1.159709  -1.570977   0.014572
| 17> 		C    0.006225   0.465406   0.050245
| 18> 		C    1.219006  -0.017022   0.022357
| 19> 		H   -2.182941   0.208981  -0.011720
| 20> 		H   -0.085373   1.604327  -0.166308
| 21> 		H    1.401957  -1.136578   0.192741
| 22> 		H    2.063301   0.665658  -0.155848
| 23> *
| 24>
| 25>                          ****END OF INPUT****

CARTESIAN COORDINATES (ANGSTROEM)
---------------------------------
  C     -1.259224   -0.281477    0.049422
  O     -1.159709   -1.570977    0.014572
  C      0.006225    0.465406    0.050245
  C      1.219006   -0.017022    0.022357
  H     -2.182941    0.208981   -0.011720
  H     -0.085373    1.604327   -0.166308
  H      1.401957   -1.136578    0.192741
  H      2.063301    0.665658   -0.155848

 Total Charge           Charge          ....    0
 Multiplicity           Mult            ....    1
 Number of Electrons    NEL             ....   30
 Basis Dimension        Dim             ....   24

ORBITAL ENERGIES
----------------

  NO   OCC          E(Eh)            E(eV)
   0   2.0000     -20.344718      -553.6079
   1   2.0000     -11.281764      -306.9924
   2   2.0000     -11.186790      -304.4080
   3   2.0000     -11.185050      -304.3607
   4   2.0000      -1.346718       -36.6461
   5   2.0000      -1.074592       -29.2411
   6   2.0000      -0.898534       -24.4504
   7   2.0000      -0.743502       -20.2317
   8   2.0000      -0.686893       -18.6913
   9   2.0000      -0.601232       -16.3604
  10   2.0000      -0.583096       -15.8669
  11   2.0000      -0.513213       -13.9652
  12   2.0000      -0.500777       -13.6268
  13   2.0000      -0.422133       -11.4868
  14   2.0000      -0.384603       -10.4656
  15   0.0000       0.120430         3.2771
  16   0.0000       0.306912         8.3515
  17   0.0000       0.520648        14.1676
  18   0.0000       0.603905        16.4331
  19   0.0000       0.611914        16.6510

MULLIKEN ATOMIC CHARGES
-----------------------
   0 C :    0.124364
   1 O :   -0.330570
   2 C :   -0.169455
   3 C :   -0.215280
   4 H :    0.148802
   5 H :    0.134905
   6 H :    0.161230
   7 H :    0.146004
Sum of atomic charges:   -0.0000000

LOEWDIN ATOMIC CHARGES
----------------------
   0 C :    0.132927
   1 O :   -0.260467
   2 C :   -0.129600
   3 C :   -0.122787
   4 H :    0.082145
   5 H :    0.089897
   6 H :    0.111226
   7 H :    0.096660

  Mayer bond orders larger than 0.100000
B(  0-C ,  1-O ) :   1.8881 B(  0-C ,  2-C ) :   1.0507 B(  0-C ,  4-H ) :   0.9402
B(  2-C ,  3-C ) :   1.9431 B(  2-C ,  5-H ) :   0.9532 B(  3-C ,  6-H ) :   0.9537
B(  3-C ,  7-H ) :   0.9620

-----------------------------------------------------------------------------
         ABSORPTION SPECTRUM VIA TRANSITION ELECTRIC DIPOLE MOMENTS
-----------------------------------------------------------------------------
State   Energy    Wavelength  fosc         T2        TX        TY        TZ
        (cm-1)      (nm)                 (au**2)    (au)      (au)      (au)
-----------------------------------------------------------------------------
   1   27432.8    364.5   0.000051160   0.00061  -0.02402   0.00114   0.00599

Dispersion correction           -0.025577201
FINAL SINGLE POINT ENERGY      -189.346718219642

DIPOLE MOMENT
-------------
                                X             Y             Z
Electronic contribution:     -2.05415      -1.74859       0.19350
Nuclear contribution   :      2.29899       2.69952      -0.23679
                        -----------------------------------------
Total Dipole Moment    :      0.24484       0.95094      -0.04329
                        -----------------------------------------
Magnitude (a.u.)       :      0.98291
Magnitude (Debye)      :      2.49835

Rotational constants in cm-1:     0.727210     0.211010     0.163916
Rotational constants in MHz : 21801.219759  6325.914901  4914.074394

                             ****ORCA TERMINATED NORMALLY****
TOTAL RUN TIME: 0 days 0 hours 0 minutes 11 seconds 663 msec
