                         Program Version 5.0.3 -  RELEASE  -
|  1> ! HF-3c
|  2> !TightSCF
|  3> %scf
|  4>  ConvForced true
|  5>  convergence tight
|  6>  MaxIter 500
|  7> end
|  8>
|  9> %tddft
| 10>  nroots 1
| 11> end
| 12>
| 13> # 	5680
| 14> * xyz 0 1
| 15> 		C   -1.272258  -0.247418  -0.007546
| 16> 		O   -1.158010  -1.517318  -0.016581
| 17> 		C    0.038090   0.527310  -0.085057
| 18> 		C    1.266723   0.007141   0.020600
| 19> 		H   -2.258653   0.140281   0.182136
| 20> 		H   -0.140963   1.582459   0.073374
| 21> 		H    1.311659  -1.046379  -0.076440
| 22> 		H    2.223102   0.554997  -0.120817
| 23> *
| 24>
| 25>                          ****END OF INPUT****

CARTESIAN COORDINATES (ANGSTROEM)
---------------------------------
  C     -1.272258   -0.247418   -0.007546
  O     -1.158010   -1.517318   -0.016581
  C      0.038090    0.527310   -0.085057
  C      1.266723    0.007141    0.020600
  H     -2.258653    0.140281    0.182136
  H     -0.140963    1.582459    0.073374
  H      1.311659   -1.046379   -0.076440
  H      2.223102    0.554997   -0.120817

 Total Charge           Charge          ....    0
 Multiplicity           Mult            ....    1
 Number of Electrons    NEL             ....   30
 Basis Dimension        Dim             ....   24

ORBITAL ENERGIES
----------------

  NO   OCC          E(Eh)            E(eV)
   0   2.0000     -20.346275      -553.6503
   1   2.0000     -11.280245      -306.9511
   2   2.0000     -11.190840      -304.5182
   3   2.0000     -11.187579      -304.4295
   4   2.0000      -1.358241       -36.9596
   5   2.0000      -1.066192       -29.0125
   6   2.0000      -0.887139       -24.1403
   7   2.0000      -0.758436       -20.6381
   8   2.0000      -0.690142       -18.7797
   9   2.0000      -0.609930       -16.5971
  10   2.0000      -0.586258       -15.9529
  11   2.0000      -0.516205       -14.0466
  12   2.0000      -0.510163       -13.8822
  13   2.0000      -0.418958       -11.4004
  14   2.0000      -0.385047       -10.4777
  15   0.0000       0.122831         3.3424
  16   0.0000       0.283781         7.7221
  17   0.0000       0.485330        13.2065
  18   0.0000       0.657140        17.8817
  19   0.0000       0.681755        18.5515

MULLIKEN ATOMIC CHARGES
-----------------------
   0 C :    0.128952
   1 O :   -0.336558
   2 C :   -0.159265
   3 C :   -0.230796
   4 H :    0.153339
   5 H :    0.134292
   6 H :    0.156388
   7 H :    0.153649
Sum of atomic charges:   -0.0000000

LOEWDIN ATOMIC CHARGES
----------------------
   0 C :    0.128546
   1 O :   -0.259972
   2 C :   -0.113163
   3 C :   -0.131605
   4 H :    0.088595
   5 H :    0.083101
   6 H :    0.100165
   7 H :    0.104332

  Mayer bond orders larger than 0.100000
B(  0-C ,  1-O ) :   1.9005 B(  0-C ,  2-C ) :   1.0248 B(  0-C ,  4-H ) :   0.9384
B(  2-C ,  3-C ) :   1.9527 B(  2-C ,  5-H ) :   0.9611 B(  3-C ,  6-H ) :   0.9583
B(  3-C ,  7-H ) :   0.9616

-----------------------------------------------------------------------------
         ABSORPTION SPECTRUM VIA TRANSITION ELECTRIC DIPOLE MOMENTS
-----------------------------------------------------------------------------
State   Energy    Wavelength  fosc         T2        TX        TY        TZ
        (cm-1)      (nm)                 (au**2)    (au)      (au)      (au)
-----------------------------------------------------------------------------
   1   28077.6    356.2   0.000017434   0.00020  -0.01128  -0.00238  -0.00846

Dispersion correction           -0.025382726
FINAL SINGLE POINT ENERGY      -189.347132159854

DIPOLE MOMENT
-------------
                                X             Y             Z
Electronic contribution:     -2.01250      -1.54113      -0.08886
Nuclear contribution   :      2.18968       2.44902       0.12640
                        -----------------------------------------
Total Dipole Moment    :      0.17719       0.90789       0.03755
                        -----------------------------------------
Magnitude (a.u.)       :      0.92578
Magnitude (Debye)      :      2.35316

Rotational constants in cm-1:     0.726965     0.205535     0.160636
Rotational constants in MHz : 21793.849359  6161.774581  4815.759363

                             ****ORCA TERMINATED NORMALLY****
TOTAL RUN TIME: 0 days 0 hours 0 minutes 10 seconds 54 msec
