                         Program Version 5.0.3 -  RELEASE  -
|  1> ! B3LYP cc-pVDZ
|  2> !TightSCF
|  3> %scf
|  4>  ConvForced true
|  5>  convergence tight
|  6>  MaxIter 500
|  7> end
|  8>
|  9> %tddft
| 10>  nroots 1
| 11> end
| 12>
| 13> # 	22913
| 14> * xyz 0 1
| 15> 		C   -0.577304  -0.450782   0.070083
| 16> 		O   -0.616463  -1.637006  -0.031832
| 17> 		C    0.683054   0.392050  -0.044877
| 18> 		C    1.826590  -0.096606   0.019182
| 19> 		H   -1.539426   0.049797   0.042087
| 20> 		H    0.640482   1.460048  -0.163656
| 21> 		H    2.022234  -1.042637   0.007071
| 22> 		H    2.632540   0.604806   0.086930
| 23> *
| 24>
| 25>                          ****END OF INPUT****

CARTESIAN COORDINATES (ANGSTROEM)
---------------------------------
  C     -0.577304   -0.450782    0.070083
  O     -0.616463   -1.637006   -0.031832
  C      0.683054    0.392050   -0.044877
  C      1.826590   -0.096606    0.019182
  H     -1.539426    0.049797    0.042087
  H      0.640482    1.460048   -0.163656
  H      2.022234   -1.042637    0.007071
  H      2.632540    0.604806    0.086930

 Total Charge           Charge          ....    0
 Multiplicity           Mult            ....    1
 Number of Electrons    NEL             ....   30
 Basis Dimension        Dim             ....   76

ORBITAL ENERGIES
----------------

  NO   OCC          E(Eh)            E(eV)
   0   2.0000     -19.139234      -520.8050
   1   2.0000     -10.272934      -279.5408
   2   2.0000     -10.190235      -277.2904
   3   2.0000     -10.181505      -277.0528
   4   2.0000      -1.058458       -28.8021
   5   2.0000      -0.815102       -22.1801
   6   2.0000      -0.650877       -17.7113
   7   2.0000      -0.557290       -15.1646
   8   2.0000      -0.522076       -14.2064
   9   2.0000      -0.452250       -12.3063
  10   2.0000      -0.430676       -11.7193
  11   2.0000      -0.405295       -11.0286
  12   2.0000      -0.385044       -10.4776
  13   2.0000      -0.300002        -8.1635
  14   2.0000      -0.253053        -6.8859
  15   0.0000      -0.056641        -1.5413
  16   0.0000       0.062518         1.7012
  17   0.0000       0.074025         2.0143
  18   0.0000       0.107364         2.9215
  19   0.0000       0.129982         3.5370

MULLIKEN ATOMIC CHARGES
-----------------------
   0 C :    0.192563
   1 O :   -0.172398
   2 C :   -0.140492
   3 C :    0.206224
   4 H :   -0.027905
   5 H :   -0.026708
   6 H :   -0.041845
   7 H :    0.010562
Sum of atomic charges:   -0.0000000

LOEWDIN ATOMIC CHARGES
----------------------
   0 C :   -0.028375
   1 O :    0.016976
   2 C :   -0.075823
   3 C :    0.036468
   4 H :   -0.011223
   5 H :    0.028948
   6 H :   -0.004576
   7 H :    0.037606

  Mayer bond orders larger than 0.100000
B(  0-C ,  1-O ) :   2.2247 B(  0-C ,  2-C ) :   1.0022 B(  0-C ,  4-H ) :   0.9244
B(  2-C ,  3-C ) :   2.0442 B(  2-C ,  5-H ) :   0.9309 B(  3-C ,  6-H ) :   0.9270
B(  3-C ,  7-H ) :   0.9257

-----------------------------------------------------------------------------
         ABSORPTION SPECTRUM VIA TRANSITION ELECTRIC DIPOLE MOMENTS
-----------------------------------------------------------------------------
State   Energy    Wavelength  fosc         T2        TX        TY        TZ
        (cm-1)      (nm)                 (au**2)    (au)      (au)      (au)
-----------------------------------------------------------------------------
   1   29674.7    337.0   0.000143013   0.00159  -0.02624  -0.00028  -0.02997

FINAL SINGLE POINT ENERGY      -191.639329787657

DIPOLE MOMENT
-------------
                                X             Y             Z
Electronic contribution:     -2.00581      -1.93487       0.06783
Nuclear contribution   :      2.36322       2.79429      -0.02607
                        -----------------------------------------
Total Dipole Moment    :      0.35740       0.85941       0.04176
                        -----------------------------------------
Magnitude (a.u.)       :      0.93170
Magnitude (Debye)      :      2.36821

Rotational constants in cm-1:     0.866135     0.202709     0.164714
Rotational constants in MHz : 25966.065303  6077.049328  4938.010417

                             ****ORCA TERMINATED NORMALLY****
TOTAL RUN TIME: 0 days 0 hours 3 minutes 22 seconds 268 msec
