                         Program Version 5.0.3 -  RELEASE  -
|  1> ! HF-3c
|  2> !TightSCF
|  3> %scf
|  4>  ConvForced true
|  5>  convergence tight
|  6>  MaxIter 500
|  7> end
|  8>
|  9> %tddft
| 10>  nroots 1
| 11> end
| 12>
| 13> # 	8843
| 14> * xyz 0 1
| 15> 		C   -1.190982  -0.367547   0.021202
| 16> 		O   -1.325616  -1.462119   0.333446
| 17> 		C    0.004647   0.428314   0.108607
| 18> 		C    1.190180   0.012686  -0.083928
| 19> 		H   -2.176589   0.078991  -0.503978
| 20> 		H    0.028276   1.514338   0.221262
| 21> 		H    1.417788  -1.039613  -0.134459
| 22> 		H    2.056155   0.822559  -0.009019
| 23> *
| 24>
| 25>                          ****END OF INPUT****

CARTESIAN COORDINATES (ANGSTROEM)
---------------------------------
  C     -1.190982   -0.367547    0.021202
  O     -1.325616   -1.462119    0.333446
  C      0.004647    0.428314    0.108607
  C      1.190180    0.012686   -0.083928
  H     -2.176589    0.078991   -0.503978
  H      0.028276    1.514338    0.221262
  H      1.417788   -1.039613   -0.134459
  H      2.056155    0.822559   -0.009019

 Total Charge           Charge          ....    0
 Multiplicity           Mult            ....    1
 Number of Electrons    NEL             ....   30
 Basis Dimension        Dim             ....   24

ORBITAL ENERGIES
----------------

  NO   OCC          E(Eh)            E(eV)
   0   2.0000     -20.381517      -554.6093
   1   2.0000     -11.312983      -307.8419
   2   2.0000     -11.190991      -304.5223
   3   2.0000     -11.190380      -304.5057
   4   2.0000      -1.452692       -39.5298
   5   2.0000      -1.105091       -30.0711
   6   2.0000      -0.880318       -23.9547
   7   2.0000      -0.737932       -20.0802
   8   2.0000      -0.722476       -19.6596
   9   2.0000      -0.620430       -16.8828
  10   2.0000      -0.611039       -16.6272
  11   2.0000      -0.558456       -15.1964
  12   2.0000      -0.517072       -14.0703
  13   2.0000      -0.420047       -11.4301
  14   2.0000      -0.399264       -10.8645
  15   0.0000       0.161148         4.3851
  16   0.0000       0.312818         8.5122
  17   0.0000       0.505415        13.7530
  18   0.0000       0.584407        15.9025
  19   0.0000       0.639635        17.4054

MULLIKEN ATOMIC CHARGES
-----------------------
   0 C :    0.192774
   1 O :   -0.363094
   2 C :   -0.199323
   3 C :   -0.209579
   4 H :    0.128304
   5 H :    0.152700
   6 H :    0.150021
   7 H :    0.148197
Sum of atomic charges:    0.0000000

LOEWDIN ATOMIC CHARGES
----------------------
   0 C :    0.149235
   1 O :   -0.246819
   2 C :   -0.153178
   3 C :   -0.120477
   4 H :    0.070805
   5 H :    0.100301
   6 H :    0.095738
   7 H :    0.104396

  Mayer bond orders larger than 0.100000
B(  0-C ,  1-O ) :   1.9234 B(  0-C ,  2-C ) :   1.0124 B(  0-C ,  4-H ) :   0.9054
B(  2-C ,  3-C ) :   1.9666 B(  2-C ,  5-H ) :   0.9493 B(  3-C ,  6-H ) :   0.9592
B(  3-C ,  7-H ) :   0.9577

-----------------------------------------------------------------------------
         ABSORPTION SPECTRUM VIA TRANSITION ELECTRIC DIPOLE MOMENTS
-----------------------------------------------------------------------------
State   Energy    Wavelength  fosc         T2        TX        TY        TZ
        (cm-1)      (nm)                 (au**2)    (au)      (au)      (au)
-----------------------------------------------------------------------------
   1   36234.1    276.0   0.000235210   0.00214  -0.04153   0.00365   0.01997

Dispersion correction           -0.025780654
FINAL SINGLE POINT ENERGY      -189.288038441377

DIPOLE MOMENT
-------------
                                X             Y             Z
Electronic contribution:     -2.12497      -1.78062       0.49876
Nuclear contribution   :      2.55638       2.68902      -0.76157
                        -----------------------------------------
Total Dipole Moment    :      0.43141       0.90840      -0.26282
                        -----------------------------------------
Magnitude (a.u.)       :      1.03942
Magnitude (Debye)      :      2.64199

Rotational constants in cm-1:     0.930845     0.198073     0.166664
Rotational constants in MHz : 27906.029260  5938.073787  4996.460198

                             ****ORCA TERMINATED NORMALLY****
TOTAL RUN TIME: 0 days 0 hours 0 minutes 12 seconds 527 msec
