                         Program Version 5.0.3 -  RELEASE  -
|  1> ! HF-3c
|  2> !TightSCF
|  3> %scf
|  4>  ConvForced true
|  5>  convergence tight
|  6>  MaxIter 500
|  7> end
|  8>
|  9> %tddft
| 10>  nroots 1
| 11> end
| 12>
| 13> # 	11613
| 14> * xyz 0 1
| 15> 		C   -1.188004  -0.353969   0.060084
| 16> 		O   -1.886069  -0.727881   0.958467
| 17> 		C    0.042366   0.465903   0.206721
| 18> 		C    1.229217   0.071514  -0.256398
| 19> 		H   -1.453998  -0.604187  -0.973283
| 20> 		H    0.026147   1.330941   0.963680
| 21> 		H    1.222161  -0.829818  -0.816722
| 22> 		H    1.989363   0.712998  -0.176700
| 23> *
| 24>
| 25>                          ****END OF INPUT****

CARTESIAN COORDINATES (ANGSTROEM)
---------------------------------
  C     -1.188004   -0.353969    0.060084
  O     -1.886069   -0.727881    0.958467
  C      0.042366    0.465903    0.206721
  C      1.229217    0.071514   -0.256398
  H     -1.453998   -0.604187   -0.973283
  H      0.026147    1.330941    0.963680
  H      1.222161   -0.829818   -0.816722
  H      1.989363    0.712998   -0.176700

 Total Charge           Charge          ....    0
 Multiplicity           Mult            ....    1
 Number of Electrons    NEL             ....   30
 Basis Dimension        Dim             ....   24

ORBITAL ENERGIES
----------------

  NO   OCC          E(Eh)            E(eV)
   0   2.0000     -20.381507      -554.6090
   1   2.0000     -11.305804      -307.6466
   2   2.0000     -11.193068      -304.5789
   3   2.0000     -11.187305      -304.4220
   4   2.0000      -1.418528       -38.6001
   5   2.0000      -1.089930       -29.6585
   6   2.0000      -0.891697       -24.2643
   7   2.0000      -0.773824       -21.0568
   8   2.0000      -0.685237       -18.6463
   9   2.0000      -0.656247       -17.8574
  10   2.0000      -0.600830       -16.3494
  11   2.0000      -0.560226       -15.2445
  12   2.0000      -0.519075       -14.1248
  13   2.0000      -0.416900       -11.3444
  14   2.0000      -0.403573       -10.9818
  15   0.0000       0.147020         4.0006
  16   0.0000       0.261128         7.1056
  17   0.0000       0.574768        15.6402
  18   0.0000       0.593642        16.1538
  19   0.0000       0.699471        19.0336

MULLIKEN ATOMIC CHARGES
-----------------------
   0 C :    0.166634
   1 O :   -0.344129
   2 C :   -0.144526
   3 C :   -0.266658
   4 H :    0.138140
   5 H :    0.156727
   6 H :    0.145468
   7 H :    0.148344
Sum of atomic charges:    0.0000000

LOEWDIN ATOMIC CHARGES
----------------------
   0 C :    0.146637
   1 O :   -0.244089
   2 C :   -0.104266
   3 C :   -0.163214
   4 H :    0.072823
   5 H :    0.107372
   6 H :    0.093904
   7 H :    0.090832

  Mayer bond orders larger than 0.100000
B(  0-C ,  1-O ) :   1.9342 B(  0-C ,  2-C ) :   1.0009 B(  0-C ,  4-H ) :   0.9211
B(  2-C ,  3-C ) :   1.9768 B(  2-C ,  5-H ) :   0.9480 B(  3-C ,  6-H ) :   0.9650
B(  3-C ,  7-H ) :   0.9661

-----------------------------------------------------------------------------
         ABSORPTION SPECTRUM VIA TRANSITION ELECTRIC DIPOLE MOMENTS
-----------------------------------------------------------------------------
State   Energy    Wavelength  fosc         T2        TX        TY        TZ
        (cm-1)      (nm)                 (au**2)    (au)      (au)      (au)
-----------------------------------------------------------------------------
   1   34138.7    292.9   0.000193058   0.00186   0.04203   0.00692  -0.00685

Dispersion correction           -0.025485248
FINAL SINGLE POINT ENERGY      -189.318814803737

DIPOLE MOMENT
-------------
                                X             Y             Z
Electronic contribution:     -2.84684      -0.80768       1.25873
Nuclear contribution   :      3.48500       1.15465      -1.89777
                        -----------------------------------------
Total Dipole Moment    :      0.63816       0.34697      -0.63905
                        -----------------------------------------
Magnitude (a.u.)       :      0.96748
Magnitude (Debye)      :      2.45914

Rotational constants in cm-1:     1.269971     0.157802     0.151108
Rotational constants in MHz : 38072.779815  4730.791479  4530.108913

                             ****ORCA TERMINATED NORMALLY****
TOTAL RUN TIME: 0 days 0 hours 0 minutes 12 seconds 373 msec
