                         Program Version 5.0.3 -  RELEASE  -
|  1> ! HF-3c
|  2> !TightSCF
|  3> %scf
|  4>  ConvForced true
|  5>  convergence tight
|  6>  MaxIter 500
|  7> end
|  8>
|  9> %tddft
| 10>  nroots 1
| 11> end
| 12>
| 13> # 	9414
| 14> * xyz 0 1
| 15> 		C   -1.236668  -0.366112  -0.094856
| 16> 		O   -1.823370  -0.949336  -0.875029
| 17> 		C    0.042902   0.442048  -0.286271
| 18> 		C    1.187064   0.076011   0.300159
| 19> 		H   -1.629641  -0.389542   0.974251
| 20> 		H    0.028010   1.490493  -0.858063
| 21> 		H    1.240272  -0.934880   0.728467
| 22> 		H    2.154137   0.598325   0.148445
| 23> *
| 24>
| 25>                          ****END OF INPUT****

CARTESIAN COORDINATES (ANGSTROEM)
---------------------------------
  C     -1.236668   -0.366112   -0.094856
  O     -1.823370   -0.949336   -0.875029
  C      0.042902    0.442048   -0.286271
  C      1.187064    0.076011    0.300159
  H     -1.629641   -0.389542    0.974251
  H      0.028010    1.490493   -0.858063
  H      1.240272   -0.934880    0.728467
  H      2.154137    0.598325    0.148445

 Total Charge           Charge          ....    0
 Multiplicity           Mult            ....    1
 Number of Electrons    NEL             ....   30
 Basis Dimension        Dim             ....   24

ORBITAL ENERGIES
----------------

  NO   OCC          E(Eh)            E(eV)
   0   2.0000     -20.401811      -555.1615
   1   2.0000     -11.321774      -308.0811
   2   2.0000     -11.185164      -304.3638
   3   2.0000     -11.173121      -304.0361
   4   2.0000      -1.467297       -39.9272
   5   2.0000      -1.066262       -29.0145
   6   2.0000      -0.863829       -23.5060
   7   2.0000      -0.758330       -20.6352
   8   2.0000      -0.682846       -18.5812
   9   2.0000      -0.643774       -17.5180
  10   2.0000      -0.608433       -16.5563
  11   2.0000      -0.556102       -15.1323
  12   2.0000      -0.519029       -14.1235
  13   2.0000      -0.408732       -11.1222
  14   2.0000      -0.391592       -10.6557
  15   0.0000       0.186421         5.0728
  16   0.0000       0.243538         6.6270
  17   0.0000       0.523197        14.2369
  18   0.0000       0.550373        14.9764
  19   0.0000       0.657313        17.8864

MULLIKEN ATOMIC CHARGES
-----------------------
   0 C :    0.196453
   1 O :   -0.356961
   2 C :   -0.151095
   3 C :   -0.249991
   4 H :    0.132118
   5 H :    0.153238
   6 H :    0.133910
   7 H :    0.142328
Sum of atomic charges:    0.0000000

LOEWDIN ATOMIC CHARGES
----------------------
   0 C :    0.153434
   1 O :   -0.232823
   2 C :   -0.117419
   3 C :   -0.161979
   4 H :    0.068541
   5 H :    0.109005
   6 H :    0.086754
   7 H :    0.094487

  Mayer bond orders larger than 0.100000
B(  0-C ,  1-O ) :   1.9577 B(  0-C ,  2-C ) :   0.9656 B(  0-C ,  4-H ) :   0.9055
B(  2-C ,  3-C ) :   1.9979 B(  2-C ,  5-H ) :   0.9454 B(  3-C ,  6-H ) :   0.9647
B(  3-C ,  7-H ) :   0.9631

-----------------------------------------------------------------------------
         ABSORPTION SPECTRUM VIA TRANSITION ELECTRIC DIPOLE MOMENTS
-----------------------------------------------------------------------------
State   Energy    Wavelength  fosc         T2        TX        TY        TZ
        (cm-1)      (nm)                 (au**2)    (au)      (au)      (au)
-----------------------------------------------------------------------------
   1   38724.9    258.2   0.000034059   0.00029  -0.01071   0.01322   0.00029

Dispersion correction           -0.024727815
FINAL SINGLE POINT ENERGY      -189.289536825391

DIPOLE MOMENT
-------------
                                X             Y             Z
Electronic contribution:     -2.91457      -1.04385      -1.30434
Nuclear contribution   :      3.49931       1.54934       1.85762
                        -----------------------------------------
Total Dipole Moment    :      0.58474       0.50549       0.55327
                        -----------------------------------------
Magnitude (a.u.)       :      0.95055
Magnitude (Debye)      :      2.41612

Rotational constants in cm-1:     1.172221     0.157318     0.151437
Rotational constants in MHz : 35142.309015  4716.285223  4539.957687

                             ****ORCA TERMINATED NORMALLY****
TOTAL RUN TIME: 0 days 0 hours 0 minutes 13 seconds 188 msec
