                         Program Version 5.0.3 -  RELEASE  -
|  1> ! B3LYP cc-pVDZ
|  2> !TightSCF
|  3> %scf
|  4>  ConvForced true
|  5>  convergence tight
|  6>  MaxIter 500
|  7> end
|  8>
|  9> %tddft
| 10>  nroots 1
| 11> end
| 12>
| 13> # 	31082
| 14> * xyz 0 1
| 15> 		C   -0.584512  -0.429394  -0.021544
| 16> 		O   -0.575952  -1.630672   0.000504
| 17> 		C    0.624750   0.408295   0.035222
| 18> 		C    1.840517  -0.114408  -0.013743
| 19> 		H   -1.599670   0.120332   0.056907
| 20> 		H    0.505202   1.431779  -0.111805
| 21> 		H    1.974042  -1.160319   0.092127
| 22> 		H    2.790935   0.358971  -0.054171
| 23> *
| 24>
| 25>                          ****END OF INPUT****

CARTESIAN COORDINATES (ANGSTROEM)
---------------------------------
  C     -0.584512   -0.429394   -0.021544
  O     -0.575952   -1.630672    0.000504
  C      0.624750    0.408295    0.035222
  C      1.840517   -0.114408   -0.013743
  H     -1.599670    0.120332    0.056907
  H      0.505202    1.431779   -0.111805
  H      1.974042   -1.160319    0.092127
  H      2.790935    0.358971   -0.054171

 Total Charge           Charge          ....    0
 Multiplicity           Mult            ....    1
 Number of Electrons    NEL             ....   30
 Basis Dimension        Dim             ....   76

ORBITAL ENERGIES
----------------

  NO   OCC          E(Eh)            E(eV)
   0   2.0000     -19.137574      -520.7599
   1   2.0000     -10.276495      -279.6376
   2   2.0000     -10.206781      -277.7406
   3   2.0000     -10.199159      -277.5332
   4   2.0000      -1.051221       -28.6052
   5   2.0000      -0.800242       -21.7757
   6   2.0000      -0.659382       -17.9427
   7   2.0000      -0.549248       -14.9458
   8   2.0000      -0.510885       -13.9019
   9   2.0000      -0.452921       -12.3246
  10   2.0000      -0.428320       -11.6552
  11   2.0000      -0.401679       -10.9302
  12   2.0000      -0.378864       -10.3094
  13   2.0000      -0.290825        -7.9138
  14   2.0000      -0.255410        -6.9501
  15   0.0000      -0.069603        -1.8940
  16   0.0000       0.062510         1.7010
  17   0.0000       0.073527         2.0008
  18   0.0000       0.096019         2.6128
  19   0.0000       0.125238         3.4079

MULLIKEN ATOMIC CHARGES
-----------------------
   0 C :    0.160685
   1 O :   -0.179676
   2 C :   -0.083977
   3 C :    0.105085
   4 H :   -0.017649
   5 H :   -0.027996
   6 H :    0.021085
   7 H :    0.022445
Sum of atomic charges:    0.0000000

LOEWDIN ATOMIC CHARGES
----------------------
   0 C :   -0.041896
   1 O :    0.004848
   2 C :   -0.075105
   3 C :    0.046235
   4 H :   -0.002979
   5 H :    0.017384
   6 H :    0.025276
   7 H :    0.026237

  Mayer bond orders larger than 0.100000
B(  0-C ,  1-O ) :   2.2022 B(  0-C ,  2-C ) :   1.0493 B(  0-C ,  4-H ) :   0.9094
B(  2-C ,  3-C ) :   1.9663 B(  2-C ,  5-H ) :   0.9473 B(  3-C ,  6-H ) :   0.9359
B(  3-C ,  7-H ) :   0.9522

-----------------------------------------------------------------------------
         ABSORPTION SPECTRUM VIA TRANSITION ELECTRIC DIPOLE MOMENTS
-----------------------------------------------------------------------------
State   Energy    Wavelength  fosc         T2        TX        TY        TZ
        (cm-1)      (nm)                 (au**2)    (au)      (au)      (au)
-----------------------------------------------------------------------------
   1   27969.2    357.5   0.000401495   0.00473  -0.06117  -0.00211   0.03131

FINAL SINGLE POINT ENERGY      -191.673246780956

DIPOLE MOMENT
-------------
                                X             Y             Z
Electronic contribution:     -1.83730      -1.64289      -0.01454
Nuclear contribution   :      2.28763       2.49194      -0.01523
                        -----------------------------------------
Total Dipole Moment    :      0.45033       0.84904      -0.02977
                        -----------------------------------------
Magnitude (a.u.)       :      0.96154
Magnitude (Debye)      :      2.44404

Rotational constants in cm-1:     0.777977     0.210315     0.165722
Rotational constants in MHz : 23323.171101  6305.087796  4968.214947

                             ****ORCA TERMINATED NORMALLY****
TOTAL RUN TIME: 0 days 0 hours 3 minutes 23 seconds 5 msec
