                         Program Version 5.0.3 -  RELEASE  -
|  1> ! HF-3c
|  2> !TightSCF
|  3> %scf
|  4>  ConvForced true
|  5>  convergence tight
|  6>  MaxIter 500
|  7> end
|  8>
|  9> %tddft
| 10>  nroots 1
| 11> end
| 12>
| 13> # 	22193
| 14> * xyz 0 1
| 15> 		C   -0.575139  -0.432807  -0.002751
| 16> 		O   -0.573410  -1.609037   0.002926
| 17> 		C    0.645510   0.355982   0.011619
| 18> 		C    1.812488  -0.100214   0.003651
| 19> 		H   -1.582052   0.320408  -0.105111
| 20> 		H    0.531840   1.367879   0.038160
| 21> 		H    1.930292  -1.313671  -0.014464
| 22> 		H    2.742592   0.546707  -0.117027
| 23> *
| 24>
| 25>                          ****END OF INPUT****

CARTESIAN COORDINATES (ANGSTROEM)
---------------------------------
  C     -0.575139   -0.432807   -0.002751
  O     -0.573410   -1.609037    0.002926
  C      0.645510    0.355982    0.011619
  C      1.812488   -0.100214    0.003651
  H     -1.582052    0.320408   -0.105111
  H      0.531840    1.367879    0.038160
  H      1.930292   -1.313671   -0.014464
  H      2.742592    0.546707   -0.117027

 Total Charge           Charge          ....    0
 Multiplicity           Mult            ....    1
 Number of Electrons    NEL             ....   30
 Basis Dimension        Dim             ....   24

ORBITAL ENERGIES
----------------

  NO   OCC          E(Eh)            E(eV)
   0   2.0000     -20.373607      -554.3940
   1   2.0000     -11.302541      -307.5578
   2   2.0000     -11.191203      -304.5281
   3   2.0000     -11.182085      -304.2800
   4   2.0000      -1.427224       -38.8367
   5   2.0000      -1.102206       -29.9926
   6   2.0000      -0.879474       -23.9317
   7   2.0000      -0.725803       -19.7501
   8   2.0000      -0.703536       -19.1442
   9   2.0000      -0.617633       -16.8066
  10   2.0000      -0.594599       -16.1799
  11   2.0000      -0.560865       -15.2619
  12   2.0000      -0.503892       -13.7116
  13   2.0000      -0.415266       -11.3000
  14   2.0000      -0.399393       -10.8680
  15   0.0000       0.150806         4.1036
  16   0.0000       0.342973         9.3328
  17   0.0000       0.469813        12.7843
  18   0.0000       0.536138        14.5891
  19   0.0000       0.595437        16.2027

MULLIKEN ATOMIC CHARGES
-----------------------
   0 C :    0.205086
   1 O :   -0.367996
   2 C :   -0.223096
   3 C :   -0.192090
   4 H :    0.128490
   5 H :    0.139156
   6 H :    0.160792
   7 H :    0.149659
Sum of atomic charges:   -0.0000000

LOEWDIN ATOMIC CHARGES
----------------------
   0 C :    0.162080
   1 O :   -0.260091
   2 C :   -0.172742
   3 C :   -0.106657
   4 H :    0.076791
   5 H :    0.082758
   6 H :    0.115938
   7 H :    0.101922

  Mayer bond orders larger than 0.100000
B(  0-C ,  1-O ) :   1.9212 B(  0-C ,  2-C ) :   1.0108 B(  0-C ,  4-H ) :   0.8987
B(  2-C ,  3-C ) :   1.9608 B(  2-C ,  5-H ) :   0.9553 B(  3-C ,  6-H ) :   0.9470
B(  3-C ,  7-H ) :   0.9583

-----------------------------------------------------------------------------
         ABSORPTION SPECTRUM VIA TRANSITION ELECTRIC DIPOLE MOMENTS
-----------------------------------------------------------------------------
State   Energy    Wavelength  fosc         T2        TX        TY        TZ
        (cm-1)      (nm)                 (au**2)    (au)      (au)      (au)
-----------------------------------------------------------------------------
   1   35313.0    283.2   0.000041653   0.00039   0.00932  -0.00344   0.01702

Dispersion correction           -0.026189196
FINAL SINGLE POINT ENERGY      -189.290723503365

DIPOLE MOMENT
-------------
                                X             Y             Z
Electronic contribution:     -1.90387      -1.77651       0.13803
Nuclear contribution   :      2.24160       2.65098      -0.18594
                        -----------------------------------------
Total Dipole Moment    :      0.33773       0.87447      -0.04791
                        -----------------------------------------
Magnitude (a.u.)       :      0.93864
Magnitude (Debye)      :      2.38584

Rotational constants in cm-1:     0.815517     0.214980     0.170229
Rotational constants in MHz : 24448.571163  6444.937526  5103.350064

                             ****ORCA TERMINATED NORMALLY****
TOTAL RUN TIME: 0 days 0 hours 0 minutes 16 seconds 78 msec
