                         Program Version 5.0.3 -  RELEASE  -
|  1> ! HF-3c
|  2> !TightSCF
|  3> %scf
|  4>  ConvForced true
|  5>  convergence tight
|  6>  MaxIter 500
|  7> end
|  8>
|  9> %tddft
| 10>  nroots 1
| 11> end
| 12>
| 13> # 	9730
| 14> * xyz 0 1
| 15> 		C   -1.227129  -0.253144   0.002823
| 16> 		O   -1.631217  -1.021034  -0.822639
| 17> 		C    0.002552   0.566488  -0.237234
| 18> 		C    1.231374   0.026823   0.197486
| 19> 		H   -1.607863  -0.238897   0.993619
| 20> 		H   -0.161007   1.374250  -0.781135
| 21> 		H    1.170062  -0.892378   0.587612
| 22> 		H    2.201732   0.505874   0.033595
| 23> *
| 24>
| 25>                          ****END OF INPUT****

CARTESIAN COORDINATES (ANGSTROEM)
---------------------------------
  C     -1.227129   -0.253144    0.002823
  O     -1.631217   -1.021034   -0.822639
  C      0.002552    0.566488   -0.237234
  C      1.231374    0.026823    0.197486
  H     -1.607863   -0.238897    0.993619
  H     -0.161007    1.374250   -0.781135
  H      1.170062   -0.892378    0.587612
  H      2.201732    0.505874    0.033595

 Total Charge           Charge          ....    0
 Multiplicity           Mult            ....    1
 Number of Electrons    NEL             ....   30
 Basis Dimension        Dim             ....   24

ORBITAL ENERGIES
----------------

  NO   OCC          E(Eh)            E(eV)
   0   2.0000     -20.385104      -554.7069
   1   2.0000     -11.305847      -307.6477
   2   2.0000     -11.192143      -304.5537
   3   2.0000     -11.185760      -304.3800
   4   2.0000      -1.422103       -38.6974
   5   2.0000      -1.069243       -29.0956
   6   2.0000      -0.893373       -24.3099
   7   2.0000      -0.798833       -21.7374
   8   2.0000      -0.692833       -18.8529
   9   2.0000      -0.640523       -17.4295
  10   2.0000      -0.609159       -16.5761
  11   2.0000      -0.578471       -15.7410
  12   2.0000      -0.516343       -14.0504
  13   2.0000      -0.418957       -11.4004
  14   2.0000      -0.385637       -10.4937
  15   0.0000       0.170200         4.6314
  16   0.0000       0.200123         5.4456
  17   0.0000       0.576450        15.6860
  18   0.0000       0.673265        18.3205
  19   0.0000       0.708572        19.2812

MULLIKEN ATOMIC CHARGES
-----------------------
   0 C :    0.165303
   1 O :   -0.338312
   2 C :   -0.161867
   3 C :   -0.242977
   4 H :    0.142413
   5 H :    0.147596
   6 H :    0.137503
   7 H :    0.150341
Sum of atomic charges:    0.0000000

LOEWDIN ATOMIC CHARGES
----------------------
   0 C :    0.149399
   1 O :   -0.238408
   2 C :   -0.109889
   3 C :   -0.144551
   4 H :    0.073624
   5 H :    0.087385
   6 H :    0.082380
   7 H :    0.100061

  Mayer bond orders larger than 0.100000
B(  0-C ,  1-O ) :   1.9511 B(  0-C ,  2-C ) :   0.9844 B(  0-C ,  4-H ) :   0.9229
B(  2-C ,  3-C ) :   1.9853 B(  2-C ,  5-H ) :   0.9614 B(  3-C ,  6-H ) :   0.9716
B(  3-C ,  7-H ) :   0.9655

-----------------------------------------------------------------------------
         ABSORPTION SPECTRUM VIA TRANSITION ELECTRIC DIPOLE MOMENTS
-----------------------------------------------------------------------------
State   Energy    Wavelength  fosc         T2        TX        TY        TZ
        (cm-1)      (nm)                 (au**2)    (au)      (au)      (au)
-----------------------------------------------------------------------------
   1   34729.9    287.9   0.000078588   0.00074   0.01254   0.00997  -0.02210

Dispersion correction           -0.025516018
FINAL SINGLE POINT ENERGY      -189.296668770755

DIPOLE MOMENT
-------------
                                X             Y             Z
Electronic contribution:     -2.65751      -0.92983      -1.02990
Nuclear contribution   :      3.11941       1.45991       1.62776
                        -----------------------------------------
Total Dipole Moment    :      0.46190       0.53008       0.59785
                        -----------------------------------------
Magnitude (a.u.)       :      0.92291
Magnitude (Debye)      :      2.34586

Rotational constants in cm-1:     0.938529     0.171141     0.162346
Rotational constants in MHz : 28136.384342  5130.665989  4867.017117

                             ****ORCA TERMINATED NORMALLY****
TOTAL RUN TIME: 0 days 0 hours 0 minutes 15 seconds 561 msec
