                         Program Version 5.0.3 -  RELEASE  -
|  1> ! B3LYP cc-pVDZ
|  2> !TightSCF
|  3> %scf
|  4>  ConvForced true
|  5>  convergence tight
|  6>  MaxIter 500
|  7> end
|  8>
|  9> %tddft
| 10>  nroots 1
| 11> end
| 12>
| 13> # 	31369
| 14> * xyz 0 1
| 15> 		C   -0.600839  -0.455361   0.026423
| 16> 		O   -0.571873  -1.637252  -0.018292
| 17> 		C    0.620380   0.472039  -0.020381
| 18> 		C    1.854267  -0.133833   0.015188
| 19> 		H   -1.627708   0.029482   0.034826
| 20> 		H    0.459155   1.417162   0.003428
| 21> 		H    1.938268  -1.250429   0.144532
| 22> 		H    2.923219   0.420824  -0.156679
| 23> *
| 24>
| 25>                          ****END OF INPUT****

CARTESIAN COORDINATES (ANGSTROEM)
---------------------------------
  C     -0.600839   -0.455361    0.026423
  O     -0.571873   -1.637252   -0.018292
  C      0.620380    0.472039   -0.020381
  C      1.854267   -0.133833    0.015188
  H     -1.627708    0.029482    0.034826
  H      0.459155    1.417162    0.003428
  H      1.938268   -1.250429    0.144532
  H      2.923219    0.420824   -0.156679

 Total Charge           Charge          ....    0
 Multiplicity           Mult            ....    1
 Number of Electrons    NEL             ....   30
 Basis Dimension        Dim             ....   76

ORBITAL ENERGIES
----------------

  NO   OCC          E(Eh)            E(eV)
   0   2.0000     -19.138169      -520.7760
   1   2.0000     -10.276504      -279.6379
   2   2.0000     -10.230647      -278.3901
   3   2.0000     -10.201660      -277.6013
   4   2.0000      -1.061706       -28.8905
   5   2.0000      -0.784368       -21.3437
   6   2.0000      -0.640914       -17.4401
   7   2.0000      -0.551749       -15.0138
   8   2.0000      -0.503599       -13.7036
   9   2.0000      -0.446700       -12.1553
  10   2.0000      -0.424595       -11.5538
  11   2.0000      -0.404841       -11.0163
  12   2.0000      -0.379074       -10.3151
  13   2.0000      -0.282671        -7.6919
  14   2.0000      -0.253604        -6.9009
  15   0.0000      -0.066437        -1.8078
  16   0.0000       0.052096         1.4176
  17   0.0000       0.064817         1.7637
  18   0.0000       0.086074         2.3422
  19   0.0000       0.126578         3.4444

MULLIKEN ATOMIC CHARGES
-----------------------
   0 C :    0.158556
   1 O :   -0.165621
   2 C :   -0.005659
   3 C :   -0.013341
   4 H :   -0.022788
   5 H :   -0.071104
   6 H :    0.058330
   7 H :    0.061627
Sum of atomic charges:    0.0000000

LOEWDIN ATOMIC CHARGES
----------------------
   0 C :   -0.043360
   1 O :    0.019550
   2 C :   -0.056452
   3 C :    0.016624
   4 H :   -0.008433
   5 H :   -0.016710
   6 H :    0.038391
   7 H :    0.050391

  Mayer bond orders larger than 0.100000
B(  0-C ,  1-O ) :   2.2198 B(  0-C ,  2-C ) :   1.0164 B(  0-C ,  4-H ) :   0.9117
B(  2-C ,  3-C ) :   1.9343 B(  2-C ,  5-H ) :   0.9594 B(  3-C ,  6-H ) :   0.9317
B(  3-C ,  7-H ) :   0.9484

-----------------------------------------------------------------------------
         ABSORPTION SPECTRUM VIA TRANSITION ELECTRIC DIPOLE MOMENTS
-----------------------------------------------------------------------------
State   Energy    Wavelength  fosc         T2        TX        TY        TZ
        (cm-1)      (nm)                 (au**2)    (au)      (au)      (au)
-----------------------------------------------------------------------------
   1   28690.3    348.5   0.000074557   0.00086   0.01423  -0.00258   0.02542

FINAL SINGLE POINT ENERGY      -191.649410495249

DIPOLE MOMENT
-------------
                                X             Y             Z
Electronic contribution:     -1.94878      -1.55087       0.00209
Nuclear contribution   :      2.30843       2.36770       0.02498
                        -----------------------------------------
Total Dipole Moment    :      0.35965       0.81683       0.02708
                        -----------------------------------------
Magnitude (a.u.)       :      0.89291
Magnitude (Debye)      :      2.26960

Rotational constants in cm-1:     0.738631     0.205710     0.161110
Rotational constants in MHz : 22143.591699  6167.031394  4829.948880

                             ****ORCA TERMINATED NORMALLY****
TOTAL RUN TIME: 0 days 0 hours 3 minutes 20 seconds 795 msec
