                         Program Version 5.0.3 -  RELEASE  -
|  1> ! HF-3c
|  2> !TightSCF
|  3> %scf
|  4>  ConvForced true
|  5>  convergence tight
|  6>  MaxIter 500
|  7> end
|  8>
|  9> %tddft
| 10>  nroots 1
| 11> end
| 12>
| 13> # 	15594
| 14> * xyz 0 1
| 15> 		C   -1.173243  -0.388003  -0.066157
| 16> 		O   -1.796288  -1.011969  -0.905238
| 17> 		C    0.042603   0.414978  -0.379686
| 18> 		C    1.113193   0.032909   0.233524
| 19> 		H   -1.362046  -0.488588   1.062500
| 20> 		H   -0.153682   1.332377  -0.920345
| 21> 		H    1.228342  -0.690590   0.886320
| 22> 		H    2.104921   0.750052   0.074342
| 23> *
| 24>
| 25>                          ****END OF INPUT****

CARTESIAN COORDINATES (ANGSTROEM)
---------------------------------
  C     -1.173243   -0.388003   -0.066157
  O     -1.796288   -1.011969   -0.905238
  C      0.042603    0.414978   -0.379686
  C      1.113193    0.032909    0.233524
  H     -1.362046   -0.488588    1.062500
  H     -0.153682    1.332377   -0.920345
  H      1.228342   -0.690590    0.886320
  H      2.104921    0.750052    0.074342

 Total Charge           Charge          ....    0
 Multiplicity           Mult            ....    1
 Number of Electrons    NEL             ....   30
 Basis Dimension        Dim             ....   24

ORBITAL ENERGIES
----------------

  NO   OCC          E(Eh)            E(eV)
   0   2.0000     -20.369170      -554.2733
   1   2.0000     -11.291511      -307.2576
   2   2.0000     -11.196903      -304.6832
   3   2.0000     -11.187777      -304.4349
   4   2.0000      -1.397566       -38.0297
   5   2.0000      -1.100006       -29.9327
   6   2.0000      -0.872863       -23.7518
   7   2.0000      -0.778011       -21.1708
   8   2.0000      -0.676188       -18.4000
   9   2.0000      -0.641725       -17.4622
  10   2.0000      -0.608859       -16.5679
  11   2.0000      -0.530767       -14.4429
  12   2.0000      -0.506471       -13.7818
  13   2.0000      -0.416431       -11.3317
  14   2.0000      -0.399972       -10.8838
  15   0.0000       0.169699         4.6177
  16   0.0000       0.249080         6.7778
  17   0.0000       0.501266        13.6401
  18   0.0000       0.581274        15.8173
  19   0.0000       0.665255        18.1025

MULLIKEN ATOMIC CHARGES
-----------------------
   0 C :    0.176781
   1 O :   -0.346640
   2 C :   -0.169631
   3 C :   -0.243117
   4 H :    0.136685
   5 H :    0.160222
   6 H :    0.139236
   7 H :    0.146464
Sum of atomic charges:    0.0000000

LOEWDIN ATOMIC CHARGES
----------------------
   0 C :    0.153707
   1 O :   -0.252552
   2 C :   -0.118420
   3 C :   -0.152926
   4 H :    0.076949
   5 H :    0.105251
   6 H :    0.081513
   7 H :    0.106478

  Mayer bond orders larger than 0.100000
B(  0-C ,  1-O ) :   1.9438 B(  0-C ,  2-C ) :   0.9846 B(  0-C ,  4-H ) :   0.9160
B(  2-C ,  3-C ) :   1.9981 B(  2-C ,  5-H ) :   0.9498 B(  3-C ,  6-H ) :   0.9681
B(  3-C ,  7-H ) :   0.9543

-----------------------------------------------------------------------------
         ABSORPTION SPECTRUM VIA TRANSITION ELECTRIC DIPOLE MOMENTS
-----------------------------------------------------------------------------
State   Energy    Wavelength  fosc         T2        TX        TY        TZ
        (cm-1)      (nm)                 (au**2)    (au)      (au)      (au)
-----------------------------------------------------------------------------
   1   33870.4    295.2   0.000264512   0.00257  -0.04337  -0.01757   0.01953

Dispersion correction           -0.025708538
FINAL SINGLE POINT ENERGY      -189.300304131083

DIPOLE MOMENT
-------------
                                X             Y             Z
Electronic contribution:     -2.84083      -1.21003      -1.38679
Nuclear contribution   :      3.50081       1.81092       2.09117
                        -----------------------------------------
Total Dipole Moment    :      0.65999       0.60089       0.70438
                        -----------------------------------------
Magnitude (a.u.)       :      1.13701
Magnitude (Debye)      :      2.89006

Rotational constants in cm-1:     1.142499     0.165902     0.158940
Rotational constants in MHz : 34251.262655  4973.624793  4764.891641

                             ****ORCA TERMINATED NORMALLY****
TOTAL RUN TIME: 0 days 0 hours 0 minutes 16 seconds 118 msec
