                         Program Version 5.0.3 -  RELEASE  -
|  1> ! B3LYP cc-pVDZ
|  2> !TightSCF
|  3> %scf
|  4>  ConvForced true
|  5>  convergence tight
|  6>  MaxIter 500
|  7> end
|  8>
|  9> %tddft
| 10>  nroots 1
| 11> end
| 12>
| 13> # 	3820
| 14> * xyz 0 1
| 15> 		C   -1.155556  -0.279072   0.066217
| 16> 		O   -1.132402  -1.389587   0.057271
| 17> 		C   -0.040871   0.591516   0.095901
| 18> 		C    1.232942  -0.050585   0.065809
| 19> 		H   -2.183157   0.128873  -0.130814
| 20> 		H   -0.372210   1.696851  -0.042568
| 21> 		H    1.274617  -1.129731   0.126528
| 22> 		H    2.331856   0.544651  -0.210030
| 23> *
| 24>
| 25>                          ****END OF INPUT****

CARTESIAN COORDINATES (ANGSTROEM)
---------------------------------
  C     -1.155556   -0.279072    0.066217
  O     -1.132402   -1.389587    0.057271
  C     -0.040871    0.591516    0.095901
  C      1.232942   -0.050585    0.065809
  H     -2.183157    0.128873   -0.130814
  H     -0.372210    1.696851   -0.042568
  H      1.274617   -1.129731    0.126528
  H      2.331856    0.544651   -0.210030

 Total Charge           Charge          ....    0
 Multiplicity           Mult            ....    1
 Number of Electrons    NEL             ....   30
 Basis Dimension        Dim             ....   76

ORBITAL ENERGIES
----------------

  NO   OCC          E(Eh)            E(eV)
   0   2.0000     -19.125379      -520.4280
   1   2.0000     -10.255345      -279.0621
   2   2.0000     -10.242878      -278.7229
   3   2.0000     -10.215940      -277.9899
   4   2.0000      -1.101957       -29.9858
   5   2.0000      -0.783318       -21.3152
   6   2.0000      -0.650208       -17.6931
   7   2.0000      -0.531769       -14.4702
   8   2.0000      -0.503097       -13.6900
   9   2.0000      -0.456255       -12.4153
  10   2.0000      -0.431173       -11.7328
  11   2.0000      -0.411931       -11.2092
  12   2.0000      -0.380037       -10.3413
  13   2.0000      -0.278392        -7.5754
  14   2.0000      -0.244646        -6.6572
  15   0.0000      -0.072684        -1.9778
  16   0.0000       0.046016         1.2522
  17   0.0000       0.072491         1.9726
  18   0.0000       0.080760         2.1976
  19   0.0000       0.127425         3.4674

MULLIKEN ATOMIC CHARGES
-----------------------
   0 C :    0.160125
   1 O :   -0.111222
   2 C :   -0.120022
   3 C :   -0.010401
   4 H :   -0.070486
   5 H :    0.020964
   6 H :    0.056536
   7 H :    0.074506
Sum of atomic charges:   -0.0000000

LOEWDIN ATOMIC CHARGES
----------------------
   0 C :   -0.138091
   1 O :    0.088957
   2 C :   -0.085364
   3 C :    0.024433
   4 H :   -0.021493
   5 H :    0.044003
   6 H :    0.027199
   7 H :    0.060356

  Mayer bond orders larger than 0.100000
B(  0-C ,  1-O ) :   2.2879 B(  0-C ,  2-C ) :   1.0617 B(  0-C ,  4-H ) :   0.9119
B(  2-C ,  3-C ) :   1.8839 B(  2-C ,  5-H ) :   0.9452 B(  3-C ,  6-H ) :   0.9306
B(  3-C ,  7-H ) :   0.9487

-----------------------------------------------------------------------------
         ABSORPTION SPECTRUM VIA TRANSITION ELECTRIC DIPOLE MOMENTS
-----------------------------------------------------------------------------
State   Energy    Wavelength  fosc         T2        TX        TY        TZ
        (cm-1)      (nm)                 (au**2)    (au)      (au)      (au)
-----------------------------------------------------------------------------
   1   26209.1    381.5   0.000601706   0.00756  -0.07690  -0.02075   0.03485

FINAL SINGLE POINT ENERGY      -191.628569323654

DIPOLE MOMENT
-------------
                                X             Y             Z
Electronic contribution:     -1.66065      -1.68327       0.40267
Nuclear contribution   :      2.08618       2.34199      -0.46830
                        -----------------------------------------
Total Dipole Moment    :      0.42554       0.65872      -0.06562
                        -----------------------------------------
Magnitude (a.u.)       :      0.78695
Magnitude (Debye)      :      2.00028

Rotational constants in cm-1:     0.731221     0.227529     0.174038
Rotational constants in MHz : 21921.465892  6821.133256  5217.531104

                             ****ORCA TERMINATED NORMALLY****
TOTAL RUN TIME: 0 days 0 hours 3 minutes 27 seconds 817 msec
