                         Program Version 5.0.3 -  RELEASE  -
|  1> ! B3LYP cc-pVDZ
|  2> !TightSCF
|  3> %scf
|  4>  ConvForced true
|  5>  convergence tight
|  6>  MaxIter 500
|  7> end
|  8>
|  9> %tddft
| 10>  nroots 1
| 11> end
| 12>
| 13> # 	19367
| 14> * xyz 0 1
| 15> 		C   -1.200271  -0.347146   0.009286
| 16> 		O   -1.553638  -1.303223   0.721328
| 17> 		C    0.018964   0.461417   0.190041
| 18> 		C    1.188559   0.016835  -0.133283
| 19> 		H   -1.698112  -0.081216  -0.945728
| 20> 		H    0.000408   1.332114   0.824094
| 21> 		H    1.148871  -0.792030  -0.627836
| 22> 		H    2.080436   0.618532   0.007634
| 23> *
| 24>
| 25>                          ****END OF INPUT****

CARTESIAN COORDINATES (ANGSTROEM)
---------------------------------
  C     -1.200271   -0.347146    0.009286
  O     -1.553638   -1.303223    0.721328
  C      0.018964    0.461417    0.190041
  C      1.188559    0.016835   -0.133283
  H     -1.698112   -0.081216   -0.945728
  H      0.000408    1.332114    0.824094
  H      1.148871   -0.792030   -0.627836
  H      2.080436    0.618532    0.007634

 Total Charge           Charge          ....    0
 Multiplicity           Mult            ....    1
 Number of Electrons    NEL             ....   30
 Basis Dimension        Dim             ....   76

ORBITAL ENERGIES
----------------

  NO   OCC          E(Eh)            E(eV)
   0   2.0000     -19.150759      -521.1187
   1   2.0000     -10.285967      -279.8954
   2   2.0000     -10.196758      -277.4679
   3   2.0000     -10.184736      -277.1407
   4   2.0000      -1.036219       -28.1969
   5   2.0000      -0.815379       -22.1876
   6   2.0000      -0.662315       -18.0225
   7   2.0000      -0.568293       -15.4640
   8   2.0000      -0.504154       -13.7187
   9   2.0000      -0.455557       -12.3963
  10   2.0000      -0.442149       -12.0315
  11   2.0000      -0.398765       -10.8509
  12   2.0000      -0.366586        -9.9753
  13   2.0000      -0.293947        -7.9987
  14   2.0000      -0.259864        -7.0713
  15   0.0000      -0.045397        -1.2353
  16   0.0000      -0.004660        -0.1268
  17   0.0000       0.082921         2.2564
  18   0.0000       0.095901         2.6096
  19   0.0000       0.120650         3.2831

MULLIKEN ATOMIC CHARGES
-----------------------
   0 C :    0.179214
   1 O :   -0.199792
   2 C :   -0.120173
   3 C :    0.161851
   4 H :    0.002303
   5 H :    0.008457
   6 H :   -0.053399
   7 H :    0.021539
Sum of atomic charges:    0.0000000

LOEWDIN ATOMIC CHARGES
----------------------
   0 C :    0.005246
   1 O :   -0.015045
   2 C :   -0.054710
   3 C :    0.006168
   4 H :   -0.000694
   5 H :    0.035673
   6 H :   -0.014457
   7 H :    0.037819

  Mayer bond orders larger than 0.100000
B(  0-C ,  1-O ) :   2.2127 B(  0-C ,  2-C ) :   0.9849 B(  0-C ,  4-H ) :   0.9117
B(  2-C ,  3-C ) :   2.0640 B(  2-C ,  5-H ) :   0.9307 B(  3-C ,  6-H ) :   0.9266
B(  3-C ,  7-H ) :   0.9419

-----------------------------------------------------------------------------
         ABSORPTION SPECTRUM VIA TRANSITION ELECTRIC DIPOLE MOMENTS
-----------------------------------------------------------------------------
State   Energy    Wavelength  fosc         T2        TX        TY        TZ
        (cm-1)      (nm)                 (au**2)    (au)      (au)      (au)
-----------------------------------------------------------------------------
   1   31291.9    319.6   0.000046676   0.00049  -0.00576  -0.00015   0.02140

FINAL SINGLE POINT ENERGY      -191.624659802158

DIPOLE MOMENT
-------------
                                X             Y             Z
Electronic contribution:     -2.50455      -1.47274       1.01468
Nuclear contribution   :      2.97470       2.21385      -1.46388
                        -----------------------------------------
Total Dipole Moment    :      0.47015       0.74111      -0.44920
                        -----------------------------------------
Magnitude (a.u.)       :      0.98594
Magnitude (Debye)      :      2.50605

Rotational constants in cm-1:     0.964163     0.175417     0.162926
Rotational constants in MHz : 28904.866748  5258.874273  4884.389776

                             ****ORCA TERMINATED NORMALLY****
TOTAL RUN TIME: 0 days 0 hours 3 minutes 28 seconds 321 msec
