                         Program Version 5.0.3 -  RELEASE  -
|  1> ! HF-3c
|  2> !TightSCF
|  3> %scf
|  4>  ConvForced true
|  5>  convergence tight
|  6>  MaxIter 500
|  7> end
|  8>
|  9> %tddft
| 10>  nroots 1
| 11> end
| 12>
| 13> # 	10362
| 14> * xyz 0 1
| 15> 		C   -1.177940  -0.367109  -0.001246
| 16> 		O   -1.309562  -1.537615   0.307331
| 17> 		C    0.075526   0.502671   0.150218
| 18> 		C    1.238426   0.001298  -0.021454
| 19> 		H   -2.224685   0.190076  -0.444586
| 20> 		H   -0.121984   1.481568   0.419761
| 21> 		H    1.438936  -0.974137  -0.510387
| 22> 		H    2.088692   0.746608   0.100088
| 23> *
| 24>
| 25>                          ****END OF INPUT****

CARTESIAN COORDINATES (ANGSTROEM)
---------------------------------
  C     -1.177940   -0.367109   -0.001246
  O     -1.309562   -1.537615    0.307331
  C      0.075526    0.502671    0.150218
  C      1.238426    0.001298   -0.021454
  H     -2.224685    0.190076   -0.444586
  H     -0.121984    1.481568    0.419761
  H      1.438936   -0.974137   -0.510387
  H      2.088692    0.746608    0.100088

 Total Charge           Charge          ....    0
 Multiplicity           Mult            ....    1
 Number of Electrons    NEL             ....   30
 Basis Dimension        Dim             ....   24

ORBITAL ENERGIES
----------------

  NO   OCC          E(Eh)            E(eV)
   0   2.0000     -20.359702      -554.0157
   1   2.0000     -11.285111      -307.0835
   2   2.0000     -11.197025      -304.6865
   3   2.0000     -11.194051      -304.6056
   4   2.0000      -1.389820       -37.8189
   5   2.0000      -1.094790       -29.7907
   6   2.0000      -0.865514       -23.5518
   7   2.0000      -0.739730       -20.1291
   8   2.0000      -0.685711       -18.6592
   9   2.0000      -0.617324       -16.7982
  10   2.0000      -0.591963       -16.1081
  11   2.0000      -0.532966       -14.5027
  12   2.0000      -0.518655       -14.1133
  13   2.0000      -0.416945       -11.3457
  14   2.0000      -0.389268       -10.5925
  15   0.0000       0.157442         4.2842
  16   0.0000       0.287801         7.8315
  17   0.0000       0.460181        12.5222
  18   0.0000       0.589540        16.0422
  19   0.0000       0.613852        16.7038

MULLIKEN ATOMIC CHARGES
-----------------------
   0 C :    0.189550
   1 O :   -0.360448
   2 C :   -0.188357
   3 C :   -0.220503
   4 H :    0.124075
   5 H :    0.148105
   6 H :    0.160067
   7 H :    0.147511
Sum of atomic charges:    0.0000000

LOEWDIN ATOMIC CHARGES
----------------------
   0 C :    0.154502
   1 O :   -0.265432
   2 C :   -0.135420
   3 C :   -0.128103
   4 H :    0.074928
   5 H :    0.091192
   6 H :    0.107890
   7 H :    0.100443

  Mayer bond orders larger than 0.100000
B(  0-C ,  1-O ) :   1.9364 B(  0-C ,  2-C ) :   0.9845 B(  0-C ,  4-H ) :   0.9078
B(  2-C ,  3-C ) :   1.9830 B(  2-C ,  5-H ) :   0.9556 B(  3-C ,  6-H ) :   0.9574
B(  3-C ,  7-H ) :   0.9566

-----------------------------------------------------------------------------
         ABSORPTION SPECTRUM VIA TRANSITION ELECTRIC DIPOLE MOMENTS
-----------------------------------------------------------------------------
State   Energy    Wavelength  fosc         T2        TX        TY        TZ
        (cm-1)      (nm)                 (au**2)    (au)      (au)      (au)
-----------------------------------------------------------------------------
   1   33342.4    299.9   0.000135158   0.00133   0.03522  -0.00547  -0.00799

Dispersion correction           -0.025117832
FINAL SINGLE POINT ENERGY      -189.315685784244

DIPOLE MOMENT
-------------
                                X             Y             Z
Electronic contribution:     -1.92887      -1.82277       0.49723
Nuclear contribution   :      2.30676       2.77695      -0.80755
                        -----------------------------------------
Total Dipole Moment    :      0.37789       0.95418      -0.31032
                        -----------------------------------------
Magnitude (a.u.)       :      1.07217
Magnitude (Debye)      :      2.72525

Rotational constants in cm-1:     0.820233     0.189599     0.158192
Rotational constants in MHz : 24589.961551  5684.043056  4742.475211

                             ****ORCA TERMINATED NORMALLY****
TOTAL RUN TIME: 0 days 0 hours 0 minutes 11 seconds 753 msec
