                         Program Version 5.0.3 -  RELEASE  -
|  1> ! HF-3c
|  2> !TightSCF
|  3> %scf
|  4>  ConvForced true
|  5>  convergence tight
|  6>  MaxIter 500
|  7> end
|  8>
|  9> %tddft
| 10>  nroots 1
| 11> end
| 12>
| 13> # 	16712
| 14> * xyz 0 1
| 15> 		C   -1.209155  -0.344224  -0.068702
| 16> 		O   -1.649947  -1.131327  -0.810188
| 17> 		C    0.039641   0.453040  -0.240749
| 18> 		C    1.242426  -0.004815   0.181169
| 19> 		H   -1.704582  -0.145058   0.883380
| 20> 		H   -0.047900   1.518949  -0.549479
| 21> 		H    1.296533  -1.002360   0.520264
| 22> 		H    2.064891   0.681039  -0.001753
| 23> *
| 24>
| 25>                          ****END OF INPUT****

CARTESIAN COORDINATES (ANGSTROEM)
---------------------------------
  C     -1.209155   -0.344224   -0.068702
  O     -1.649947   -1.131327   -0.810188
  C      0.039641    0.453040   -0.240749
  C      1.242426   -0.004815    0.181169
  H     -1.704582   -0.145058    0.883380
  H     -0.047900    1.518949   -0.549479
  H      1.296533   -1.002360    0.520264
  H      2.064891    0.681039   -0.001753

 Total Charge           Charge          ....    0
 Multiplicity           Mult            ....    1
 Number of Electrons    NEL             ....   30
 Basis Dimension        Dim             ....   24

ORBITAL ENERGIES
----------------

  NO   OCC          E(Eh)            E(eV)
   0   2.0000     -20.394194      -554.9542
   1   2.0000     -11.314212      -307.8754
   2   2.0000     -11.186213      -304.3923
   3   2.0000     -11.176915      -304.1393
   4   2.0000      -1.443039       -39.2671
   5   2.0000      -1.075560       -29.2675
   6   2.0000      -0.887181       -24.1414
   7   2.0000      -0.763873       -20.7860
   8   2.0000      -0.700770       -19.0689
   9   2.0000      -0.637599       -17.3499
  10   2.0000      -0.608429       -16.5562
  11   2.0000      -0.565957       -15.4005
  12   2.0000      -0.520535       -14.1645
  13   2.0000      -0.417062       -11.3488
  14   2.0000      -0.393181       -10.6990
  15   0.0000       0.195597         5.3225
  16   0.0000       0.211343         5.7509
  17   0.0000       0.583632        15.8814
  18   0.0000       0.624974        17.0064
  19   0.0000       0.650705        17.7066

MULLIKEN ATOMIC CHARGES
-----------------------
   0 C :    0.178319
   1 O :   -0.345929
   2 C :   -0.153480
   3 C :   -0.255120
   4 H :    0.135603
   5 H :    0.148849
   6 H :    0.143901
   7 H :    0.147856
Sum of atomic charges:   -0.0000000

LOEWDIN ATOMIC CHARGES
----------------------
   0 C :    0.151104
   1 O :   -0.234851
   2 C :   -0.113044
   3 C :   -0.161086
   4 H :    0.069146
   5 H :    0.099159
   6 H :    0.091718
   7 H :    0.097854

  Mayer bond orders larger than 0.100000
B(  0-C ,  1-O ) :   1.9544 B(  0-C ,  2-C ) :   0.9814 B(  0-C ,  4-H ) :   0.9134
B(  2-C ,  3-C ) :   1.9922 B(  2-C ,  5-H ) :   0.9512 B(  3-C ,  6-H ) :   0.9669
B(  3-C ,  7-H ) :   0.9639

-----------------------------------------------------------------------------
         ABSORPTION SPECTRUM VIA TRANSITION ELECTRIC DIPOLE MOMENTS
-----------------------------------------------------------------------------
State   Energy    Wavelength  fosc         T2        TX        TY        TZ
        (cm-1)      (nm)                 (au**2)    (au)      (au)      (au)
-----------------------------------------------------------------------------
   1   37049.2    269.9   0.000035767   0.00032   0.01459   0.00821   0.00613

Dispersion correction           -0.025281102
FINAL SINGLE POINT ENERGY      -189.308943535399

DIPOLE MOMENT
-------------
                                X             Y             Z
Electronic contribution:     -2.63965      -1.35687      -1.13318
Nuclear contribution   :      3.09114       2.03185       1.70459
                        -----------------------------------------
Total Dipole Moment    :      0.45150       0.67498       0.57141
                        -----------------------------------------
Magnitude (a.u.)       :      0.99296
Magnitude (Debye)      :      2.52389

Rotational constants in cm-1:     1.021002     0.168113     0.157683
Rotational constants in MHz : 30608.873543  5039.889777  4727.206402

                             ****ORCA TERMINATED NORMALLY****
TOTAL RUN TIME: 0 days 0 hours 0 minutes 11 seconds 658 msec
