                         Program Version 5.0.3 -  RELEASE  -
|  1> ! B3LYP cc-pVDZ
|  2> !TightSCF
|  3> %scf
|  4>  ConvForced true
|  5>  convergence tight
|  6>  MaxIter 500
|  7> end
|  8>
|  9> %tddft
| 10>  nroots 1
| 11> end
| 12>
| 13> # 	32477
| 14> * xyz 0 1
| 15> 		C   -0.571932  -0.452336   0.000411
| 16> 		O   -0.624622  -1.661683   0.001553
| 17> 		C    0.656593   0.398366  -0.035613
| 18> 		C    1.845826  -0.082724  -0.014834
| 19> 		H   -1.540241   0.191344   0.218588
| 20> 		H    0.610742   1.446291   0.014228
| 21> 		H    2.033688  -0.996981   0.007893
| 22> 		H    2.789309   0.613272   0.346762
| 23> *
| 24>
| 25>                          ****END OF INPUT****

CARTESIAN COORDINATES (ANGSTROEM)
---------------------------------
  C     -0.571932   -0.452336    0.000411
  O     -0.624622   -1.661683    0.001553
  C      0.656593    0.398366   -0.035613
  C      1.845826   -0.082724   -0.014834
  H     -1.540241    0.191344    0.218588
  H      0.610742    1.446291    0.014228
  H      2.033688   -0.996981    0.007893
  H      2.789309    0.613272    0.346762

 Total Charge           Charge          ....    0
 Multiplicity           Mult            ....    1
 Number of Electrons    NEL             ....   30
 Basis Dimension        Dim             ....   76

ORBITAL ENERGIES
----------------

  NO   OCC          E(Eh)            E(eV)
   0   2.0000     -19.145690      -520.9807
   1   2.0000     -10.285947      -279.8948
   2   2.0000     -10.203116      -277.6409
   3   2.0000     -10.198243      -277.5083
   4   2.0000      -1.050570       -28.5875
   5   2.0000      -0.812312       -22.1041
   6   2.0000      -0.656241       -17.8572
   7   2.0000      -0.562314       -15.3013
   8   2.0000      -0.501317       -13.6415
   9   2.0000      -0.456372       -12.4185
  10   2.0000      -0.419910       -11.4263
  11   2.0000      -0.402977       -10.9656
  12   2.0000      -0.380302       -10.3485
  13   2.0000      -0.298652        -8.1267
  14   2.0000      -0.258506        -7.0343
  15   0.0000      -0.068671        -1.8686
  16   0.0000       0.042809         1.1649
  17   0.0000       0.068267         1.8576
  18   0.0000       0.093175         2.5354
  19   0.0000       0.127593         3.4720

MULLIKEN ATOMIC CHARGES
-----------------------
   0 C :    0.164834
   1 O :   -0.180228
   2 C :   -0.070050
   3 C :    0.124498
   4 H :   -0.013333
   5 H :   -0.024456
   6 H :   -0.047886
   7 H :    0.046621
Sum of atomic charges:   -0.0000000

LOEWDIN ATOMIC CHARGES
----------------------
   0 C :   -0.030657
   1 O :    0.000217
   2 C :   -0.075384
   3 C :    0.048619
   4 H :   -0.003147
   5 H :    0.025809
   6 H :   -0.023968
   7 H :    0.058510

  Mayer bond orders larger than 0.100000
B(  0-C ,  1-O ) :   2.2072 B(  0-C ,  2-C ) :   1.0239 B(  0-C ,  4-H ) :   0.8975
B(  2-C ,  3-C ) :   1.9893 B(  2-C ,  5-H ) :   0.9349 B(  3-C ,  6-H ) :   0.9364
B(  3-C ,  7-H ) :   0.9417

-----------------------------------------------------------------------------
         ABSORPTION SPECTRUM VIA TRANSITION ELECTRIC DIPOLE MOMENTS
-----------------------------------------------------------------------------
State   Energy    Wavelength  fosc         T2        TX        TY        TZ
        (cm-1)      (nm)                 (au**2)    (au)      (au)      (au)
-----------------------------------------------------------------------------
   1   28668.0    348.8   0.000169055   0.00194   0.01151   0.01223   0.04073

FINAL SINGLE POINT ENERGY      -191.633688646150

DIPOLE MOMENT
-------------
                                X             Y             Z
Electronic contribution:     -2.04858      -2.10182      -0.46316
Nuclear contribution   :      2.49320       2.96375       0.55010
                        -----------------------------------------
Total Dipole Moment    :      0.44461       0.86193       0.08694
                        -----------------------------------------
Magnitude (a.u.)       :      0.97373
Magnitude (Debye)      :      2.47504

Rotational constants in cm-1:     0.830569     0.198132     0.160542
Rotational constants in MHz : 24899.842875  5939.858257  4812.931455

                             ****ORCA TERMINATED NORMALLY****
TOTAL RUN TIME: 0 days 0 hours 3 minutes 26 seconds 650 msec
