                         Program Version 5.0.3 -  RELEASE  -
|  1> ! B3LYP cc-pVDZ
|  2> !TightSCF
|  3> %scf
|  4>  ConvForced true
|  5>  convergence tight
|  6>  MaxIter 500
|  7> end
|  8>
|  9> %tddft
| 10>  nroots 1
| 11> end
| 12>
| 13> # 	25335
| 14> * xyz 0 1
| 15> 		C   -0.613272  -0.434436   0.061702
| 16> 		O   -0.568237  -1.616871  -0.040045
| 17> 		C    0.626563   0.404230  -0.068302
| 18> 		C    1.852432  -0.142231   0.033798
| 19> 		H   -1.415066   0.163203   0.275021
| 20> 		H    0.432476   1.409500  -0.127217
| 21> 		H    1.950145  -1.097129   0.155878
| 22> 		H    2.748245   0.501625  -0.005102
| 23> *
| 24>
| 25>                          ****END OF INPUT****

CARTESIAN COORDINATES (ANGSTROEM)
---------------------------------
  C     -0.613272   -0.434436    0.061702
  O     -0.568237   -1.616871   -0.040045
  C      0.626563    0.404230   -0.068302
  C      1.852432   -0.142231    0.033798
  H     -1.415066    0.163203    0.275021
  H      0.432476    1.409500   -0.127217
  H      1.950145   -1.097129    0.155878
  H      2.748245    0.501625   -0.005102

 Total Charge           Charge          ....    0
 Multiplicity           Mult            ....    1
 Number of Electrons    NEL             ....   30
 Basis Dimension        Dim             ....   76

ORBITAL ENERGIES
----------------

  NO   OCC          E(Eh)            E(eV)
   0   2.0000     -19.137717      -520.7638
   1   2.0000     -10.265696      -279.3438
   2   2.0000     -10.199130      -277.5324
   3   2.0000     -10.191395      -277.3220
   4   2.0000      -1.058492       -28.8030
   5   2.0000      -0.791488       -21.5375
   6   2.0000      -0.670063       -18.2333
   7   2.0000      -0.561683       -15.2842
   8   2.0000      -0.509601       -13.8669
   9   2.0000      -0.454071       -12.3559
  10   2.0000      -0.429435       -11.6855
  11   2.0000      -0.401028       -10.9125
  12   2.0000      -0.394527       -10.7356
  13   2.0000      -0.283144        -7.7047
  14   2.0000      -0.253831        -6.9071
  15   0.0000      -0.063658        -1.7322
  16   0.0000       0.057092         1.5535
  17   0.0000       0.077514         2.1093
  18   0.0000       0.102655         2.7934
  19   0.0000       0.139993         3.8094

MULLIKEN ATOMIC CHARGES
-----------------------
   0 C :    0.228548
   1 O :   -0.177179
   2 C :   -0.124515
   3 C :    0.156082
   4 H :   -0.042585
   5 H :   -0.045696
   6 H :   -0.026249
   7 H :    0.031595
Sum of atomic charges:    0.0000000

LOEWDIN ATOMIC CHARGES
----------------------
   0 C :   -0.031951
   1 O :    0.022596
   2 C :   -0.057263
   3 C :    0.050858
   4 H :   -0.019976
   5 H :    0.006228
   6 H :   -0.008723
   7 H :    0.038230

  Mayer bond orders larger than 0.100000
B(  0-C ,  1-O ) :   2.2216 B(  0-C ,  2-C ) :   1.0594 B(  0-C ,  4-H ) :   0.9225
B(  2-C ,  3-C ) :   1.9854 B(  2-C ,  5-H ) :   0.9460 B(  3-C ,  6-H ) :   0.9289
B(  3-C ,  7-H ) :   0.9496

-----------------------------------------------------------------------------
         ABSORPTION SPECTRUM VIA TRANSITION ELECTRIC DIPOLE MOMENTS
-----------------------------------------------------------------------------
State   Energy    Wavelength  fosc         T2        TX        TY        TZ
        (cm-1)      (nm)                 (au**2)    (au)      (au)      (au)
-----------------------------------------------------------------------------
   1   28748.5    347.8   0.000017059   0.00020  -0.00298   0.00892   0.01034

FINAL SINGLE POINT ENERGY      -191.651738727128

DIPOLE MOMENT
-------------
                                X             Y             Z
Electronic contribution:     -2.06213      -1.83850      -0.18018
Nuclear contribution   :      2.33101       2.70421       0.28040
                        -----------------------------------------
Total Dipole Moment    :      0.26888       0.86571       0.10022
                        -----------------------------------------
Magnitude (a.u.)       :      0.91203
Magnitude (Debye)      :      2.31820

Rotational constants in cm-1:     0.776136     0.211496     0.167056
Rotational constants in MHz : 23267.963895  6340.492756  5008.209159

                             ****ORCA TERMINATED NORMALLY****
TOTAL RUN TIME: 0 days 0 hours 3 minutes 10 seconds 477 msec
