                         Program Version 5.0.3 -  RELEASE  -
|  1> ! B3LYP cc-pVDZ
|  2> !TightSCF
|  3> %scf
|  4>  ConvForced true
|  5>  convergence tight
|  6>  MaxIter 500
|  7> end
|  8>
|  9> %tddft
| 10>  nroots 1
| 11> end
| 12>
| 13> # 	18056
| 14> * xyz 0 1
| 15> 		C   -1.226833  -0.359233  -0.077678
| 16> 		O   -1.919188  -0.720102  -0.943563
| 17> 		C    0.033071   0.413456  -0.289067
| 18> 		C    1.205306   0.043133   0.211248
| 19> 		H   -1.390606  -0.555077   0.937563
| 20> 		H   -0.068464   1.418708  -0.804166
| 21> 		H    1.338022  -0.906380   0.816794
| 22> 		H    1.995093   0.680733   0.163590
| 23> *
| 24>
| 25>                          ****END OF INPUT****

CARTESIAN COORDINATES (ANGSTROEM)
---------------------------------
  C     -1.226833   -0.359233   -0.077678
  O     -1.919188   -0.720102   -0.943563
  C      0.033071    0.413456   -0.289067
  C      1.205306    0.043133    0.211248
  H     -1.390606   -0.555077    0.937563
  H     -0.068464    1.418708   -0.804166
  H      1.338022   -0.906380    0.816794
  H      1.995093    0.680733    0.163590

 Total Charge           Charge          ....    0
 Multiplicity           Mult            ....    1
 Number of Electrons    NEL             ....   30
 Basis Dimension        Dim             ....   76

ORBITAL ENERGIES
----------------

  NO   OCC          E(Eh)            E(eV)
   0   2.0000     -19.142949      -520.9061
   1   2.0000     -10.271120      -279.4914
   2   2.0000     -10.203121      -277.6410
   3   2.0000     -10.200988      -277.5830
   4   2.0000      -1.075955       -29.2782
   5   2.0000      -0.795823       -21.6554
   6   2.0000      -0.652704       -17.7610
   7   2.0000      -0.566726       -15.4214
   8   2.0000      -0.486712       -13.2441
   9   2.0000      -0.473496       -12.8845
  10   2.0000      -0.443555       -12.0697
  11   2.0000      -0.403295       -10.9742
  12   2.0000      -0.378299       -10.2940
  13   2.0000      -0.287475        -7.8226
  14   2.0000      -0.255620        -6.9558
  15   0.0000      -0.045645        -1.2421
  16   0.0000       0.021260         0.5785
  17   0.0000       0.082727         2.2511
  18   0.0000       0.089977         2.4484
  19   0.0000       0.118905         3.2356

MULLIKEN ATOMIC CHARGES
-----------------------
   0 C :    0.205048
   1 O :   -0.150005
   2 C :   -0.137295
   3 C :    0.061862
   4 H :   -0.034771
   5 H :    0.024919
   6 H :    0.026218
   7 H :    0.004024
Sum of atomic charges:   -0.0000000

LOEWDIN ATOMIC CHARGES
----------------------
   0 C :   -0.050051
   1 O :    0.055524
   2 C :   -0.058617
   3 C :   -0.019342
   4 H :   -0.017441
   5 H :    0.043612
   6 H :    0.035686
   7 H :    0.010627

  Mayer bond orders larger than 0.100000
B(  0-C ,  1-O ) :   2.2644 B(  0-C ,  2-C ) :   0.9970 B(  0-C ,  4-H ) :   0.9221
B(  2-C ,  3-C ) :   2.0296 B(  2-C ,  5-H ) :   0.9348 B(  3-C ,  6-H ) :   0.9472
B(  3-C ,  7-H ) :   0.9343

-----------------------------------------------------------------------------
         ABSORPTION SPECTRUM VIA TRANSITION ELECTRIC DIPOLE MOMENTS
-----------------------------------------------------------------------------
State   Energy    Wavelength  fosc         T2        TX        TY        TZ
        (cm-1)      (nm)                 (au**2)    (au)      (au)      (au)
-----------------------------------------------------------------------------
   1   32557.8    307.1   0.000392247   0.00397   0.05438   0.00615   0.03116

FINAL SINGLE POINT ENERGY      -191.638904412131

DIPOLE MOMENT
-------------
                                X             Y             Z
Electronic contribution:     -3.03083      -0.87820      -1.48827
Nuclear contribution   :      3.65692       1.24030       2.09549
                        -----------------------------------------
Total Dipole Moment    :      0.62609       0.36210       0.60721
                        -----------------------------------------
Magnitude (a.u.)       :      0.94436
Magnitude (Debye)      :      2.40038

Rotational constants in cm-1:     1.296664     0.158861     0.151855
Rotational constants in MHz : 38872.995976  4762.547768  4552.484346

                             ****ORCA TERMINATED NORMALLY****
TOTAL RUN TIME: 0 days 0 hours 3 minutes 14 seconds 455 msec
