                         Program Version 5.0.3 -  RELEASE  -
|  1> ! B3LYP cc-pVDZ
|  2> !TightSCF
|  3> %scf
|  4>  ConvForced true
|  5>  convergence tight
|  6>  MaxIter 500
|  7> end
|  8>
|  9> %tddft
| 10>  nroots 1
| 11> end
| 12>
| 13> # 	16509
| 14> * xyz 0 1
| 15> 		C   -1.176271  -0.340824   0.016240
| 16> 		O   -1.589879  -1.256684   0.736564
| 17> 		C    0.008172   0.488836   0.245605
| 18> 		C    1.145525   0.101371  -0.170396
| 19> 		H   -1.608606   0.005448  -1.008632
| 20> 		H   -0.156787   1.138140   0.979865
| 21> 		H    1.308915  -0.776350  -0.833322
| 22> 		H    2.066837   0.646414   0.025283
| 23> *
| 24>
| 25>                          ****END OF INPUT****

CARTESIAN COORDINATES (ANGSTROEM)
---------------------------------
  C     -1.176271   -0.340824    0.016240
  O     -1.589879   -1.256684    0.736564
  C      0.008172    0.488836    0.245605
  C      1.145525    0.101371   -0.170396
  H     -1.608606    0.005448   -1.008632
  H     -0.156787    1.138140    0.979865
  H      1.308915   -0.776350   -0.833322
  H      2.066837    0.646414    0.025283

 Total Charge           Charge          ....    0
 Multiplicity           Mult            ....    1
 Number of Electrons    NEL             ....   30
 Basis Dimension        Dim             ....   76

ORBITAL ENERGIES
----------------

  NO   OCC          E(Eh)            E(eV)
   0   2.0000     -19.151788      -521.1466
   1   2.0000     -10.286914      -279.9212
   2   2.0000     -10.201675      -277.6017
   3   2.0000     -10.190006      -277.2842
   4   2.0000      -1.039826       -28.2951
   5   2.0000      -0.818038       -22.2599
   6   2.0000      -0.658844       -17.9281
   7   2.0000      -0.566961       -15.4278
   8   2.0000      -0.490466       -13.3463
   9   2.0000      -0.467972       -12.7342
  10   2.0000      -0.447681       -12.1820
  11   2.0000      -0.383187       -10.4271
  12   2.0000      -0.372869       -10.1463
  13   2.0000      -0.297160        -8.0861
  14   2.0000      -0.256798        -6.9878
  15   0.0000      -0.041010        -1.1159
  16   0.0000      -0.000930        -0.0253
  17   0.0000       0.085429         2.3246
  18   0.0000       0.092412         2.5147
  19   0.0000       0.095771         2.6061

MULLIKEN ATOMIC CHARGES
-----------------------
   0 C :    0.142327
   1 O :   -0.195336
   2 C :   -0.004051
   3 C :    0.034971
   4 H :   -0.002641
   5 H :   -0.022548
   6 H :    0.023581
   7 H :    0.023697
Sum of atomic charges:    0.0000000

LOEWDIN ATOMIC CHARGES
----------------------
   0 C :    0.002757
   1 O :   -0.011006
   2 C :   -0.058474
   3 C :   -0.015540
   4 H :   -0.000777
   5 H :    0.016608
   6 H :    0.034647
   7 H :    0.031785

  Mayer bond orders larger than 0.100000
B(  0-C ,  1-O ) :   2.2190 B(  0-C ,  2-C ) :   0.9936 B(  0-C ,  4-H ) :   0.8947
B(  2-C ,  3-C ) :   2.0558 B(  2-C ,  5-H ) :   0.9303 B(  3-C ,  6-H ) :   0.9419
B(  3-C ,  7-H ) :   0.9414

-----------------------------------------------------------------------------
         ABSORPTION SPECTRUM VIA TRANSITION ELECTRIC DIPOLE MOMENTS
-----------------------------------------------------------------------------
State   Energy    Wavelength  fosc         T2        TX        TY        TZ
        (cm-1)      (nm)                 (au**2)    (au)      (au)      (au)
-----------------------------------------------------------------------------
   1   32107.9    311.4   0.000112170   0.00115   0.01525  -0.01466  -0.02650

FINAL SINGLE POINT ENERGY      -191.626982174067

DIPOLE MOMENT
-------------
                                X             Y             Z
Electronic contribution:     -2.56805      -1.31467       1.19685
Nuclear contribution   :      3.10575       2.01355      -1.58321
                        -----------------------------------------
Total Dipole Moment    :      0.53770       0.69888      -0.38636
                        -----------------------------------------
Magnitude (a.u.)       :      0.96272
Magnitude (Debye)      :      2.44704

Rotational constants in cm-1:     0.995564     0.173029     0.164628
Rotational constants in MHz : 29846.257007  5187.275959  4935.421437

                             ****ORCA TERMINATED NORMALLY****
TOTAL RUN TIME: 0 days 0 hours 3 minutes 18 seconds 291 msec
