                         Program Version 5.0.3 -  RELEASE  -
|  1> ! HF-3c
|  2> !TightSCF
|  3> %scf
|  4>  ConvForced true
|  5>  convergence tight
|  6>  MaxIter 500
|  7> end
|  8>
|  9> %tddft
| 10>  nroots 1
| 11> end
| 12>
| 13> # 	30832
| 14> * xyz 0 1
| 15> 		C   -0.601179  -0.394205  -0.018255
| 16> 		O   -0.575219  -1.666476  -0.009368
| 17> 		C    0.608865   0.400740   0.017876
| 18> 		C    1.884719  -0.141237   0.006307
| 19> 		H   -1.692025   0.132044   0.157727
| 20> 		H    0.667241   1.553328  -0.070847
| 21> 		H    2.004114  -1.130279   0.202352
| 22> 		H    2.600352   0.761930  -0.231940
| 23> *
| 24>
| 25>                          ****END OF INPUT****

CARTESIAN COORDINATES (ANGSTROEM)
---------------------------------
  C     -0.601179   -0.394205   -0.018255
  O     -0.575219   -1.666476   -0.009368
  C      0.608865    0.400740    0.017876
  C      1.884719   -0.141237    0.006307
  H     -1.692025    0.132044    0.157727
  H      0.667241    1.553328   -0.070847
  H      2.004114   -1.130279    0.202352
  H      2.600352    0.761930   -0.231940

 Total Charge           Charge          ....    0
 Multiplicity           Mult            ....    1
 Number of Electrons    NEL             ....   30
 Basis Dimension        Dim             ....   24

ORBITAL ENERGIES
----------------

  NO   OCC          E(Eh)            E(eV)
   0   2.0000     -20.334711      -553.3356
   1   2.0000     -11.275624      -306.8253
   2   2.0000     -11.186852      -304.4097
   3   2.0000     -11.178756      -304.1894
   4   2.0000      -1.349115       -36.7113
   5   2.0000      -1.063073       -28.9277
   6   2.0000      -0.879394       -23.9295
   7   2.0000      -0.728444       -19.8220
   8   2.0000      -0.682738       -18.5782
   9   2.0000      -0.593620       -16.1532
  10   2.0000      -0.555598       -15.1186
  11   2.0000      -0.517659       -14.0862
  12   2.0000      -0.507882       -13.8202
  13   2.0000      -0.404548       -11.0083
  14   2.0000      -0.367230        -9.9928
  15   0.0000       0.112966         3.0740
  16   0.0000       0.301752         8.2111
  17   0.0000       0.486483        13.2379
  18   0.0000       0.530658        14.4399
  19   0.0000       0.582359        15.8468

MULLIKEN ATOMIC CHARGES
-----------------------
   0 C :    0.144132
   1 O :   -0.352962
   2 C :   -0.171434
   3 C :   -0.214720
   4 H :    0.138717
   5 H :    0.137243
   6 H :    0.160706
   7 H :    0.158317
Sum of atomic charges:   -0.0000000

LOEWDIN ATOMIC CHARGES
----------------------
   0 C :    0.132835
   1 O :   -0.277573
   2 C :   -0.134306
   3 C :   -0.113867
   4 H :    0.086912
   5 H :    0.092132
   6 H :    0.099520
   7 H :    0.114348

  Mayer bond orders larger than 0.100000
B(  0-C ,  1-O ) :   1.8723 B(  0-C ,  2-C ) :   1.0697 B(  0-C ,  4-H ) :   0.9208
B(  2-C ,  3-C ) :   1.9053 B(  2-C ,  5-H ) :   0.9604 B(  3-C ,  6-H ) :   0.9628
B(  3-C ,  7-H ) :   0.9620

-----------------------------------------------------------------------------
         ABSORPTION SPECTRUM VIA TRANSITION ELECTRIC DIPOLE MOMENTS
-----------------------------------------------------------------------------
State   Energy    Wavelength  fosc         T2        TX        TY        TZ
        (cm-1)      (nm)                 (au**2)    (au)      (au)      (au)
-----------------------------------------------------------------------------
   1   28361.0    352.6   0.000156334   0.00181  -0.03426   0.00624   0.02454

Dispersion correction           -0.025321900
FINAL SINGLE POINT ENERGY      -189.311651869585

DIPOLE MOMENT
-------------
                                X             Y             Z
Electronic contribution:     -1.83935      -1.91030      -0.05874
Nuclear contribution   :      2.19839       3.02215       0.05502
                        -----------------------------------------
Total Dipole Moment    :      0.35904       1.11185      -0.00372
                        -----------------------------------------
Magnitude (a.u.)       :      1.16839
Magnitude (Debye)      :      2.96980

Rotational constants in cm-1:     0.725088     0.204167     0.159717
Rotational constants in MHz : 21737.591701  6120.780319  4788.203355

                             ****ORCA TERMINATED NORMALLY****
TOTAL RUN TIME: 0 days 0 hours 0 minutes 10 seconds 426 msec
