                         Program Version 5.0.3 -  RELEASE  -
|  1> ! B3LYP cc-pVDZ
|  2> !TightSCF
|  3> %scf
|  4>  ConvForced true
|  5>  convergence tight
|  6>  MaxIter 500
|  7> end
|  8>
|  9> %tddft
| 10>  nroots 1
| 11> end
| 12>
| 13> # 	23524
| 14> * xyz 0 1
| 15> 		C   -0.606850  -0.475786  -0.036763
| 16> 		O   -0.601273  -1.647830   0.019608
| 17> 		C    0.626560   0.398640   0.039598
| 18> 		C    1.861642  -0.072650  -0.033763
| 19> 		H   -1.472999   0.280443  -0.058831
| 20> 		H    0.514758   1.627748   0.020299
| 21> 		H    2.107671  -1.141502  -0.001934
| 22> 		H    2.944498   0.454980   0.105716
| 23> *
| 24>
| 25>                          ****END OF INPUT****

CARTESIAN COORDINATES (ANGSTROEM)
---------------------------------
  C     -0.606850   -0.475786   -0.036763
  O     -0.601273   -1.647830    0.019608
  C      0.626560    0.398640    0.039598
  C      1.861642   -0.072650   -0.033763
  H     -1.472999    0.280443   -0.058831
  H      0.514758    1.627748    0.020299
  H      2.107671   -1.141502   -0.001934
  H      2.944498    0.454980    0.105716

 Total Charge           Charge          ....    0
 Multiplicity           Mult            ....    1
 Number of Electrons    NEL             ....   30
 Basis Dimension        Dim             ....   76

ORBITAL ENERGIES
----------------

  NO   OCC          E(Eh)            E(eV)
   0   2.0000     -19.151430      -521.1369
   1   2.0000     -10.286084      -279.8986
   2   2.0000     -10.219870      -278.0968
   3   2.0000     -10.213987      -277.9367
   4   2.0000      -1.076002       -29.2795
   5   2.0000      -0.786590       -21.4042
   6   2.0000      -0.650442       -17.6994
   7   2.0000      -0.536418       -14.5967
   8   2.0000      -0.490491       -13.3469
   9   2.0000      -0.459404       -12.5010
  10   2.0000      -0.419494       -11.4150
  11   2.0000      -0.414025       -11.2662
  12   2.0000      -0.355577        -9.6758
  13   2.0000      -0.291876        -7.9423
  14   2.0000      -0.261799        -7.1239
  15   0.0000      -0.065887        -1.7929
  16   0.0000       0.044954         1.2232
  17   0.0000       0.062862         1.7106
  18   0.0000       0.080258         2.1839
  19   0.0000       0.106473         2.8973

MULLIKEN ATOMIC CHARGES
-----------------------
   0 C :    0.192515
   1 O :   -0.144257
   2 C :   -0.163162
   3 C :    0.009963
   4 H :   -0.015077
   5 H :    0.029095
   6 H :    0.037364
   7 H :    0.053558
Sum of atomic charges:    0.0000000

LOEWDIN ATOMIC CHARGES
----------------------
   0 C :   -0.057972
   1 O :    0.046707
   2 C :   -0.107294
   3 C :   -0.004841
   4 H :   -0.005771
   5 H :    0.049184
   6 H :    0.029069
   7 H :    0.050918

  Mayer bond orders larger than 0.100000
B(  0-C ,  1-O ) :   2.2588 B(  0-C ,  2-C ) :   1.0028 B(  0-C ,  4-H ) :   0.8971
B(  2-C ,  3-C ) :   1.9570 B(  2-C ,  5-H ) :   0.9255 B(  3-C ,  6-H ) :   0.9418
B(  3-C ,  7-H ) :   0.9499

-----------------------------------------------------------------------------
         ABSORPTION SPECTRUM VIA TRANSITION ELECTRIC DIPOLE MOMENTS
-----------------------------------------------------------------------------
State   Energy    Wavelength  fosc         T2        TX        TY        TZ
        (cm-1)      (nm)                 (au**2)    (au)      (au)      (au)
-----------------------------------------------------------------------------
   1   30307.2    330.0   0.000243523   0.00265   0.04214   0.00510  -0.02905

FINAL SINGLE POINT ENERGY      -191.640980462378

DIPOLE MOMENT
-------------
                                X             Y             Z
Electronic contribution:     -2.29617      -2.19780      -0.07248
Nuclear contribution   :      2.68256       2.93156       0.06097
                        -----------------------------------------
Total Dipole Moment    :      0.38639       0.73376      -0.01151
                        -----------------------------------------
Magnitude (a.u.)       :      0.82935
Magnitude (Debye)      :      2.10805

Rotational constants in cm-1:     0.770928     0.198922     0.158330
Rotational constants in MHz : 23111.847170  5963.521332  4746.606417

                             ****ORCA TERMINATED NORMALLY****
TOTAL RUN TIME: 0 days 0 hours 3 minutes 22 seconds 14 msec
