                         Program Version 5.0.3 -  RELEASE  -
|  1> ! HF-3c
|  2> !TightSCF
|  3> %scf
|  4>  ConvForced true
|  5>  convergence tight
|  6>  MaxIter 500
|  7> end
|  8>
|  9> %tddft
| 10>  nroots 1
| 11> end
| 12>
| 13> # 	31323
| 14> * xyz 0 1
| 15> 		C   -0.608426  -0.430910  -0.016127
| 16> 		O   -0.574987  -1.610606   0.022841
| 17> 		C    0.647689   0.383181   0.060044
| 18> 		C    1.842299  -0.114437  -0.026473
| 19> 		H   -1.563423  -0.010185  -0.463422
| 20> 		H    0.531979   1.546601   0.124641
| 21> 		H    2.068303  -1.296375  -0.087860
| 22> 		H    2.649377   0.513314  -0.137245
| 23> *
| 24>
| 25>                          ****END OF INPUT****

CARTESIAN COORDINATES (ANGSTROEM)
---------------------------------
  C     -0.608426   -0.430910   -0.016127
  O     -0.574987   -1.610606    0.022841
  C      0.647689    0.383181    0.060044
  C      1.842299   -0.114437   -0.026473
  H     -1.563423   -0.010185   -0.463422
  H      0.531979    1.546601    0.124641
  H      2.068303   -1.296375   -0.087860
  H      2.649377    0.513314   -0.137245

 Total Charge           Charge          ....    0
 Multiplicity           Mult            ....    1
 Number of Electrons    NEL             ....   30
 Basis Dimension        Dim             ....   24

ORBITAL ENERGIES
----------------

  NO   OCC          E(Eh)            E(eV)
   0   2.0000     -20.368507      -554.2553
   1   2.0000     -11.299090      -307.4639
   2   2.0000     -11.186983      -304.4133
   3   2.0000     -11.185436      -304.3712
   4   2.0000      -1.424623       -38.7660
   5   2.0000      -1.077251       -29.3135
   6   2.0000      -0.876068       -23.8390
   7   2.0000      -0.742860       -20.2142
   8   2.0000      -0.689592       -18.7648
   9   2.0000      -0.616867       -16.7858
  10   2.0000      -0.600708       -16.3461
  11   2.0000      -0.548155       -14.9161
  12   2.0000      -0.504693       -13.7334
  13   2.0000      -0.407024       -11.0757
  14   2.0000      -0.402648       -10.9566
  15   0.0000       0.150367         4.0917
  16   0.0000       0.305922         8.3246
  17   0.0000       0.494905        13.4671
  18   0.0000       0.579974        15.7819
  19   0.0000       0.604390        16.4463

MULLIKEN ATOMIC CHARGES
-----------------------
   0 C :    0.167705
   1 O :   -0.357548
   2 C :   -0.166379
   3 C :   -0.228365
   4 H :    0.140178
   5 H :    0.141392
   6 H :    0.162484
   7 H :    0.140534
Sum of atomic charges:   -0.0000000

LOEWDIN ATOMIC CHARGES
----------------------
   0 C :    0.139184
   1 O :   -0.252827
   2 C :   -0.128848
   3 C :   -0.135649
   4 H :    0.078458
   5 H :    0.096030
   6 H :    0.117193
   7 H :    0.086460

  Mayer bond orders larger than 0.100000
B(  0-C ,  1-O ) :   1.9169 B(  0-C ,  2-C ) :   1.0029 B(  0-C ,  4-H ) :   0.9216
B(  2-C ,  3-C ) :   1.9717 B(  2-C ,  5-H ) :   0.9528 B(  3-C ,  6-H ) :   0.9514
B(  3-C ,  7-H ) :   0.9645

-----------------------------------------------------------------------------
         ABSORPTION SPECTRUM VIA TRANSITION ELECTRIC DIPOLE MOMENTS
-----------------------------------------------------------------------------
State   Energy    Wavelength  fosc         T2        TX        TY        TZ
        (cm-1)      (nm)                 (au**2)    (au)      (au)      (au)
-----------------------------------------------------------------------------
   1   33513.6    298.4   0.000285023   0.00280   0.04759   0.00476   0.02264

Dispersion correction           -0.025426140
FINAL SINGLE POINT ENERGY      -189.314551134147

DIPOLE MOMENT
-------------
                                X             Y             Z
Electronic contribution:     -2.05194      -1.63628       0.39304
Nuclear contribution   :      2.29965       2.49443      -0.52913
                        -----------------------------------------
Total Dipole Moment    :      0.24770       0.85815      -0.13609
                        -----------------------------------------
Magnitude (a.u.)       :      0.90349
Magnitude (Debye)      :      2.29650

Rotational constants in cm-1:     0.782099     0.209140     0.166061
Rotational constants in MHz : 23446.740098  6269.872474  4978.384604

                             ****ORCA TERMINATED NORMALLY****
TOTAL RUN TIME: 0 days 0 hours 0 minutes 9 seconds 603 msec
