                         Program Version 5.0.3 -  RELEASE  -
|  1> ! B3LYP cc-pVDZ
|  2> !TightSCF
|  3> %scf
|  4>  ConvForced true
|  5>  convergence tight
|  6>  MaxIter 500
|  7> end
|  8>
|  9> %tddft
| 10>  nroots 1
| 11> end
| 12>
| 13> # 	29812
| 14> * xyz 0 1
| 15> 		C   -0.555473  -0.430740  -0.007770
| 16> 		O   -0.597629  -1.632568   0.011472
| 17> 		C    0.669396   0.389579   0.006769
| 18> 		C    1.810110  -0.087616   0.011703
| 19> 		H   -1.588383   0.286240  -0.073359
| 20> 		H    0.413040   1.160220  -0.039248
| 21> 		H    1.896529  -1.195943  -0.261137
| 22> 		H    2.759791   0.449807   0.071333
| 23> *
| 24>
| 25>                          ****END OF INPUT****

CARTESIAN COORDINATES (ANGSTROEM)
---------------------------------
  C     -0.555473   -0.430740   -0.007770
  O     -0.597629   -1.632568    0.011472
  C      0.669396    0.389579    0.006769
  C      1.810110   -0.087616    0.011703
  H     -1.588383    0.286240   -0.073359
  H      0.413040    1.160220   -0.039248
  H      1.896529   -1.195943   -0.261137
  H      2.759791    0.449807    0.071333

 Total Charge           Charge          ....    0
 Multiplicity           Mult            ....    1
 Number of Electrons    NEL             ....   30
 Basis Dimension        Dim             ....   76

ORBITAL ENERGIES
----------------

  NO   OCC          E(Eh)            E(eV)
   0   2.0000     -19.145151      -520.9660
   1   2.0000     -10.282691      -279.8062
   2   2.0000     -10.206851      -277.7425
   3   2.0000     -10.170355      -276.7494
   4   2.0000      -1.054176       -28.6856
   5   2.0000      -0.830333       -22.5945
   6   2.0000      -0.671350       -18.2684
   7   2.0000      -0.555942       -15.1280
   8   2.0000      -0.513269       -13.9667
   9   2.0000      -0.461101       -12.5472
  10   2.0000      -0.429105       -11.6766
  11   2.0000      -0.408454       -11.1146
  12   2.0000      -0.377048       -10.2600
  13   2.0000      -0.303494        -8.2585
  14   2.0000      -0.256363        -6.9760
  15   0.0000      -0.064700        -1.7606
  16   0.0000       0.061352         1.6695
  17   0.0000       0.071293         1.9400
  18   0.0000       0.088081         2.3968
  19   0.0000       0.131752         3.5852

MULLIKEN ATOMIC CHARGES
-----------------------
   0 C :    0.083065
   1 O :   -0.169604
   2 C :    0.178913
   3 C :    0.093428
   4 H :   -0.023237
   5 H :   -0.233514
   6 H :    0.041012
   7 H :    0.029937
Sum of atomic charges:    0.0000000

LOEWDIN ATOMIC CHARGES
----------------------
   0 C :   -0.021918
   1 O :    0.010480
   2 C :   -0.037413
   3 C :    0.045179
   4 H :   -0.005510
   5 H :   -0.076512
   6 H :    0.050056
   7 H :    0.035638

  Mayer bond orders larger than 0.100000
B(  0-C ,  1-O ) :   2.2176 B(  0-C ,  2-C ) :   1.0457 B(  0-C ,  4-H ) :   0.8758
B(  2-C ,  3-C ) :   1.9837 B(  2-C ,  5-H ) :   0.9234 B(  3-C ,  6-H ) :   0.9055
B(  3-C ,  7-H ) :   0.9369

-----------------------------------------------------------------------------
         ABSORPTION SPECTRUM VIA TRANSITION ELECTRIC DIPOLE MOMENTS
-----------------------------------------------------------------------------
State   Energy    Wavelength  fosc         T2        TX        TY        TZ
        (cm-1)      (nm)                 (au**2)    (au)      (au)      (au)
-----------------------------------------------------------------------------
   1   29081.0    343.9   0.000260640   0.00295  -0.01521   0.01409  -0.05021

FINAL SINGLE POINT ENERGY      -191.555630849210

DIPOLE MOMENT
-------------
                                X             Y             Z
Electronic contribution:     -1.62361      -1.59819       0.22309
Nuclear contribution   :      2.11071       2.44461      -0.28403
                        -----------------------------------------
Total Dipole Moment    :      0.48710       0.84642      -0.06094
                        -----------------------------------------
Magnitude (a.u.)       :      0.97848
Magnitude (Debye)      :      2.48709

Rotational constants in cm-1:     0.837249     0.210911     0.168761
Rotational constants in MHz : 25100.092265  6322.947383  5059.320762

                             ****ORCA TERMINATED NORMALLY****
TOTAL RUN TIME: 0 days 0 hours 3 minutes 13 seconds 63 msec
