                         Program Version 5.0.3 -  RELEASE  -
|  1> ! HF-3c
|  2> !TightSCF
|  3> %scf
|  4>  ConvForced true
|  5>  convergence tight
|  6>  MaxIter 500
|  7> end
|  8>
|  9> %tddft
| 10>  nroots 1
| 11> end
| 12>
| 13> # 	31776
| 14> * xyz 0 1
| 15> 		C   -0.589868  -0.439476   0.003815
| 16> 		O   -0.578133  -1.666109  -0.000593
| 17> 		C    0.633769   0.475848  -0.023184
| 18> 		C    1.836762  -0.135702   0.036304
| 19> 		H   -1.387399   0.156836   0.025895
| 20> 		H    0.499550   1.517810   0.033367
| 21> 		H    1.937686  -1.219615  -0.153300
| 22> 		H    2.693409   0.427956  -0.100550
| 23> *
| 24>
| 25>                          ****END OF INPUT****

CARTESIAN COORDINATES (ANGSTROEM)
---------------------------------
  C     -0.589868   -0.439476    0.003815
  O     -0.578133   -1.666109   -0.000593
  C      0.633769    0.475848   -0.023184
  C      1.836762   -0.135702    0.036304
  H     -1.387399    0.156836    0.025895
  H      0.499550    1.517810    0.033367
  H      1.937686   -1.219615   -0.153300
  H      2.693409    0.427956   -0.100550

 Total Charge           Charge          ....    0
 Multiplicity           Mult            ....    1
 Number of Electrons    NEL             ....   30
 Basis Dimension        Dim             ....   24

ORBITAL ENERGIES
----------------

  NO   OCC          E(Eh)            E(eV)
   0   2.0000     -20.373528      -554.3919
   1   2.0000     -11.298766      -307.4551
   2   2.0000     -11.189292      -304.4761
   3   2.0000     -11.185517      -304.3734
   4   2.0000      -1.393976       -37.9320
   5   2.0000      -1.075802       -29.2741
   6   2.0000      -0.909735       -24.7552
   7   2.0000      -0.768121       -20.9016
   8   2.0000      -0.706604       -19.2277
   9   2.0000      -0.615453       -16.7473
  10   2.0000      -0.596471       -16.2308
  11   2.0000      -0.546368       -14.8674
  12   2.0000      -0.535922       -14.5832
  13   2.0000      -0.418465       -11.3870
  14   2.0000      -0.392231       -10.6732
  15   0.0000       0.124334         3.3833
  16   0.0000       0.286014         7.7828
  17   0.0000       0.552237        15.0271
  18   0.0000       0.624432        16.9917
  19   0.0000       0.705075        19.1861

MULLIKEN ATOMIC CHARGES
-----------------------
   0 C :    0.156855
   1 O :   -0.344050
   2 C :   -0.173171
   3 C :   -0.221945
   4 H :    0.136090
   5 H :    0.143350
   6 H :    0.162660
   7 H :    0.140211
Sum of atomic charges:    0.0000000

LOEWDIN ATOMIC CHARGES
----------------------
   0 C :    0.152686
   1 O :   -0.253670
   2 C :   -0.128793
   3 C :   -0.118407
   4 H :    0.063630
   5 H :    0.088879
   6 H :    0.109308
   7 H :    0.086367

  Mayer bond orders larger than 0.100000
B(  0-C ,  1-O ) :   1.9194 B(  0-C ,  2-C ) :   1.0088 B(  0-C ,  4-H ) :   0.9357
B(  2-C ,  3-C ) :   1.9462 B(  2-C ,  5-H ) :   0.9636 B(  3-C ,  6-H ) :   0.9580
B(  3-C ,  7-H ) :   0.9678

-----------------------------------------------------------------------------
         ABSORPTION SPECTRUM VIA TRANSITION ELECTRIC DIPOLE MOMENTS
-----------------------------------------------------------------------------
State   Energy    Wavelength  fosc         T2        TX        TY        TZ
        (cm-1)      (nm)                 (au**2)    (au)      (au)      (au)
-----------------------------------------------------------------------------
   1   32011.0    312.4   0.000052755   0.00054  -0.02329  -0.00050  -0.00002

Dispersion correction           -0.025908299
FINAL SINGLE POINT ENERGY      -189.328468760918

DIPOLE MOMENT
-------------
                                X             Y             Z
Electronic contribution:     -2.05619      -1.70984       0.13788
Nuclear contribution   :      2.35333       2.61540      -0.18242
                        -----------------------------------------
Total Dipole Moment    :      0.29714       0.90556      -0.04454
                        -----------------------------------------
Magnitude (a.u.)       :      0.95411
Magnitude (Debye)      :      2.42515

Rotational constants in cm-1:     0.733694     0.208588     0.162596
Rotational constants in MHz : 21995.597536  6253.297146  4874.501413

                             ****ORCA TERMINATED NORMALLY****
TOTAL RUN TIME: 0 days 0 hours 0 minutes 12 seconds 463 msec
