                         Program Version 5.0.3 -  RELEASE  -
|  1> ! HF-3c
|  2> !TightSCF
|  3> %scf
|  4>  ConvForced true
|  5>  convergence tight
|  6>  MaxIter 500
|  7> end
|  8>
|  9> %tddft
| 10>  nroots 1
| 11> end
| 12>
| 13> # 	19402
| 14> * xyz 0 1
| 15> 		C   -1.205105  -0.303321   0.032312
| 16> 		O   -1.259160  -1.465378  -0.276249
| 17> 		C   -0.033311   0.649175  -0.147633
| 18> 		C    1.233154   0.000699   0.033147
| 19> 		H   -1.998692   0.251284   0.415351
| 20> 		H   -0.259963   1.499614  -0.388722
| 21> 		H    1.197843  -1.197660   0.362716
| 22> 		H    2.171070   0.603826  -0.025412
| 23> *
| 24>
| 25>                          ****END OF INPUT****

CARTESIAN COORDINATES (ANGSTROEM)
---------------------------------
  C     -1.205105   -0.303321    0.032312
  O     -1.259160   -1.465378   -0.276249
  C     -0.033311    0.649175   -0.147633
  C      1.233154    0.000699    0.033147
  H     -1.998692    0.251284    0.415351
  H     -0.259963    1.499614   -0.388722
  H      1.197843   -1.197660    0.362716
  H      2.171070    0.603826   -0.025412

 Total Charge           Charge          ....    0
 Multiplicity           Mult            ....    1
 Number of Electrons    NEL             ....   30
 Basis Dimension        Dim             ....   24

ORBITAL ENERGIES
----------------

  NO   OCC          E(Eh)            E(eV)
   0   2.0000     -20.366972      -554.2135
   1   2.0000     -11.293900      -307.3226
   2   2.0000     -11.192286      -304.5576
   3   2.0000     -11.174386      -304.0705
   4   2.0000      -1.403785       -38.1989
   5   2.0000      -1.053735       -28.6736
   6   2.0000      -0.884223       -24.0609
   7   2.0000      -0.772620       -21.0241
   8   2.0000      -0.701296       -19.0832
   9   2.0000      -0.604692       -16.4545
  10   2.0000      -0.587112       -15.9761
  11   2.0000      -0.540820       -14.7165
  12   2.0000      -0.524899       -14.2832
  13   2.0000      -0.405193       -11.0259
  14   2.0000      -0.371216       -10.1013
  15   0.0000       0.136542         3.7155
  16   0.0000       0.262643         7.1469
  17   0.0000       0.478038        13.0081
  18   0.0000       0.581603        15.8262
  19   0.0000       0.697752        18.9868

MULLIKEN ATOMIC CHARGES
-----------------------
   0 C :    0.171079
   1 O :   -0.360542
   2 C :   -0.214305
   3 C :   -0.171314
   4 H :    0.130112
   5 H :    0.134228
   6 H :    0.167745
   7 H :    0.142997
Sum of atomic charges:    0.0000000

LOEWDIN ATOMIC CHARGES
----------------------
   0 C :    0.158033
   1 O :   -0.263102
   2 C :   -0.166088
   3 C :   -0.082438
   4 H :    0.061835
   5 H :    0.072173
   6 H :    0.125255
   7 H :    0.094332

  Mayer bond orders larger than 0.100000
B(  0-C ,  1-O ) :   1.9190 B(  0-C ,  2-C ) :   1.0101 B(  0-C ,  4-H ) :   0.9275
B(  2-C ,  3-C ) :   1.9287 B(  2-C ,  5-H ) :   0.9705 B(  3-C ,  6-H ) :   0.9530
B(  3-C ,  7-H ) :   0.9644

-----------------------------------------------------------------------------
         ABSORPTION SPECTRUM VIA TRANSITION ELECTRIC DIPOLE MOMENTS
-----------------------------------------------------------------------------
State   Energy    Wavelength  fosc         T2        TX        TY        TZ
        (cm-1)      (nm)                 (au**2)    (au)      (au)      (au)
-----------------------------------------------------------------------------
   1   34276.4    291.7   0.000035129   0.00034   0.01514  -0.00907  -0.00510

Dispersion correction           -0.025649648
FINAL SINGLE POINT ENERGY      -189.264424312888

DIPOLE MOMENT
-------------
                                X             Y             Z
Electronic contribution:     -1.82715      -1.54693      -0.36667
Nuclear contribution   :      2.30580       2.28124       0.67603
                        -----------------------------------------
Total Dipole Moment    :      0.47865       0.73431       0.30935
                        -----------------------------------------
Magnitude (a.u.)       :      0.92952
Magnitude (Debye)      :      2.36266

Rotational constants in cm-1:     0.713976     0.203448     0.162180
Rotational constants in MHz : 21404.450416  6099.227995  4862.040180

                             ****ORCA TERMINATED NORMALLY****
TOTAL RUN TIME: 0 days 0 hours 0 minutes 13 seconds 172 msec
