                         Program Version 5.0.3 -  RELEASE  -
|  1> ! B3LYP cc-pVDZ
|  2> !TightSCF
|  3> %scf
|  4>  ConvForced true
|  5>  convergence tight
|  6>  MaxIter 500
|  7> end
|  8>
|  9> %tddft
| 10>  nroots 1
| 11> end
| 12>
| 13> # 	32172
| 14> * xyz 0 1
| 15> 		C   -0.598925  -0.431541  -0.040533
| 16> 		O   -0.523843  -1.590969   0.024698
| 17> 		C    0.641851   0.424779  -0.059564
| 18> 		C    1.788009  -0.177766   0.027777
| 19> 		H   -1.521937   0.193210   0.255004
| 20> 		H    0.286355   1.579170   0.272267
| 21> 		H    1.921990  -1.297804  -0.218854
| 22> 		H    2.739340   0.269315   0.182669
| 23> *
| 24>
| 25>                          ****END OF INPUT****

CARTESIAN COORDINATES (ANGSTROEM)
---------------------------------
  C     -0.598925   -0.431541   -0.040533
  O     -0.523843   -1.590969    0.024698
  C      0.641851    0.424779   -0.059564
  C      1.788009   -0.177766    0.027777
  H     -1.521937    0.193210    0.255004
  H      0.286355    1.579170    0.272267
  H      1.921990   -1.297804   -0.218854
  H      2.739340    0.269315    0.182669

 Total Charge           Charge          ....    0
 Multiplicity           Mult            ....    1
 Number of Electrons    NEL             ....   30
 Basis Dimension        Dim             ....   76

ORBITAL ENERGIES
----------------

  NO   OCC          E(Eh)            E(eV)
   0   2.0000     -19.142364      -520.8902
   1   2.0000     -10.275890      -279.6212
   2   2.0000     -10.210674      -277.8466
   3   2.0000     -10.207910      -277.7714
   4   2.0000      -1.077578       -29.3224
   5   2.0000      -0.793136       -21.5823
   6   2.0000      -0.648562       -17.6483
   7   2.0000      -0.534502       -14.5445
   8   2.0000      -0.490215       -13.3394
   9   2.0000      -0.457751       -12.4560
  10   2.0000      -0.428399       -11.6573
  11   2.0000      -0.415524       -11.3070
  12   2.0000      -0.359653        -9.7866
  13   2.0000      -0.293028        -7.9737
  14   2.0000      -0.255291        -6.9468
  15   0.0000      -0.059203        -1.6110
  16   0.0000       0.043130         1.1736
  17   0.0000       0.052689         1.4338
  18   0.0000       0.091897         2.5006
  19   0.0000       0.121750         3.3130

MULLIKEN ATOMIC CHARGES
-----------------------
   0 C :    0.161578
   1 O :   -0.142208
   2 C :   -0.179300
   3 C :    0.079939
   4 H :   -0.022967
   5 H :    0.024805
   6 H :    0.056215
   7 H :    0.021939
Sum of atomic charges:   -0.0000000

LOEWDIN ATOMIC CHARGES
----------------------
   0 C :   -0.068279
   1 O :    0.049131
   2 C :   -0.102227
   3 C :    0.008219
   4 H :   -0.007898
   5 H :    0.047470
   6 H :    0.050669
   7 H :    0.022914

  Mayer bond orders larger than 0.100000
B(  0-C ,  1-O ) :   2.2543 B(  0-C ,  2-C ) :   1.0162 B(  0-C ,  4-H ) :   0.8989
B(  2-C ,  3-C ) :   1.9798 B(  2-C ,  5-H ) :   0.9283 B(  3-C ,  6-H ) :   0.9246
B(  3-C ,  7-H ) :   0.9459

-----------------------------------------------------------------------------
         ABSORPTION SPECTRUM VIA TRANSITION ELECTRIC DIPOLE MOMENTS
-----------------------------------------------------------------------------
State   Energy    Wavelength  fosc         T2        TX        TY        TZ
        (cm-1)      (nm)                 (au**2)    (au)      (au)      (au)
-----------------------------------------------------------------------------
   1   30277.4    330.3   0.000450107   0.00489  -0.05234  -0.02182  -0.04097

FINAL SINGLE POINT ENERGY      -191.637176634943

DIPOLE MOMENT
-------------
                                X             Y             Z
Electronic contribution:     -1.74166      -1.80851      -0.42594
Nuclear contribution   :      2.05954       2.48342       0.45964
                        -----------------------------------------
Total Dipole Moment    :      0.31788       0.67491       0.03370
                        -----------------------------------------
Magnitude (a.u.)       :      0.74678
Magnitude (Debye)      :      1.89817

Rotational constants in cm-1:     0.718331     0.226665     0.173373
Rotational constants in MHz : 21535.019909  6795.252045  5197.593771

                             ****ORCA TERMINATED NORMALLY****
TOTAL RUN TIME: 0 days 0 hours 3 minutes 8 seconds 651 msec
