                         Program Version 5.0.3 -  RELEASE  -
|  1> ! HF-3c
|  2> !TightSCF
|  3> %scf
|  4>  ConvForced true
|  5>  convergence tight
|  6>  MaxIter 500
|  7> end
|  8>
|  9> %tddft
| 10>  nroots 1
| 11> end
| 12>
| 13> # 	11713
| 14> * xyz 0 1
| 15> 		C   -1.149981  -0.299331   0.001240
| 16> 		O   -1.899524  -0.747793   0.936048
| 17> 		C    0.026669   0.475084   0.272827
| 18> 		C    1.148605   0.144152  -0.260220
| 19> 		H   -1.483441  -0.544643  -1.094514
| 20> 		H   -0.000949   1.238753   0.967518
| 21> 		H    1.273586  -0.784959  -0.741722
| 22> 		H    2.086835   0.523422  -0.087781
| 23> *
| 24>
| 25>                          ****END OF INPUT****

CARTESIAN COORDINATES (ANGSTROEM)
---------------------------------
  C     -1.149981   -0.299331    0.001240
  O     -1.899524   -0.747793    0.936048
  C      0.026669    0.475084    0.272827
  C      1.148605    0.144152   -0.260220
  H     -1.483441   -0.544643   -1.094514
  H     -0.000949    1.238753    0.967518
  H      1.273586   -0.784959   -0.741722
  H      2.086835    0.523422   -0.087781

 Total Charge           Charge          ....    0
 Multiplicity           Mult            ....    1
 Number of Electrons    NEL             ....   30
 Basis Dimension        Dim             ....   24

ORBITAL ENERGIES
----------------

  NO   OCC          E(Eh)            E(eV)
   0   2.0000     -20.349218      -553.7304
   1   2.0000     -11.284490      -307.0666
   2   2.0000     -11.212566      -305.1094
   3   2.0000     -11.198212      -304.7188
   4   2.0000      -1.355558       -36.8866
   5   2.0000      -1.117471       -30.4079
   6   2.0000      -0.897371       -24.4187
   7   2.0000      -0.785032       -21.3618
   8   2.0000      -0.678539       -18.4640
   9   2.0000      -0.671517       -18.2729
  10   2.0000      -0.581143       -15.8137
  11   2.0000      -0.550392       -14.9769
  12   2.0000      -0.496004       -13.4970
  13   2.0000      -0.418189       -11.3795
  14   2.0000      -0.410176       -11.1615
  15   0.0000       0.136979         3.7274
  16   0.0000       0.256646         6.9837
  17   0.0000       0.544973        14.8295
  18   0.0000       0.606814        16.5122
  19   0.0000       0.736735        20.0476

MULLIKEN ATOMIC CHARGES
-----------------------
   0 C :    0.154535
   1 O :   -0.335587
   2 C :   -0.184360
   3 C :   -0.241893
   4 H :    0.148991
   5 H :    0.167028
   6 H :    0.142947
   7 H :    0.148338
Sum of atomic charges:   -0.0000000

LOEWDIN ATOMIC CHARGES
----------------------
   0 C :    0.145353
   1 O :   -0.261788
   2 C :   -0.121583
   3 C :   -0.140215
   4 H :    0.091596
   5 H :    0.105611
   6 H :    0.089638
   7 H :    0.091388

  Mayer bond orders larger than 0.100000
B(  0-C ,  1-O ) :   1.9128 B(  0-C ,  2-C ) :   1.0325 B(  0-C ,  4-H ) :   0.9234
B(  2-C ,  3-C ) :   1.9661 B(  2-C ,  5-H ) :   0.9454 B(  3-C ,  6-H ) :   0.9640
B(  3-C ,  7-H ) :   0.9640

-----------------------------------------------------------------------------
         ABSORPTION SPECTRUM VIA TRANSITION ELECTRIC DIPOLE MOMENTS
-----------------------------------------------------------------------------
State   Energy    Wavelength  fosc         T2        TX        TY        TZ
        (cm-1)      (nm)                 (au**2)    (au)      (au)      (au)
-----------------------------------------------------------------------------
   1   29749.7    336.1   0.000098826   0.00109   0.03110  -0.00098  -0.01119

Dispersion correction           -0.025721775
FINAL SINGLE POINT ENERGY      -189.327069383426

DIPOLE MOMENT
-------------
                                X             Y             Z
Electronic contribution:     -2.86412      -0.60599       1.14335
Nuclear contribution   :      3.62670       0.91124      -1.83628
                        -----------------------------------------
Total Dipole Moment    :      0.76258       0.30525      -0.69294
                        -----------------------------------------
Magnitude (a.u.)       :      1.07465
Magnitude (Debye)      :      2.73154

Rotational constants in cm-1:     1.252986     0.162039     0.155196
Rotational constants in MHz : 37563.588289  4857.817708  4652.652329

                             ****ORCA TERMINATED NORMALLY****
TOTAL RUN TIME: 0 days 0 hours 0 minutes 16 seconds 106 msec
