                         Program Version 5.0.3 -  RELEASE  -
|  1> ! HF-3c
|  2> !TightSCF
|  3> %scf
|  4>  ConvForced true
|  5>  convergence tight
|  6>  MaxIter 500
|  7> end
|  8>
|  9> %tddft
| 10>  nroots 1
| 11> end
| 12>
| 13> # 	28628
| 14> * xyz 0 1
| 15> 		C   -0.618874  -0.382286   0.017744
| 16> 		O   -0.570074  -1.665921  -0.020970
| 17> 		C    0.654514   0.355345   0.000781
| 18> 		C    1.866619  -0.092574   0.005149
| 19> 		H   -1.664160   0.333217   0.108028
| 20> 		H    0.463755   1.378355  -0.133183
| 21> 		H    1.898101  -1.100851   0.184302
| 22> 		H    2.613205   0.533162  -0.125469
| 23> *
| 24>
| 25>                          ****END OF INPUT****

CARTESIAN COORDINATES (ANGSTROEM)
---------------------------------
  C     -0.618874   -0.382286    0.017744
  O     -0.570074   -1.665921   -0.020970
  C      0.654514    0.355345    0.000781
  C      1.866619   -0.092574    0.005149
  H     -1.664160    0.333217    0.108028
  H      0.463755    1.378355   -0.133183
  H      1.898101   -1.100851    0.184302
  H      2.613205    0.533162   -0.125469

 Total Charge           Charge          ....    0
 Multiplicity           Mult            ....    1
 Number of Electrons    NEL             ....   30
 Basis Dimension        Dim             ....   24

ORBITAL ENERGIES
----------------

  NO   OCC          E(Eh)            E(eV)
   0   2.0000     -20.347837      -553.6928
   1   2.0000     -11.280461      -306.9570
   2   2.0000     -11.198701      -304.7321
   3   2.0000     -11.195498      -304.6450
   4   2.0000      -1.350768       -36.7563
   5   2.0000      -1.103412       -30.0254
   6   2.0000      -0.905355       -24.6360
   7   2.0000      -0.739064       -20.1110
   8   2.0000      -0.710798       -19.3418
   9   2.0000      -0.614460       -16.7203
  10   2.0000      -0.601249       -16.3608
  11   2.0000      -0.525537       -14.3006
  12   2.0000      -0.516140       -14.0449
  13   2.0000      -0.412885       -11.2352
  14   2.0000      -0.400192       -10.8898
  15   0.0000       0.117914         3.2086
  16   0.0000       0.307795         8.3755
  17   0.0000       0.447701        12.1826
  18   0.0000       0.632336        17.2067
  19   0.0000       0.684452        18.6249

MULLIKEN ATOMIC CHARGES
-----------------------
   0 C :    0.159458
   1 O :   -0.341600
   2 C :   -0.164476
   3 C :   -0.261931
   4 H :    0.148785
   5 H :    0.134398
   6 H :    0.170393
   7 H :    0.154973
Sum of atomic charges:    0.0000000

LOEWDIN ATOMIC CHARGES
----------------------
   0 C :    0.141959
   1 O :   -0.267327
   2 C :   -0.113097
   3 C :   -0.146265
   4 H :    0.100185
   5 H :    0.080126
   6 H :    0.109381
   7 H :    0.095038

  Mayer bond orders larger than 0.100000
B(  0-C ,  1-O ) :   1.8994 B(  0-C ,  2-C ) :   1.0386 B(  0-C ,  4-H ) :   0.9128
B(  2-C ,  3-C ) :   1.9484 B(  2-C ,  5-H ) :   0.9595 B(  3-C ,  6-H ) :   0.9550
B(  3-C ,  7-H ) :   0.9639

-----------------------------------------------------------------------------
         ABSORPTION SPECTRUM VIA TRANSITION ELECTRIC DIPOLE MOMENTS
-----------------------------------------------------------------------------
State   Energy    Wavelength  fosc         T2        TX        TY        TZ
        (cm-1)      (nm)                 (au**2)    (au)      (au)      (au)
-----------------------------------------------------------------------------
   1   28378.5    352.4   0.000060517   0.00070   0.02461  -0.00335  -0.00924

Dispersion correction           -0.026026008
FINAL SINGLE POINT ENERGY      -189.316865199138

DIPOLE MOMENT
-------------
                                X             Y             Z
Electronic contribution:     -1.88280      -1.84228       0.00057
Nuclear contribution   :      1.95102       2.85859       0.03244
                        -----------------------------------------
Total Dipole Moment    :      0.06823       1.01632       0.03302
                        -----------------------------------------
Magnitude (a.u.)       :      1.01914
Magnitude (Debye)      :      2.59044

Rotational constants in cm-1:     0.755953     0.207156     0.162884
Rotational constants in MHz : 22662.906479  6210.383938  4883.133853

                             ****ORCA TERMINATED NORMALLY****
TOTAL RUN TIME: 0 days 0 hours 0 minutes 10 seconds 928 msec
