                         Program Version 5.0.3 -  RELEASE  -
|  1> ! HF-3c
|  2> !TightSCF
|  3> %scf
|  4>  ConvForced true
|  5>  convergence tight
|  6>  MaxIter 500
|  7> end
|  8>
|  9> %tddft
| 10>  nroots 1
| 11> end
| 12>
| 13> # 	1009
| 14> * xyz 0 1
| 15> 		C   -1.228542  -0.419259  -0.065073
| 16> 		O   -1.587261  -1.252300  -0.753119
| 17> 		C   -0.041696   0.444787  -0.247153
| 18> 		C    1.199327   0.070074   0.113707
| 19> 		H   -1.801622  -0.111915   0.892803
| 20> 		H   -0.174784   1.490099  -0.377752
| 21> 		H    1.533939  -0.953391   0.355073
| 22> 		H    2.073518   0.741376   0.068977
| 23> *
| 24>
| 25>                          ****END OF INPUT****

CARTESIAN COORDINATES (ANGSTROEM)
---------------------------------
  C     -1.228542   -0.419259   -0.065073
  O     -1.587261   -1.252300   -0.753119
  C     -0.041696    0.444787   -0.247153
  C      1.199327    0.070074    0.113707
  H     -1.801622   -0.111915    0.892803
  H     -0.174784    1.490099   -0.377752
  H      1.533939   -0.953391    0.355073
  H      2.073518    0.741376    0.068977

 Total Charge           Charge          ....    0
 Multiplicity           Mult            ....    1
 Number of Electrons    NEL             ....   30
 Basis Dimension        Dim             ....   24

ORBITAL ENERGIES
----------------

  NO   OCC          E(Eh)            E(eV)
   0   2.0000     -20.403299      -555.2020
   1   2.0000     -11.324454      -308.1541
   2   2.0000     -11.187003      -304.4138
   3   2.0000     -11.179384      -304.2065
   4   2.0000      -1.466286       -39.8997
   5   2.0000      -1.075183       -29.2572
   6   2.0000      -0.883440       -24.0396
   7   2.0000      -0.757867       -20.6226
   8   2.0000      -0.705960       -19.2101
   9   2.0000      -0.638180       -17.3658
  10   2.0000      -0.626888       -17.0585
  11   2.0000      -0.552872       -15.0444
  12   2.0000      -0.529925       -14.4200
  13   2.0000      -0.413497       -11.2518
  14   2.0000      -0.391392       -10.6503
  15   0.0000       0.187646         5.1061
  16   0.0000       0.235477         6.4076
  17   0.0000       0.553040        15.0490
  18   0.0000       0.627459        17.0740
  19   0.0000       0.661722        18.0064

MULLIKEN ATOMIC CHARGES
-----------------------
   0 C :    0.204805
   1 O :   -0.354631
   2 C :   -0.180294
   3 C :   -0.226746
   4 H :    0.130573
   5 H :    0.150584
   6 H :    0.138294
   7 H :    0.137415
Sum of atomic charges:   -0.0000000

LOEWDIN ATOMIC CHARGES
----------------------
   0 C :    0.161414
   1 O :   -0.231645
   2 C :   -0.137143
   3 C :   -0.136867
   4 H :    0.068928
   5 H :    0.097179
   6 H :    0.089212
   7 H :    0.088922

  Mayer bond orders larger than 0.100000
B(  0-C ,  1-O ) :   1.9574 B(  0-C ,  2-C ) :   0.9809 B(  0-C ,  4-H ) :   0.8974
B(  2-C ,  3-C ) :   1.9865 B(  2-C ,  5-H ) :   0.9510 B(  3-C ,  6-H ) :   0.9663
B(  3-C ,  7-H ) :   0.9654

-----------------------------------------------------------------------------
         ABSORPTION SPECTRUM VIA TRANSITION ELECTRIC DIPOLE MOMENTS
-----------------------------------------------------------------------------
State   Energy    Wavelength  fosc         T2        TX        TY        TZ
        (cm-1)      (nm)                 (au**2)    (au)      (au)      (au)
-----------------------------------------------------------------------------
   1   39289.1    254.5   0.000331289   0.00278  -0.05211  -0.00708  -0.00318

Dispersion correction           -0.025062008
FINAL SINGLE POINT ENERGY      -189.292050850612

DIPOLE MOMENT
-------------
                                X             Y             Z
Electronic contribution:     -2.70176      -1.58193      -1.16288
Nuclear contribution   :      3.16000       2.26578       1.77623
                        -----------------------------------------
Total Dipole Moment    :      0.45825       0.68385       0.61335
                        -----------------------------------------
Magnitude (a.u.)       :      1.02656
Magnitude (Debye)      :      2.60932

Rotational constants in cm-1:     1.010789     0.172078     0.158329
Rotational constants in MHz : 30302.705047  5158.779860  4746.595546

                             ****ORCA TERMINATED NORMALLY****
TOTAL RUN TIME: 0 days 0 hours 0 minutes 10 seconds 399 msec
