                         Program Version 5.0.3 -  RELEASE  -
|  1> ! HF-3c
|  2> !TightSCF
|  3> %scf
|  4>  ConvForced true
|  5>  convergence tight
|  6>  MaxIter 500
|  7> end
|  8>
|  9> %tddft
| 10>  nroots 1
| 11> end
| 12>
| 13> # 	12597
| 14> * xyz 0 1
| 15> 		C   -1.122841  -0.366565  -0.022966
| 16> 		O   -2.202942  -0.423138  -0.674376
| 17> 		C    0.040489   0.409732  -0.414982
| 18> 		C    1.170038   0.135951   0.186392
| 19> 		H   -1.078088  -0.842214   0.987743
| 20> 		H   -0.141963   0.988753  -1.217098
| 21> 		H    1.231251  -0.467244   1.063995
| 22> 		H    2.116697   0.576845   0.004471
| 23> *
| 24>
| 25>                          ****END OF INPUT****

CARTESIAN COORDINATES (ANGSTROEM)
---------------------------------
  C     -1.122841   -0.366565   -0.022966
  O     -2.202942   -0.423138   -0.674376
  C      0.040489    0.409732   -0.414982
  C      1.170038    0.135951    0.186392
  H     -1.078088   -0.842214    0.987743
  H     -0.141963    0.988753   -1.217098
  H      1.231251   -0.467244    1.063995
  H      2.116697    0.576845    0.004471

 Total Charge           Charge          ....    0
 Multiplicity           Mult            ....    1
 Number of Electrons    NEL             ....   30
 Basis Dimension        Dim             ....   24

ORBITAL ENERGIES
----------------

  NO   OCC          E(Eh)            E(eV)
   0   2.0000     -20.350221      -553.7577
   1   2.0000     -11.283406      -307.0371
   2   2.0000     -11.209856      -305.0357
   3   2.0000     -11.208015      -304.9856
   4   2.0000      -1.363523       -37.1034
   5   2.0000      -1.112141       -30.2629
   6   2.0000      -0.895175       -24.3590
   7   2.0000      -0.797786       -21.7089
   8   2.0000      -0.676038       -18.3959
   9   2.0000      -0.661419       -17.9981
  10   2.0000      -0.579934       -15.7808
  11   2.0000      -0.550817       -14.9885
  12   2.0000      -0.526375       -14.3234
  13   2.0000      -0.416139       -11.3237
  14   2.0000      -0.402904       -10.9636
  15   0.0000       0.121024         3.2932
  16   0.0000       0.292196         7.9511
  17   0.0000       0.552725        15.0404
  18   0.0000       0.627280        17.0692
  19   0.0000       0.689715        18.7681

MULLIKEN ATOMIC CHARGES
-----------------------
   0 C :    0.158826
   1 O :   -0.343466
   2 C :   -0.187967
   3 C :   -0.222653
   4 H :    0.135362
   5 H :    0.164143
   6 H :    0.145486
   7 H :    0.150269
Sum of atomic charges:   -0.0000000

LOEWDIN ATOMIC CHARGES
----------------------
   0 C :    0.148217
   1 O :   -0.265149
   2 C :   -0.126359
   3 C :   -0.119267
   4 H :    0.074817
   5 H :    0.099954
   6 H :    0.092549
   7 H :    0.095239

  Mayer bond orders larger than 0.100000
B(  0-C ,  1-O ) :   1.8940 B(  0-C ,  2-C ) :   1.0431 B(  0-C ,  4-H ) :   0.9303
B(  2-C ,  3-C ) :   1.9402 B(  2-C ,  5-H ) :   0.9538 B(  3-C ,  6-H ) :   0.9632
B(  3-C ,  7-H ) :   0.9636

-----------------------------------------------------------------------------
         ABSORPTION SPECTRUM VIA TRANSITION ELECTRIC DIPOLE MOMENTS
-----------------------------------------------------------------------------
State   Energy    Wavelength  fosc         T2        TX        TY        TZ
        (cm-1)      (nm)                 (au**2)    (au)      (au)      (au)
-----------------------------------------------------------------------------
   1   30077.6    332.5   0.000039472   0.00043   0.01688   0.00470  -0.01118

Dispersion correction           -0.026037399
FINAL SINGLE POINT ENERGY      -189.343091839985

DIPOLE MOMENT
-------------
                                X             Y             Z
Electronic contribution:     -3.01789      -0.43755      -1.07389
Nuclear contribution   :      4.11730       0.52705       1.64850
                        -----------------------------------------
Total Dipole Moment    :      1.09941       0.08951       0.57462
                        -----------------------------------------
Magnitude (a.u.)       :      1.24375
Magnitude (Debye)      :      3.16135

Rotational constants in cm-1:     1.582431     0.157660     0.144332
Rotational constants in MHz : 47440.092108  4726.524626  4326.953757

                             ****ORCA TERMINATED NORMALLY****
TOTAL RUN TIME: 0 days 0 hours 0 minutes 9 seconds 222 msec
