                         Program Version 5.0.3 -  RELEASE  -
|  1> ! HF-3c
|  2> !TightSCF
|  3> %scf
|  4>  ConvForced true
|  5>  convergence tight
|  6>  MaxIter 500
|  7> end
|  8>
|  9> %tddft
| 10>  nroots 1
| 11> end
| 12>
| 13> # 	28266
| 14> * xyz 0 1
| 15> 		C   -0.565759  -0.391791   0.000977
| 16> 		O   -0.547506  -1.597714  -0.003308
| 17> 		C    0.620219   0.373382  -0.029883
| 18> 		C    1.797057  -0.175811   0.029281
| 19> 		H   -1.477315   0.172298   0.243989
| 20> 		H    0.475296   1.472411  -0.147336
| 21> 		H    1.973848  -1.231469  -0.219345
| 22> 		H    2.616143   0.543345   0.173205
| 23> *
| 24>
| 25>                          ****END OF INPUT****

CARTESIAN COORDINATES (ANGSTROEM)
---------------------------------
  C     -0.565759   -0.391791    0.000977
  O     -0.547506   -1.597714   -0.003308
  C      0.620219    0.373382   -0.029883
  C      1.797057   -0.175811    0.029281
  H     -1.477315    0.172298    0.243989
  H      0.475296    1.472411   -0.147336
  H      1.973848   -1.231469   -0.219345
  H      2.616143    0.543345    0.173205

 Total Charge           Charge          ....    0
 Multiplicity           Mult            ....    1
 Number of Electrons    NEL             ....   30
 Basis Dimension        Dim             ....   24

ORBITAL ENERGIES
----------------

  NO   OCC          E(Eh)            E(eV)
   0   2.0000     -20.357059      -553.9437
   1   2.0000     -11.292214      -307.2768
   2   2.0000     -11.193349      -304.5865
   3   2.0000     -11.186481      -304.3996
   4   2.0000      -1.403603       -38.1940
   5   2.0000      -1.096107       -29.8266
   6   2.0000      -0.905073       -24.6283
   7   2.0000      -0.738072       -20.0840
   8   2.0000      -0.711812       -19.3694
   9   2.0000      -0.619373       -16.8540
  10   2.0000      -0.589445       -16.0396
  11   2.0000      -0.557600       -15.1731
  12   2.0000      -0.523693       -14.2504
  13   2.0000      -0.414341       -11.2748
  14   2.0000      -0.392404       -10.6779
  15   0.0000       0.129746         3.5306
  16   0.0000       0.317389         8.6366
  17   0.0000       0.570411        15.5217
  18   0.0000       0.629819        17.1382
  19   0.0000       0.671197        18.2642

MULLIKEN ATOMIC CHARGES
-----------------------
   0 C :    0.156737
   1 O :   -0.355506
   2 C :   -0.184208
   3 C :   -0.212201
   4 H :    0.135390
   5 H :    0.143431
   6 H :    0.168454
   7 H :    0.147903
Sum of atomic charges:   -0.0000000

LOEWDIN ATOMIC CHARGES
----------------------
   0 C :    0.140088
   1 O :   -0.261929
   2 C :   -0.141697
   3 C :   -0.113011
   4 H :    0.071609
   5 H :    0.093407
   6 H :    0.113544
   7 H :    0.097989

  Mayer bond orders larger than 0.100000
B(  0-C ,  1-O ) :   1.8876 B(  0-C ,  2-C ) :   1.0515 B(  0-C ,  4-H ) :   0.9251
B(  2-C ,  3-C ) :   1.9314 B(  2-C ,  5-H ) :   0.9562 B(  3-C ,  6-H ) :   0.9556
B(  3-C ,  7-H ) :   0.9622

-----------------------------------------------------------------------------
         ABSORPTION SPECTRUM VIA TRANSITION ELECTRIC DIPOLE MOMENTS
-----------------------------------------------------------------------------
State   Energy    Wavelength  fosc         T2        TX        TY        TZ
        (cm-1)      (nm)                 (au**2)    (au)      (au)      (au)
-----------------------------------------------------------------------------
   1   31820.6    314.3   0.000045845   0.00047  -0.01475  -0.00226   0.01586

Dispersion correction           -0.026462631
FINAL SINGLE POINT ENERGY      -189.331806784190

DIPOLE MOMENT
-------------
                                X             Y             Z
Electronic contribution:     -1.86690      -1.73965      -0.05208
Nuclear contribution   :      2.20922       2.68353       0.04717
                        -----------------------------------------
Total Dipole Moment    :      0.34233       0.94388      -0.00490
                        -----------------------------------------
Magnitude (a.u.)       :      1.00406
Magnitude (Debye)      :      2.55211

Rotational constants in cm-1:     0.770168     0.226579     0.175737
Rotational constants in MHz : 23089.062841  6792.674641  5268.451298

                             ****ORCA TERMINATED NORMALLY****
TOTAL RUN TIME: 0 days 0 hours 0 minutes 10 seconds 588 msec
