                         Program Version 5.0.3 -  RELEASE  -
|  1> ! B3LYP cc-pVDZ
|  2> !TightSCF
|  3> %scf
|  4>  ConvForced true
|  5>  convergence tight
|  6>  MaxIter 500
|  7> end
|  8>
|  9> %tddft
| 10>  nroots 1
| 11> end
| 12>
| 13> # 	8950
| 14> * xyz 0 1
| 15> 		C   -1.221862  -0.263992  -0.099078
| 16> 		O   -1.573840  -1.004529  -0.903683
| 17> 		C    0.006949   0.547655  -0.228685
| 18> 		C    1.155867   0.018211   0.179592
| 19> 		H   -1.655607  -0.355017   0.992150
| 20> 		H   -0.076666   1.524215  -0.677974
| 21> 		H    1.174826  -1.074554   0.584199
| 22> 		H    2.224505   0.595214   0.161875
| 23> *
| 24>
| 25>                          ****END OF INPUT****

CARTESIAN COORDINATES (ANGSTROEM)
---------------------------------
  C     -1.221862   -0.263992   -0.099078
  O     -1.573840   -1.004529   -0.903683
  C      0.006949    0.547655   -0.228685
  C      1.155867    0.018211    0.179592
  H     -1.655607   -0.355017    0.992150
  H     -0.076666    1.524215   -0.677974
  H      1.174826   -1.074554    0.584199
  H      2.224505    0.595214    0.161875

 Total Charge           Charge          ....    0
 Multiplicity           Mult            ....    1
 Number of Electrons    NEL             ....   30
 Basis Dimension        Dim             ....   76

ORBITAL ENERGIES
----------------

  NO   OCC          E(Eh)            E(eV)
   0   2.0000     -19.147119      -521.0196
   1   2.0000     -10.280489      -279.7463
   2   2.0000     -10.219792      -278.0947
   3   2.0000     -10.202920      -277.6356
   4   2.0000      -1.091082       -29.6899
   5   2.0000      -0.794632       -21.6230
   6   2.0000      -0.631883       -17.1944
   7   2.0000      -0.552302       -15.0289
   8   2.0000      -0.492683       -13.4066
   9   2.0000      -0.463816       -12.6211
  10   2.0000      -0.446821       -12.1586
  11   2.0000      -0.397234       -10.8093
  12   2.0000      -0.377434       -10.2705
  13   2.0000      -0.285544        -7.7701
  14   2.0000      -0.253807        -6.9064
  15   0.0000      -0.027329        -0.7437
  16   0.0000      -0.003558        -0.0968
  17   0.0000       0.071733         1.9520
  18   0.0000       0.085131         2.3165
  19   0.0000       0.097136         2.6432

MULLIKEN ATOMIC CHARGES
-----------------------
   0 C :    0.126561
   1 O :   -0.119254
   2 C :   -0.035821
   3 C :   -0.057958
   4 H :   -0.023452
   5 H :    0.009922
   6 H :    0.042800
   7 H :    0.057203
Sum of atomic charges:   -0.0000000

LOEWDIN ATOMIC CHARGES
----------------------
   0 C :   -0.069242
   1 O :    0.074102
   2 C :   -0.065572
   3 C :   -0.049525
   4 H :   -0.011136
   5 H :    0.030546
   6 H :    0.039965
   7 H :    0.050862

  Mayer bond orders larger than 0.100000
B(  0-C ,  1-O ) :   2.2947 B(  0-C ,  2-C ) :   0.9624 B(  0-C ,  4-H ) :   0.8937
B(  2-C ,  3-C ) :   2.0270 B(  2-C ,  5-H ) :   0.9400 B(  3-C ,  6-H ) :   0.9367
B(  3-C ,  7-H ) :   0.9407

-----------------------------------------------------------------------------
         ABSORPTION SPECTRUM VIA TRANSITION ELECTRIC DIPOLE MOMENTS
-----------------------------------------------------------------------------
State   Energy    Wavelength  fosc         T2        TX        TY        TZ
        (cm-1)      (nm)                 (au**2)    (au)      (au)      (au)
-----------------------------------------------------------------------------
   1   35399.6    282.5   0.001578849   0.01468  -0.07254  -0.04013   0.08838

FINAL SINGLE POINT ENERGY      -191.614416095477

DIPOLE MOMENT
-------------
                                X             Y             Z
Electronic contribution:     -2.75814      -0.89213      -1.57978
Nuclear contribution   :      3.16754       1.42197       2.00069
                        -----------------------------------------
Total Dipole Moment    :      0.40940       0.52984       0.42091
                        -----------------------------------------
Magnitude (a.u.)       :      0.79088
Magnitude (Debye)      :      2.01027

Rotational constants in cm-1:     0.944053     0.178393     0.168033
Rotational constants in MHz : 28301.990393  5348.074357  5037.498555

                             ****ORCA TERMINATED NORMALLY****
TOTAL RUN TIME: 0 days 0 hours 3 minutes 14 seconds 981 msec
