                         Program Version 5.0.3 -  RELEASE  -
|  1> ! HF-3c
|  2> !TightSCF
|  3> %scf
|  4>  ConvForced true
|  5>  convergence tight
|  6>  MaxIter 500
|  7> end
|  8>
|  9> %tddft
| 10>  nroots 1
| 11> end
| 12>
| 13> # 	13003
| 14> * xyz 0 1
| 15> 		C   -1.182857  -0.314352   0.030504
| 16> 		O   -1.309324  -1.452231  -0.461138
| 17> 		C    0.038346   0.521895  -0.120288
| 18> 		C    1.225646  -0.021663   0.082549
| 19> 		H   -2.062363  -0.023435   0.583395
| 20> 		H   -0.070652   1.586656  -0.484639
| 21> 		H    1.355555  -1.008226   0.301129
| 22> 		H    2.007820   0.659169   0.066728
| 23> *
| 24>
| 25>                          ****END OF INPUT****

CARTESIAN COORDINATES (ANGSTROEM)
---------------------------------
  C     -1.182857   -0.314352    0.030504
  O     -1.309324   -1.452231   -0.461138
  C      0.038346    0.521895   -0.120288
  C      1.225646   -0.021663    0.082549
  H     -2.062363   -0.023435    0.583395
  H     -0.070652    1.586656   -0.484639
  H      1.355555   -1.008226    0.301129
  H      2.007820    0.659169    0.066728

 Total Charge           Charge          ....    0
 Multiplicity           Mult            ....    1
 Number of Electrons    NEL             ....   30
 Basis Dimension        Dim             ....   24

ORBITAL ENERGIES
----------------

  NO   OCC          E(Eh)            E(eV)
   0   2.0000     -20.355485      -553.9009
   1   2.0000     -11.285996      -307.1076
   2   2.0000     -11.200417      -304.7789
   3   2.0000     -11.191240      -304.5291
   4   2.0000      -1.378117       -37.5005
   5   2.0000      -1.090460       -29.6729
   6   2.0000      -0.893075       -24.3018
   7   2.0000      -0.763251       -20.7691
   8   2.0000      -0.709190       -19.2980
   9   2.0000      -0.617178       -16.7943
  10   2.0000      -0.603580       -16.4242
  11   2.0000      -0.554615       -15.0918
  12   2.0000      -0.499185       -13.5835
  13   2.0000      -0.418672       -11.3926
  14   2.0000      -0.402353       -10.9486
  15   0.0000       0.148522         4.0415
  16   0.0000       0.252129         6.8608
  17   0.0000       0.569079        15.4854
  18   0.0000       0.596453        16.2303
  19   0.0000       0.712088        19.3769

MULLIKEN ATOMIC CHARGES
-----------------------
   0 C :    0.141118
   1 O :   -0.339659
   2 C :   -0.150991
   3 C :   -0.254062
   4 H :    0.145232
   5 H :    0.153909
   6 H :    0.155945
   7 H :    0.148508
Sum of atomic charges:    0.0000000

LOEWDIN ATOMIC CHARGES
----------------------
   0 C :    0.134997
   1 O :   -0.256716
   2 C :   -0.105279
   3 C :   -0.148306
   4 H :    0.079997
   5 H :    0.103648
   6 H :    0.097402
   7 H :    0.094258

  Mayer bond orders larger than 0.100000
B(  0-C ,  1-O ) :   1.9198 B(  0-C ,  2-C ) :   1.0139 B(  0-C ,  4-H ) :   0.9338
B(  2-C ,  3-C ) :   1.9713 B(  2-C ,  5-H ) :   0.9519 B(  3-C ,  6-H ) :   0.9635
B(  3-C ,  7-H ) :   0.9642

-----------------------------------------------------------------------------
         ABSORPTION SPECTRUM VIA TRANSITION ELECTRIC DIPOLE MOMENTS
-----------------------------------------------------------------------------
State   Energy    Wavelength  fosc         T2        TX        TY        TZ
        (cm-1)      (nm)                 (au**2)    (au)      (au)      (au)
-----------------------------------------------------------------------------
   1   31146.5    321.1   0.000007215   0.00008  -0.00855   0.00042  -0.00171

Dispersion correction           -0.025552896
FINAL SINGLE POINT ENERGY      -189.334310441818

DIPOLE MOMENT
-------------
                                X             Y             Z
Electronic contribution:     -2.10867      -1.52994      -0.54280
Nuclear contribution   :      2.39380       2.44669       0.90096
                        -----------------------------------------
Total Dipole Moment    :      0.28513       0.91675       0.35816
                        -----------------------------------------
Magnitude (a.u.)       :      1.02470
Magnitude (Debye)      :      2.60458

Rotational constants in cm-1:     0.803657     0.195720     0.164018
Rotational constants in MHz : 24093.020374  5867.534595  4917.123534

                             ****ORCA TERMINATED NORMALLY****
TOTAL RUN TIME: 0 days 0 hours 0 minutes 11 seconds 502 msec
