                         Program Version 5.0.3 -  RELEASE  -
|  1> ! HF-3c
|  2> !TightSCF
|  3> %scf
|  4>  ConvForced true
|  5>  convergence tight
|  6>  MaxIter 500
|  7> end
|  8>
|  9> %tddft
| 10>  nroots 1
| 11> end
| 12>
| 13> # 	8762
| 14> * xyz 0 1
| 15> 		C   -1.145193  -0.312702  -0.012856
| 16> 		O   -1.225474  -1.436858  -0.181350
| 17> 		C   -0.003115   0.532037  -0.066116
| 18> 		C    1.208894  -0.044059   0.003947
| 19> 		H   -2.177647   0.294337   0.177442
| 20> 		H   -0.111257   1.644459  -0.044009
| 21> 		H    1.308579  -1.168077   0.238497
| 22> 		H    2.125553   0.511663  -0.115236
| 23> *
| 24>
| 25>                          ****END OF INPUT****

CARTESIAN COORDINATES (ANGSTROEM)
---------------------------------
  C     -1.145193   -0.312702   -0.012856
  O     -1.225474   -1.436858   -0.181350
  C     -0.003115    0.532037   -0.066116
  C      1.208894   -0.044059    0.003947
  H     -2.177647    0.294337    0.177442
  H     -0.111257    1.644459   -0.044009
  H      1.308579   -1.168077    0.238497
  H      2.125553    0.511663   -0.115236

 Total Charge           Charge          ....    0
 Multiplicity           Mult            ....    1
 Number of Electrons    NEL             ....   30
 Basis Dimension        Dim             ....   24

ORBITAL ENERGIES
----------------

  NO   OCC          E(Eh)            E(eV)
   0   2.0000     -20.376511      -554.4731
   1   2.0000     -11.307930      -307.7044
   2   2.0000     -11.194884      -304.6283
   3   2.0000     -11.184943      -304.3578
   4   2.0000      -1.452302       -39.5192
   5   2.0000      -1.084085       -29.4994
   6   2.0000      -0.885267       -24.0893
   7   2.0000      -0.726888       -19.7796
   8   2.0000      -0.710976       -19.3466
   9   2.0000      -0.620788       -16.8925
  10   2.0000      -0.601376       -16.3643
  11   2.0000      -0.569281       -15.4909
  12   2.0000      -0.530451       -14.4343
  13   2.0000      -0.398461       -10.8427
  14   2.0000      -0.388174       -10.5627
  15   0.0000       0.137313         3.7365
  16   0.0000       0.333595         9.0776
  17   0.0000       0.517882        14.0923
  18   0.0000       0.592560        16.1244
  19   0.0000       0.630494        17.1566

MULLIKEN ATOMIC CHARGES
-----------------------
   0 C :    0.199779
   1 O :   -0.376342
   2 C :   -0.192322
   3 C :   -0.194991
   4 H :    0.110275
   5 H :    0.149943
   6 H :    0.160392
   7 H :    0.143266
Sum of atomic charges:   -0.0000000

LOEWDIN ATOMIC CHARGES
----------------------
   0 C :    0.152636
   1 O :   -0.257622
   2 C :   -0.154744
   3 C :   -0.096909
   4 H :    0.054405
   5 H :    0.099932
   6 H :    0.110808
   7 H :    0.091494

  Mayer bond orders larger than 0.100000
B(  0-C ,  1-O ) :   1.9028 B(  0-C ,  2-C ) :   1.0368 B(  0-C ,  4-H ) :   0.9016
B(  2-C ,  3-C ) :   1.9266 B(  2-C ,  5-H ) :   0.9564 B(  3-C ,  6-H ) :   0.9573
B(  3-C ,  7-H ) :   0.9663

-----------------------------------------------------------------------------
         ABSORPTION SPECTRUM VIA TRANSITION ELECTRIC DIPOLE MOMENTS
-----------------------------------------------------------------------------
State   Energy    Wavelength  fosc         T2        TX        TY        TZ
        (cm-1)      (nm)                 (au**2)    (au)      (au)      (au)
-----------------------------------------------------------------------------
   1   35571.9    281.1   0.000283584   0.00262  -0.04828   0.00525  -0.01631

Dispersion correction           -0.025959295
FINAL SINGLE POINT ENERGY      -189.302679038892

DIPOLE MOMENT
-------------
                                X             Y             Z
Electronic contribution:     -1.75866      -1.63287      -0.29503
Nuclear contribution   :      2.24737       2.49832       0.47628
                        -----------------------------------------
Total Dipole Moment    :      0.48871       0.86546       0.18125
                        -----------------------------------------
Magnitude (a.u.)       :      1.01030
Magnitude (Debye)      :      2.56798

Rotational constants in cm-1:     0.788639     0.217711     0.171684
Rotational constants in MHz : 23642.807340  6526.803337  5146.952539

                             ****ORCA TERMINATED NORMALLY****
TOTAL RUN TIME: 0 days 0 hours 0 minutes 12 seconds 536 msec
