                         Program Version 5.0.3 -  RELEASE  -
|  1> ! B3LYP cc-pVDZ
|  2> !TightSCF
|  3> %scf
|  4>  ConvForced true
|  5>  convergence tight
|  6>  MaxIter 500
|  7> end
|  8>
|  9> %tddft
| 10>  nroots 1
| 11> end
| 12>
| 13> # 	24936
| 14> * xyz 0 1
| 15> 		C   -0.603889  -0.426330  -0.043145
| 16> 		O   -0.576571  -1.593032   0.011933
| 17> 		C    0.632545   0.368639   0.039212
| 18> 		C    1.843968  -0.136318   0.003494
| 19> 		H   -1.682281  -0.002973   0.103995
| 20> 		H    0.459424   1.469998  -0.149638
| 21> 		H    2.268299  -1.089978  -0.124358
| 22> 		H    2.735845   0.502665  -0.021050
| 23> *
| 24>
| 25>                          ****END OF INPUT****

CARTESIAN COORDINATES (ANGSTROEM)
---------------------------------
  C     -0.603889   -0.426330   -0.043145
  O     -0.576571   -1.593032    0.011933
  C      0.632545    0.368639    0.039212
  C      1.843968   -0.136318    0.003494
  H     -1.682281   -0.002973    0.103995
  H      0.459424    1.469998   -0.149638
  H      2.268299   -1.089978   -0.124358
  H      2.735845    0.502665   -0.021050

 Total Charge           Charge          ....    0
 Multiplicity           Mult            ....    1
 Number of Electrons    NEL             ....   30
 Basis Dimension        Dim             ....   76

ORBITAL ENERGIES
----------------

  NO   OCC          E(Eh)            E(eV)
   0   2.0000     -19.132044      -520.6094
   1   2.0000     -10.270886      -279.4850
   2   2.0000     -10.209753      -277.8215
   3   2.0000     -10.207953      -277.7725
   4   2.0000      -1.069395       -29.0997
   5   2.0000      -0.796212       -21.6660
   6   2.0000      -0.654868       -17.8199
   7   2.0000      -0.547479       -14.8977
   8   2.0000      -0.503301       -13.6955
   9   2.0000      -0.462093       -12.5742
  10   2.0000      -0.425343       -11.5742
  11   2.0000      -0.409855       -11.1527
  12   2.0000      -0.367552       -10.0016
  13   2.0000      -0.291847        -7.9416
  14   2.0000      -0.247893        -6.7455
  15   0.0000      -0.065114        -1.7718
  16   0.0000       0.054242         1.4760
  17   0.0000       0.071850         1.9551
  18   0.0000       0.095725         2.6048
  19   0.0000       0.109153         2.9702

MULLIKEN ATOMIC CHARGES
-----------------------
   0 C :    0.136388
   1 O :   -0.148698
   2 C :   -0.101065
   3 C :    0.086266
   4 H :   -0.025273
   5 H :    0.010231
   6 H :    0.017597
   7 H :    0.024554
Sum of atomic charges:   -0.0000000

LOEWDIN ATOMIC CHARGES
----------------------
   0 C :   -0.073227
   1 O :    0.035612
   2 C :   -0.086267
   3 C :    0.027025
   4 H :   -0.004048
   5 H :    0.038692
   6 H :    0.024963
   7 H :    0.037249

  Mayer bond orders larger than 0.100000
B(  0-C ,  1-O ) :   2.2443 B(  0-C ,  2-C ) :   1.0264 B(  0-C ,  4-H ) :   0.9144
B(  2-C ,  3-C ) :   1.9674 B(  2-C ,  5-H ) :   0.9300 B(  3-C ,  6-H ) :   0.9595
B(  3-C ,  7-H ) :   0.9431

-----------------------------------------------------------------------------
         ABSORPTION SPECTRUM VIA TRANSITION ELECTRIC DIPOLE MOMENTS
-----------------------------------------------------------------------------
State   Energy    Wavelength  fosc         T2        TX        TY        TZ
        (cm-1)      (nm)                 (au**2)    (au)      (au)      (au)
-----------------------------------------------------------------------------
   1   27487.0    363.8   0.000759879   0.00910   0.08307   0.02244  -0.04119

FINAL SINGLE POINT ENERGY      -191.657638602663

DIPOLE MOMENT
-------------
                                X             Y             Z
Electronic contribution:     -1.95109      -1.85829       0.08142
Nuclear contribution   :      2.39128       2.61149      -0.17860
                        -----------------------------------------
Total Dipole Moment    :      0.44018       0.75320      -0.09718
                        -----------------------------------------
Magnitude (a.u.)       :      0.87779
Magnitude (Debye)      :      2.23116

Rotational constants in cm-1:     0.798319     0.209824     0.166458
Rotational constants in MHz : 23932.994137  6290.376512  4990.287360

                             ****ORCA TERMINATED NORMALLY****
TOTAL RUN TIME: 0 days 0 hours 3 minutes 22 seconds 481 msec
