                         Program Version 5.0.3 -  RELEASE  -
|  1> ! B3LYP cc-pVDZ
|  2> !TightSCF
|  3> %scf
|  4>  ConvForced true
|  5>  convergence tight
|  6>  MaxIter 500
|  7> end
|  8>
|  9> %tddft
| 10>  nroots 1
| 11> end
| 12>
| 13> # 	7325
| 14> * xyz 0 1
| 15> 		C   -1.155693  -0.305981  -0.069808
| 16> 		O   -1.421777  -1.437042  -0.565959
| 17> 		C    0.040643   0.454732  -0.196177
| 18> 		C    1.245609   0.059499   0.053176
| 19> 		H   -1.928987  -0.053633   0.706394
| 20> 		H   -0.072183   1.629856  -0.275647
| 21> 		H    1.330207  -1.050542   0.238095
| 22> 		H    2.016497   0.668798   0.070193
| 23> *
| 24>
| 25>                          ****END OF INPUT****

CARTESIAN COORDINATES (ANGSTROEM)
---------------------------------
  C     -1.155693   -0.305981   -0.069808
  O     -1.421777   -1.437042   -0.565959
  C      0.040643    0.454732   -0.196177
  C      1.245609    0.059499    0.053176
  H     -1.928987   -0.053633    0.706394
  H     -0.072183    1.629856   -0.275647
  H      1.330207   -1.050542    0.238095
  H      2.016497    0.668798    0.070193

 Total Charge           Charge          ....    0
 Multiplicity           Mult            ....    1
 Number of Electrons    NEL             ....   30
 Basis Dimension        Dim             ....   76

ORBITAL ENERGIES
----------------

  NO   OCC          E(Eh)            E(eV)
   0   2.0000     -19.137162      -520.7487
   1   2.0000     -10.279034      -279.7067
   2   2.0000     -10.213297      -277.9179
   3   2.0000     -10.204940      -277.6905
   4   2.0000      -1.018692       -27.7200
   5   2.0000      -0.817154       -22.2359
   6   2.0000      -0.672309       -18.2945
   7   2.0000      -0.542328       -14.7575
   8   2.0000      -0.513447       -13.9716
   9   2.0000      -0.464874       -12.6499
  10   2.0000      -0.431621       -11.7450
  11   2.0000      -0.384646       -10.4667
  12   2.0000      -0.356299        -9.6954
  13   2.0000      -0.300024        -8.1641
  14   2.0000      -0.251478        -6.8431
  15   0.0000      -0.061126        -1.6633
  16   0.0000       0.013129         0.3573
  17   0.0000       0.067711         1.8425
  18   0.0000       0.092007         2.5036
  19   0.0000       0.109826         2.9885

MULLIKEN ATOMIC CHARGES
-----------------------
   0 C :    0.159232
   1 O :   -0.231512
   2 C :   -0.115572
   3 C :    0.140364
   4 H :    0.006363
   5 H :    0.020915
   6 H :    0.033287
   7 H :   -0.013076
Sum of atomic charges:   -0.0000000

LOEWDIN ATOMIC CHARGES
----------------------
   0 C :   -0.009308
   1 O :   -0.050893
   2 C :   -0.075115
   3 C :    0.023551
   4 H :    0.010933
   5 H :    0.052092
   6 H :    0.045683
   7 H :    0.003056

  Mayer bond orders larger than 0.100000
B(  0-C ,  1-O ) :   2.1458 B(  0-C ,  2-C ) :   1.0301 B(  0-C ,  4-H ) :   0.9326
B(  2-C ,  3-C ) :   2.0299 B(  2-C ,  5-H ) :   0.9136 B(  3-C ,  6-H ) :   0.9320
B(  3-C ,  7-H ) :   0.9269

-----------------------------------------------------------------------------
         ABSORPTION SPECTRUM VIA TRANSITION ELECTRIC DIPOLE MOMENTS
-----------------------------------------------------------------------------
State   Energy    Wavelength  fosc         T2        TX        TY        TZ
        (cm-1)      (nm)                 (au**2)    (au)      (au)      (au)
-----------------------------------------------------------------------------
   1   27611.8    362.2   0.000500712   0.00597   0.06777   0.02046   0.03096

FINAL SINGLE POINT ENERGY      -191.647481227317

DIPOLE MOMENT
-------------
                                X             Y             Z
Electronic contribution:     -2.00504      -1.49670      -0.98805
Nuclear contribution   :      2.57340       2.39539       1.41516
                        -----------------------------------------
Total Dipole Moment    :      0.56836       0.89869       0.42711
                        -----------------------------------------
Magnitude (a.u.)       :      1.14590
Magnitude (Debye)      :      2.91265

Rotational constants in cm-1:     0.908090     0.183625     0.159037
Rotational constants in MHz : 27223.867818  5504.931985  4767.823985

                             ****ORCA TERMINATED NORMALLY****
TOTAL RUN TIME: 0 days 0 hours 3 minutes 18 seconds 904 msec
