                         Program Version 5.0.3 -  RELEASE  -
|  1> ! HF-3c
|  2> !TightSCF
|  3> %scf
|  4>  ConvForced true
|  5>  convergence tight
|  6>  MaxIter 500
|  7> end
|  8>
|  9> %tddft
| 10>  nroots 1
| 11> end
| 12>
| 13> # 	27740
| 14> * xyz 0 1
| 15> 		C   -0.631661  -0.413809   0.001295
| 16> 		O   -0.575434  -1.614197   0.011405
| 17> 		C    0.652660   0.355077   0.001360
| 18> 		C    1.831552  -0.096576   0.010245
| 19> 		H   -1.694903   0.033561  -0.064676
| 20> 		H    0.503443   1.357557  -0.112329
| 21> 		H    2.259111  -1.114995  -0.366910
| 22> 		H    2.924143   0.474323   0.222727
| 23> *
| 24>
| 25>                          ****END OF INPUT****

CARTESIAN COORDINATES (ANGSTROEM)
---------------------------------
  C     -0.631661   -0.413809    0.001295
  O     -0.575434   -1.614197    0.011405
  C      0.652660    0.355077    0.001360
  C      1.831552   -0.096576    0.010245
  H     -1.694903    0.033561   -0.064676
  H      0.503443    1.357557   -0.112329
  H      2.259111   -1.114995   -0.366910
  H      2.924143    0.474323    0.222727

 Total Charge           Charge          ....    0
 Multiplicity           Mult            ....    1
 Number of Electrons    NEL             ....   30
 Basis Dimension        Dim             ....   24

ORBITAL ENERGIES
----------------

  NO   OCC          E(Eh)            E(eV)
   0   2.0000     -20.355474      -553.9006
   1   2.0000     -11.290441      -307.2285
   2   2.0000     -11.190496      -304.5089
   3   2.0000     -11.188202      -304.4464
   4   2.0000      -1.403516       -38.1916
   5   2.0000      -1.083362       -29.4798
   6   2.0000      -0.869057       -23.6482
   7   2.0000      -0.740234       -20.1428
   8   2.0000      -0.698070       -18.9954
   9   2.0000      -0.626851       -17.0575
  10   2.0000      -0.576788       -15.6952
  11   2.0000      -0.544380       -14.8133
  12   2.0000      -0.490481       -13.3467
  13   2.0000      -0.412684       -11.2297
  14   2.0000      -0.383005       -10.4221
  15   0.0000       0.145946         3.9714
  16   0.0000       0.309946         8.4341
  17   0.0000       0.434487        11.8230
  18   0.0000       0.592372        16.1193
  19   0.0000       0.605810        16.4849

MULLIKEN ATOMIC CHARGES
-----------------------
   0 C :    0.168330
   1 O :   -0.355592
   2 C :   -0.217950
   3 C :   -0.180235
   4 H :    0.146022
   5 H :    0.144045
   6 H :    0.151021
   7 H :    0.144359
Sum of atomic charges:    0.0000000

LOEWDIN ATOMIC CHARGES
----------------------
   0 C :    0.142041
   1 O :   -0.258261
   2 C :   -0.165526
   3 C :   -0.100486
   4 H :    0.086426
   5 H :    0.087674
   6 H :    0.103360
   7 H :    0.104772

  Mayer bond orders larger than 0.100000
B(  0-C ,  1-O ) :   1.9115 B(  0-C ,  2-C ) :   1.0071 B(  0-C ,  4-H ) :   0.9235
B(  2-C ,  3-C ) :   1.9720 B(  2-C ,  5-H ) :   0.9531 B(  3-C ,  6-H ) :   0.9565
B(  3-C ,  7-H ) :   0.9541

-----------------------------------------------------------------------------
         ABSORPTION SPECTRUM VIA TRANSITION ELECTRIC DIPOLE MOMENTS
-----------------------------------------------------------------------------
State   Energy    Wavelength  fosc         T2        TX        TY        TZ
        (cm-1)      (nm)                 (au**2)    (au)      (au)      (au)
-----------------------------------------------------------------------------
   1   32417.6    308.5   0.000013040   0.00013   0.00105  -0.00981   0.00593

Dispersion correction           -0.025090788
FINAL SINGLE POINT ENERGY      -189.286896898195

DIPOLE MOMENT
-------------
                                X             Y             Z
Electronic contribution:     -2.20506      -1.63255       0.21540
Nuclear contribution   :      2.58951       2.49017      -0.30208
                        -----------------------------------------
Total Dipole Moment    :      0.38444       0.85763      -0.08668
                        -----------------------------------------
Magnitude (a.u.)       :      0.94384
Magnitude (Debye)      :      2.39905

Rotational constants in cm-1:     0.802202     0.204624     0.163689
Rotational constants in MHz : 24049.409995  6134.477926  4907.265097

                             ****ORCA TERMINATED NORMALLY****
TOTAL RUN TIME: 0 days 0 hours 0 minutes 12 seconds 546 msec
