                         Program Version 5.0.3 -  RELEASE  -
|  1> ! B3LYP cc-pVDZ
|  2> !TightSCF
|  3> %scf
|  4>  ConvForced true
|  5>  convergence tight
|  6>  MaxIter 500
|  7> end
|  8>
|  9> %tddft
| 10>  nroots 1
| 11> end
| 12>
| 13> # 	12345
| 14> * xyz 0 1
| 15> 		C   -1.221629  -0.362283  -0.086000
| 16> 		O   -1.191759  -1.469029  -0.234327
| 17> 		C    0.064518   0.535909  -0.016663
| 18> 		C    1.257956  -0.012860   0.028496
| 19> 		H   -2.183690   0.249441   0.137442
| 20> 		H   -0.127871   1.539865   0.036443
| 21> 		H    1.466633  -1.072346   0.024068
| 22> 		H    1.898410   0.634037   0.109607
| 23> *
| 24>
| 25>                          ****END OF INPUT****

CARTESIAN COORDINATES (ANGSTROEM)
---------------------------------
  C     -1.221629   -0.362283   -0.086000
  O     -1.191759   -1.469029   -0.234327
  C      0.064518    0.535909   -0.016663
  C      1.257956   -0.012860    0.028496
  H     -2.183690    0.249441    0.137442
  H     -0.127871    1.539865    0.036443
  H      1.466633   -1.072346    0.024068
  H      1.898410    0.634037    0.109607

 Total Charge           Charge          ....    0
 Multiplicity           Mult            ....    1
 Number of Electrons    NEL             ....   30
 Basis Dimension        Dim             ....   76

ORBITAL ENERGIES
----------------

  NO   OCC          E(Eh)            E(eV)
   0   2.0000     -19.144907      -520.9594
   1   2.0000     -10.273547      -279.5574
   2   2.0000     -10.189384      -277.2672
   3   2.0000     -10.183653      -277.1113
   4   2.0000      -1.105761       -30.0893
   5   2.0000      -0.797614       -21.7042
   6   2.0000      -0.647425       -17.6173
   7   2.0000      -0.541675       -14.7397
   8   2.0000      -0.519465       -14.1354
   9   2.0000      -0.462227       -12.5778
  10   2.0000      -0.436326       -11.8730
  11   2.0000      -0.426671       -11.6103
  12   2.0000      -0.403109       -10.9692
  13   2.0000      -0.289402        -7.8750
  14   2.0000      -0.249433        -6.7874
  15   0.0000      -0.047195        -1.2842
  16   0.0000       0.067985         1.8500
  17   0.0000       0.080307         2.1853
  18   0.0000       0.101292         2.7563
  19   0.0000       0.125248         3.4082

MULLIKEN ATOMIC CHARGES
-----------------------
   0 C :    0.140664
   1 O :   -0.093940
   2 C :   -0.149001
   3 C :    0.222100
   4 H :   -0.041863
   5 H :   -0.044413
   6 H :    0.021818
   7 H :   -0.055365
Sum of atomic charges:   -0.0000000

LOEWDIN ATOMIC CHARGES
----------------------
   0 C :   -0.083238
   1 O :    0.096757
   2 C :   -0.054138
   3 C :    0.043186
   4 H :   -0.021218
   5 H :    0.005883
   6 H :    0.036273
   7 H :   -0.023506

  Mayer bond orders larger than 0.100000
B(  0-C ,  1-O ) :   2.3282 B(  0-C ,  2-C ) :   0.9840 B(  0-C ,  4-H ) :   0.8821
B(  2-C ,  3-C ) :   2.0107 B(  2-C ,  5-H ) :   0.9461 B(  3-C ,  6-H ) :   0.9415
B(  3-C ,  7-H ) :   0.9123

-----------------------------------------------------------------------------
         ABSORPTION SPECTRUM VIA TRANSITION ELECTRIC DIPOLE MOMENTS
-----------------------------------------------------------------------------
State   Energy    Wavelength  fosc         T2        TX        TY        TZ
        (cm-1)      (nm)                 (au**2)    (au)      (au)      (au)
-----------------------------------------------------------------------------
   1   31982.8    312.7   0.000045732   0.00047   0.00314  -0.00645  -0.02048

FINAL SINGLE POINT ENERGY      -191.606619352085

DIPOLE MOMENT
-------------
                                X             Y             Z
Electronic contribution:     -1.79885      -1.92054      -0.45840
Nuclear contribution   :      2.09927       2.60387       0.57604
                        -----------------------------------------
Total Dipole Moment    :      0.30042       0.68333       0.11765
                        -----------------------------------------
Magnitude (a.u.)       :      0.75567
Magnitude (Debye)      :      1.92076

Rotational constants in cm-1:     0.807550     0.206870     0.165006
Rotational constants in MHz : 24209.741518  6201.793560  4946.762503

                             ****ORCA TERMINATED NORMALLY****
TOTAL RUN TIME: 0 days 0 hours 3 minutes 27 seconds 804 msec
