                         Program Version 5.0.3 -  RELEASE  -
|  1> ! B3LYP cc-pVDZ
|  2> !TightSCF
|  3> %scf
|  4>  ConvForced true
|  5>  convergence tight
|  6>  MaxIter 500
|  7> end
|  8>
|  9> %tddft
| 10>  nroots 1
| 11> end
| 12>
| 13> # 	3335
| 14> * xyz 0 1
| 15> 		C   -1.195263  -0.328531  -0.055531
| 16> 		O   -1.956756  -0.762791  -0.882994
| 17> 		C    0.074572   0.402431  -0.317809
| 18> 		C    1.148392   0.070559   0.204883
| 19> 		H   -1.393026  -0.473009   1.106635
| 20> 		H   -0.026756   1.013004  -0.963460
| 21> 		H    1.202870  -0.596607   0.909034
| 22> 		H    2.140356   0.653097  -0.051672
| 23> *
| 24>
| 25>                          ****END OF INPUT****

CARTESIAN COORDINATES (ANGSTROEM)
---------------------------------
  C     -1.195263   -0.328531   -0.055531
  O     -1.956756   -0.762791   -0.882994
  C      0.074572    0.402431   -0.317809
  C      1.148392    0.070559    0.204883
  H     -1.393026   -0.473009    1.106635
  H     -0.026756    1.013004   -0.963460
  H      1.202870   -0.596607    0.909034
  H      2.140356    0.653097   -0.051672

 Total Charge           Charge          ....    0
 Multiplicity           Mult            ....    1
 Number of Electrons    NEL             ....   30
 Basis Dimension        Dim             ....   76

ORBITAL ENERGIES
----------------

  NO   OCC          E(Eh)            E(eV)
   0   2.0000     -19.147765      -521.0372
   1   2.0000     -10.283652      -279.8324
   2   2.0000     -10.196705      -277.4664
   3   2.0000     -10.178837      -276.9802
   4   2.0000      -1.054868       -28.7044
   5   2.0000      -0.830165       -22.5899
   6   2.0000      -0.652962       -17.7680
   7   2.0000      -0.589938       -16.0530
   8   2.0000      -0.485617       -13.2143
   9   2.0000      -0.481222       -13.0947
  10   2.0000      -0.443743       -12.0748
  11   2.0000      -0.392722       -10.6865
  12   2.0000      -0.388880       -10.5820
  13   2.0000      -0.308408        -8.3922
  14   2.0000      -0.255167        -6.9434
  15   0.0000      -0.048309        -1.3146
  16   0.0000       0.032601         0.8871
  17   0.0000       0.074378         2.0239
  18   0.0000       0.094572         2.5734
  19   0.0000       0.126879         3.4526

MULLIKEN ATOMIC CHARGES
-----------------------
   0 C :    0.120791
   1 O :   -0.175439
   2 C :    0.080847
   3 C :    0.111926
   4 H :   -0.019509
   5 H :   -0.117254
   6 H :   -0.040534
   7 H :    0.039171
Sum of atomic charges:   -0.0000000

LOEWDIN ATOMIC CHARGES
----------------------
   0 C :   -0.015689
   1 O :    0.012191
   2 C :   -0.027739
   3 C :    0.018012
   4 H :   -0.008790
   5 H :   -0.028041
   6 H :   -0.003945
   7 H :    0.054002

  Mayer bond orders larger than 0.100000
B(  0-C ,  1-O ) :   2.2143 B(  0-C ,  2-C ) :   1.0101 B(  0-C ,  4-H ) :   0.8931
B(  2-C ,  3-C ) :   2.0439 B(  2-C ,  5-H ) :   0.9361 B(  3-C ,  6-H ) :   0.9202
B(  3-C ,  7-H ) :   0.9306

-----------------------------------------------------------------------------
         ABSORPTION SPECTRUM VIA TRANSITION ELECTRIC DIPOLE MOMENTS
-----------------------------------------------------------------------------
State   Energy    Wavelength  fosc         T2        TX        TY        TZ
        (cm-1)      (nm)                 (au**2)    (au)      (au)      (au)
-----------------------------------------------------------------------------
   1   31646.0    316.0   0.000300688   0.00313  -0.01869   0.04392  -0.02915

FINAL SINGLE POINT ENERGY      -191.590018581230

DIPOLE MOMENT
-------------
                                X             Y             Z
Electronic contribution:     -2.94443      -0.80131      -1.46685
Nuclear contribution   :      3.72671       1.21142       1.94315
                        -----------------------------------------
Total Dipole Moment    :      0.78228       0.41012       0.47630
                        -----------------------------------------
Magnitude (a.u.)       :      1.00350
Magnitude (Debye)      :      2.55071

Rotational constants in cm-1:     1.428127     0.160480     0.153352
Rotational constants in MHz : 42814.185323  4811.065429  4597.381458

                             ****ORCA TERMINATED NORMALLY****
TOTAL RUN TIME: 0 days 0 hours 3 minutes 19 seconds 377 msec
