                         Program Version 5.0.3 -  RELEASE  -
|  1> ! HF-3c
|  2> !TightSCF
|  3> %scf
|  4>  ConvForced true
|  5>  convergence tight
|  6>  MaxIter 500
|  7> end
|  8>
|  9> %tddft
| 10>  nroots 1
| 11> end
| 12>
| 13> # 	3062
| 14> * xyz 0 1
| 15> 		C   -1.174379  -0.317317   0.009600
| 16> 		O   -1.203110  -1.563507   0.112532
| 17> 		C    0.070720   0.526514   0.010317
| 18> 		C    1.253542   0.007946  -0.025524
| 19> 		H   -2.163627   0.277902  -0.078942
| 20> 		H   -0.231082   1.535303   0.041040
| 21> 		H    1.384529  -0.955998  -0.047805
| 22> 		H    2.088268   0.475303  -0.032365
| 23> *
| 24>
| 25>                          ****END OF INPUT****

CARTESIAN COORDINATES (ANGSTROEM)
---------------------------------
  C     -1.174379   -0.317317    0.009600
  O     -1.203110   -1.563507    0.112532
  C      0.070720    0.526514    0.010317
  C      1.253542    0.007946   -0.025524
  H     -2.163627    0.277902   -0.078942
  H     -0.231082    1.535303    0.041040
  H      1.384529   -0.955998   -0.047805
  H      2.088268    0.475303   -0.032365

 Total Charge           Charge          ....    0
 Multiplicity           Mult            ....    1
 Number of Electrons    NEL             ....   30
 Basis Dimension        Dim             ....   24

ORBITAL ENERGIES
----------------

  NO   OCC          E(Eh)            E(eV)
   0   2.0000     -20.361487      -554.0642
   1   2.0000     -11.287126      -307.1383
   2   2.0000     -11.211406      -305.0779
   3   2.0000     -11.208528      -304.9995
   4   2.0000      -1.374242       -37.3950
   5   2.0000      -1.108012       -30.1505
   6   2.0000      -0.918116       -24.9832
   7   2.0000      -0.767585       -20.8870
   8   2.0000      -0.715657       -19.4740
   9   2.0000      -0.645934       -17.5767
  10   2.0000      -0.606430       -16.5018
  11   2.0000      -0.546472       -14.8703
  12   2.0000      -0.528381       -14.3780
  13   2.0000      -0.415694       -11.3116
  14   2.0000      -0.414018       -11.2660
  15   0.0000       0.122918         3.3448
  16   0.0000       0.298840         8.1318
  17   0.0000       0.517755        14.0888
  18   0.0000       0.648206        17.6386
  19   0.0000       0.667447        18.1622

MULLIKEN ATOMIC CHARGES
-----------------------
   0 C :    0.166380
   1 O :   -0.342396
   2 C :   -0.154983
   3 C :   -0.270889
   4 H :    0.136318
   5 H :    0.148920
   6 H :    0.164243
   7 H :    0.152407
Sum of atomic charges:    0.0000000

LOEWDIN ATOMIC CHARGES
----------------------
   0 C :    0.148219
   1 O :   -0.258300
   2 C :   -0.100918
   3 C :   -0.149881
   4 H :    0.078542
   5 H :    0.092391
   6 H :    0.099604
   7 H :    0.090344

  Mayer bond orders larger than 0.100000
B(  0-C ,  1-O ) :   1.9164 B(  0-C ,  2-C ) :   1.0130 B(  0-C ,  4-H ) :   0.9258
B(  2-C ,  3-C ) :   1.9633 B(  2-C ,  5-H ) :   0.9586 B(  3-C ,  6-H ) :   0.9575
B(  3-C ,  7-H ) :   0.9637

-----------------------------------------------------------------------------
         ABSORPTION SPECTRUM VIA TRANSITION ELECTRIC DIPOLE MOMENTS
-----------------------------------------------------------------------------
State   Energy    Wavelength  fosc         T2        TX        TY        TZ
        (cm-1)      (nm)                 (au**2)    (au)      (au)      (au)
-----------------------------------------------------------------------------
   1   30234.7    330.7   0.000003532   0.00004  -0.00456   0.00053   0.00417

Dispersion correction           -0.025871503
FINAL SINGLE POINT ENERGY      -189.321345814547

DIPOLE MOMENT
-------------
                                X             Y             Z
Electronic contribution:     -1.92837      -1.67257       0.13602
Nuclear contribution   :      2.09314       2.64246      -0.21757
                        -----------------------------------------
Total Dipole Moment    :      0.16477       0.96989      -0.08155
                        -----------------------------------------
Magnitude (a.u.)       :      0.98716
Magnitude (Debye)      :      2.50916

Rotational constants in cm-1:     0.776340     0.203498     0.161400
Rotational constants in MHz : 23274.083427  6100.706822  4838.662034

                             ****ORCA TERMINATED NORMALLY****
TOTAL RUN TIME: 0 days 0 hours 0 minutes 12 seconds 724 msec
