                         Program Version 5.0.3 -  RELEASE  -
|  1> ! B3LYP cc-pVDZ
|  2> !TightSCF
|  3> %scf
|  4>  ConvForced true
|  5>  convergence tight
|  6>  MaxIter 500
|  7> end
|  8>
|  9> %tddft
| 10>  nroots 1
| 11> end
| 12>
| 13> # 	17345
| 14> * xyz 0 1
| 15> 		C   -1.208705  -0.308454   0.011295
| 16> 		O   -1.352662  -1.410498  -0.534734
| 17> 		C    0.005301   0.457319  -0.106702
| 18> 		C    1.194976   0.026414   0.111168
| 19> 		H   -2.006990   0.030449   0.713623
| 20> 		H   -0.003697   1.615899  -0.469156
| 21> 		H    1.410715  -1.079653   0.276381
| 22> 		H    2.000476   0.720615  -0.029000
| 23> *
| 24>
| 25>                          ****END OF INPUT****

CARTESIAN COORDINATES (ANGSTROEM)
---------------------------------
  C     -1.208705   -0.308454    0.011295
  O     -1.352662   -1.410498   -0.534734
  C      0.005301    0.457319   -0.106702
  C      1.194976    0.026414    0.111168
  H     -2.006990    0.030449    0.713623
  H     -0.003697    1.615899   -0.469156
  H      1.410715   -1.079653    0.276381
  H      2.000476    0.720615   -0.029000

 Total Charge           Charge          ....    0
 Multiplicity           Mult            ....    1
 Number of Electrons    NEL             ....   30
 Basis Dimension        Dim             ....   76

ORBITAL ENERGIES
----------------

  NO   OCC          E(Eh)            E(eV)
   0   2.0000     -19.141632      -520.8703
   1   2.0000     -10.280325      -279.7419
   2   2.0000     -10.208914      -277.7987
   3   2.0000     -10.204241      -277.6715
   4   2.0000      -1.035438       -28.1757
   5   2.0000      -0.807605       -21.9761
   6   2.0000      -0.661341       -17.9960
   7   2.0000      -0.538249       -14.6465
   8   2.0000      -0.505295       -13.7498
   9   2.0000      -0.450489       -12.2584
  10   2.0000      -0.438426       -11.9302
  11   2.0000      -0.384585       -10.4651
  12   2.0000      -0.359016        -9.7693
  13   2.0000      -0.297366        -8.0917
  14   2.0000      -0.256110        -6.9691
  15   0.0000      -0.054957        -1.4955
  16   0.0000       0.014309         0.3894
  17   0.0000       0.066129         1.7995
  18   0.0000       0.090808         2.4710
  19   0.0000       0.101099         2.7510

MULLIKEN ATOMIC CHARGES
-----------------------
   0 C :    0.179674
   1 O :   -0.207566
   2 C :   -0.120286
   3 C :    0.058606
   4 H :   -0.000447
   5 H :    0.029673
   6 H :    0.038338
   7 H :    0.022009
Sum of atomic charges:   -0.0000000

LOEWDIN ATOMIC CHARGES
----------------------
   0 C :   -0.014198
   1 O :   -0.020715
   2 C :   -0.085511
   3 C :   -0.012229
   4 H :    0.003476
   5 H :    0.056206
   6 H :    0.041977
   7 H :    0.030994

  Mayer bond orders larger than 0.100000
B(  0-C ,  1-O ) :   2.1841 B(  0-C ,  2-C ) :   1.0107 B(  0-C ,  4-H ) :   0.9248
B(  2-C ,  3-C ) :   2.0483 B(  2-C ,  5-H ) :   0.9110 B(  3-C ,  6-H ) :   0.9385
B(  3-C ,  7-H ) :   0.9264

-----------------------------------------------------------------------------
         ABSORPTION SPECTRUM VIA TRANSITION ELECTRIC DIPOLE MOMENTS
-----------------------------------------------------------------------------
State   Energy    Wavelength  fosc         T2        TX        TY        TZ
        (cm-1)      (nm)                 (au**2)    (au)      (au)      (au)
-----------------------------------------------------------------------------
   1   29740.5    336.2   0.000182437   0.00202   0.03950  -0.01437  -0.01590

FINAL SINGLE POINT ENERGY      -191.649081983525

DIPOLE MOMENT
-------------
                                X             Y             Z
Electronic contribution:     -2.25068      -1.64690      -0.64459
Nuclear contribution   :      2.66014       2.47466       0.98240
                        -----------------------------------------
Total Dipole Moment    :      0.40946       0.82776       0.33781
                        -----------------------------------------
Magnitude (a.u.)       :      0.98335
Magnitude (Debye)      :      2.49947

Rotational constants in cm-1:     0.843953     0.193537     0.165254
Rotational constants in MHz : 25301.084755  5802.091468  4954.192611

                             ****ORCA TERMINATED NORMALLY****
TOTAL RUN TIME: 0 days 0 hours 3 minutes 22 seconds 804 msec
