                         Program Version 5.0.3 -  RELEASE  -
|  1> ! HF-3c
|  2> !TightSCF
|  3> %scf
|  4>  ConvForced true
|  5>  convergence tight
|  6>  MaxIter 500
|  7> end
|  8>
|  9> %tddft
| 10>  nroots 1
| 11> end
| 12>
| 13> # 	30160
| 14> * xyz 0 1
| 15> 		C   -0.586566  -0.400196   0.044896
| 16> 		O   -0.558183  -1.630704  -0.009411
| 17> 		C    0.644356   0.394418  -0.006762
| 18> 		C    1.821443  -0.132469  -0.038484
| 19> 		H   -1.659933   0.160941  -0.190870
| 20> 		H    0.418300   1.383140   0.022421
| 21> 		H    1.872961  -1.226301   0.134993
| 22> 		H    2.771024   0.472639   0.199189
| 23> *
| 24>
| 25>                          ****END OF INPUT****

CARTESIAN COORDINATES (ANGSTROEM)
---------------------------------
  C     -0.586566   -0.400196    0.044896
  O     -0.558183   -1.630704   -0.009411
  C      0.644356    0.394418   -0.006762
  C      1.821443   -0.132469   -0.038484
  H     -1.659933    0.160941   -0.190870
  H      0.418300    1.383140    0.022421
  H      1.872961   -1.226301    0.134993
  H      2.771024    0.472639    0.199189

 Total Charge           Charge          ....    0
 Multiplicity           Mult            ....    1
 Number of Electrons    NEL             ....   30
 Basis Dimension        Dim             ....   24

ORBITAL ENERGIES
----------------

  NO   OCC          E(Eh)            E(eV)
   0   2.0000     -20.350453      -553.7640
   1   2.0000     -11.282062      -307.0005
   2   2.0000     -11.194030      -304.6050
   3   2.0000     -11.191801      -304.5444
   4   2.0000      -1.382101       -37.6089
   5   2.0000      -1.093471       -29.7549
   6   2.0000      -0.885129       -24.0856
   7   2.0000      -0.733990       -19.9729
   8   2.0000      -0.694936       -18.9102
   9   2.0000      -0.618677       -16.8351
  10   2.0000      -0.580288       -15.7904
  11   2.0000      -0.531663       -14.4673
  12   2.0000      -0.518503       -14.1092
  13   2.0000      -0.408365       -11.1122
  14   2.0000      -0.397485       -10.8161
  15   0.0000       0.130294         3.5455
  16   0.0000       0.309940         8.4339
  17   0.0000       0.480764        13.0823
  18   0.0000       0.604893        16.4600
  19   0.0000       0.629644        17.1335

MULLIKEN ATOMIC CHARGES
-----------------------
   0 C :    0.171616
   1 O :   -0.357068
   2 C :   -0.200829
   3 C :   -0.209201
   4 H :    0.136840
   5 H :    0.140834
   6 H :    0.163465
   7 H :    0.154343
Sum of atomic charges:    0.0000000

LOEWDIN ATOMIC CHARGES
----------------------
   0 C :    0.144355
   1 O :   -0.268237
   2 C :   -0.145794
   3 C :   -0.115899
   4 H :    0.084893
   5 H :    0.083358
   6 H :    0.109911
   7 H :    0.107414

  Mayer bond orders larger than 0.100000
B(  0-C ,  1-O ) :   1.9012 B(  0-C ,  2-C ) :   1.0260 B(  0-C ,  4-H ) :   0.9162
B(  2-C ,  3-C ) :   1.9508 B(  2-C ,  5-H ) :   0.9585 B(  3-C ,  6-H ) :   0.9518
B(  3-C ,  7-H ) :   0.9577

-----------------------------------------------------------------------------
         ABSORPTION SPECTRUM VIA TRANSITION ELECTRIC DIPOLE MOMENTS
-----------------------------------------------------------------------------
State   Energy    Wavelength  fosc         T2        TX        TY        TZ
        (cm-1)      (nm)                 (au**2)    (au)      (au)      (au)
-----------------------------------------------------------------------------
   1   30611.4    326.7   0.000254536   0.00274   0.04499  -0.00564   0.02610

Dispersion correction           -0.026059938
FINAL SINGLE POINT ENERGY      -189.324626044354

DIPOLE MOMENT
-------------
                                X             Y             Z
Electronic contribution:     -1.75769      -1.61652      -0.07239
Nuclear contribution   :      2.03660       2.52870       0.15452
                        -----------------------------------------
Total Dipole Moment    :      0.27891       0.91218       0.08213
                        -----------------------------------------
Magnitude (a.u.)       :      0.95740
Magnitude (Debye)      :      2.43352

Rotational constants in cm-1:     0.762461     0.214914     0.168124
Rotational constants in MHz : 22858.003191  6442.965550  5040.217577

                             ****ORCA TERMINATED NORMALLY****
TOTAL RUN TIME: 0 days 0 hours 0 minutes 10 seconds 434 msec
