                         Program Version 5.0.3 -  RELEASE  -
|  1> ! HF-3c
|  2> !TightSCF
|  3> %scf
|  4>  ConvForced true
|  5>  convergence tight
|  6>  MaxIter 500
|  7> end
|  8>
|  9> %tddft
| 10>  nroots 1
| 11> end
| 12>
| 13> # 	7270
| 14> * xyz 0 1
| 15> 		C   -1.116992  -0.387269   0.018538
| 16> 		O   -1.492985  -1.238113   0.850218
| 17> 		C    0.068738   0.420880   0.186174
| 18> 		C    1.233238   0.011246  -0.183219
| 19> 		H   -1.834254  -0.163503  -0.846797
| 20> 		H    0.012557   1.543269   0.588816
| 21> 		H    1.248013  -0.909352  -0.432304
| 22> 		H    1.903303   0.650881  -0.162319
| 23> *
| 24>
| 25>                          ****END OF INPUT****

CARTESIAN COORDINATES (ANGSTROEM)
---------------------------------
  C     -1.116992   -0.387269    0.018538
  O     -1.492985   -1.238113    0.850218
  C      0.068738    0.420880    0.186174
  C      1.233238    0.011246   -0.183219
  H     -1.834254   -0.163503   -0.846797
  H      0.012557    1.543269    0.588816
  H      1.248013   -0.909352   -0.432304
  H      1.903303    0.650881   -0.162319

 Total Charge           Charge          ....    0
 Multiplicity           Mult            ....    1
 Number of Electrons    NEL             ....   30
 Basis Dimension        Dim             ....   24

ORBITAL ENERGIES
----------------

  NO   OCC          E(Eh)            E(eV)
   0   2.0000     -20.368168      -554.2460
   1   2.0000     -11.295641      -307.3700
   2   2.0000     -11.208846      -305.0082
   3   2.0000     -11.191877      -304.5464
   4   2.0000      -1.383700       -37.6524
   5   2.0000      -1.122594       -30.5473
   6   2.0000      -0.911379       -24.7999
   7   2.0000      -0.760084       -20.6829
   8   2.0000      -0.727767       -19.8035
   9   2.0000      -0.647904       -17.6304
  10   2.0000      -0.605140       -16.4667
  11   2.0000      -0.567344       -15.4382
  12   2.0000      -0.484318       -13.1790
  13   2.0000      -0.425574       -11.5805
  14   2.0000      -0.421754       -11.4765
  15   0.0000       0.169450         4.6110
  16   0.0000       0.212437         5.7807
  17   0.0000       0.556080        15.1317
  18   0.0000       0.586564        15.9612
  19   0.0000       0.712258        19.3815

MULLIKEN ATOMIC CHARGES
-----------------------
   0 C :    0.152104
   1 O :   -0.331013
   2 C :   -0.122708
   3 C :   -0.314147
   4 H :    0.148162
   5 H :    0.162155
   6 H :    0.153782
   7 H :    0.151665
Sum of atomic charges:    0.0000000

LOEWDIN ATOMIC CHARGES
----------------------
   0 C :    0.139993
   1 O :   -0.247963
   2 C :   -0.078778
   3 C :   -0.198066
   4 H :    0.088098
   5 H :    0.115341
   6 H :    0.092537
   7 H :    0.088840

  Mayer bond orders larger than 0.100000
B(  0-C ,  1-O ) :   1.9349 B(  0-C ,  2-C ) :   1.0159 B(  0-C ,  4-H ) :   0.9179
B(  2-C ,  3-C ) :   1.9866 B(  2-C ,  5-H ) :   0.9382 B(  3-C ,  6-H ) :   0.9635
B(  3-C ,  7-H ) :   0.9646

-----------------------------------------------------------------------------
         ABSORPTION SPECTRUM VIA TRANSITION ELECTRIC DIPOLE MOMENTS
-----------------------------------------------------------------------------
State   Energy    Wavelength  fosc         T2        TX        TY        TZ
        (cm-1)      (nm)                 (au**2)    (au)      (au)      (au)
-----------------------------------------------------------------------------
   1   31768.0    314.8   0.000199953   0.00207   0.04110   0.01565   0.01174

Dispersion correction           -0.025939393
FINAL SINGLE POINT ENERGY      -189.273128031003

DIPOLE MOMENT
-------------
                                X             Y             Z
Electronic contribution:     -2.36303      -1.45499       1.07697
Nuclear contribution   :      2.59112       2.25264      -1.66101
                        -----------------------------------------
Total Dipole Moment    :      0.22809       0.79764      -0.58404
                        -----------------------------------------
Magnitude (a.u.)       :      1.01457
Magnitude (Debye)      :      2.57884

Rotational constants in cm-1:     0.984522     0.177272     0.165128
Rotational constants in MHz : 29515.229572  5314.476230  4950.423297

                             ****ORCA TERMINATED NORMALLY****
TOTAL RUN TIME: 0 days 0 hours 0 minutes 16 seconds 125 msec
