                         Program Version 5.0.3 -  RELEASE  -
|  1> ! HF-3c
|  2> !TightSCF
|  3> %scf
|  4>  ConvForced true
|  5>  convergence tight
|  6>  MaxIter 500
|  7> end
|  8>
|  9> %tddft
| 10>  nroots 1
| 11> end
| 12>
| 13> # 	26665
| 14> * xyz 0 1
| 15> 		C   -0.570441  -0.411065   0.049148
| 16> 		O   -0.625171  -1.646024  -0.040305
| 17> 		C    0.664631   0.361967  -0.060446
| 18> 		C    1.832656  -0.087378   0.018719
| 19> 		H   -1.433753   0.090498   0.357986
| 20> 		H    0.532840   1.340162  -0.122257
| 21> 		H    2.195227  -1.071200   0.298263
| 22> 		H    2.646632   0.657912   0.001757
| 23> *
| 24>
| 25>                          ****END OF INPUT****

CARTESIAN COORDINATES (ANGSTROEM)
---------------------------------
  C     -0.570441   -0.411065    0.049148
  O     -0.625171   -1.646024   -0.040305
  C      0.664631    0.361967   -0.060446
  C      1.832656   -0.087378    0.018719
  H     -1.433753    0.090498    0.357986
  H      0.532840    1.340162   -0.122257
  H      2.195227   -1.071200    0.298263
  H      2.646632    0.657912    0.001757

 Total Charge           Charge          ....    0
 Multiplicity           Mult            ....    1
 Number of Electrons    NEL             ....   30
 Basis Dimension        Dim             ....   24

ORBITAL ENERGIES
----------------

  NO   OCC          E(Eh)            E(eV)
   0   2.0000     -20.362014      -554.0786
   1   2.0000     -11.292089      -307.2734
   2   2.0000     -11.203903      -304.8737
   3   2.0000     -11.203170      -304.8538
   4   2.0000      -1.383862       -37.6568
   5   2.0000      -1.116107       -30.3708
   6   2.0000      -0.911497       -24.8031
   7   2.0000      -0.770525       -20.9670
   8   2.0000      -0.723401       -19.6847
   9   2.0000      -0.639754       -17.4086
  10   2.0000      -0.597343       -16.2545
  11   2.0000      -0.534766       -14.5517
  12   2.0000      -0.534316       -14.5395
  13   2.0000      -0.422511       -11.4971
  14   2.0000      -0.416659       -11.3379
  15   0.0000       0.132239         3.5984
  16   0.0000       0.311704         8.4819
  17   0.0000       0.548679        14.9303
  18   0.0000       0.671365        18.2688
  19   0.0000       0.696198        18.9445

MULLIKEN ATOMIC CHARGES
-----------------------
   0 C :    0.151610
   1 O :   -0.336270
   2 C :   -0.204985
   3 C :   -0.209379
   4 H :    0.141477
   5 H :    0.148730
   6 H :    0.161572
   7 H :    0.147243
Sum of atomic charges:   -0.0000000

LOEWDIN ATOMIC CHARGES
----------------------
   0 C :    0.144246
   1 O :   -0.250868
   2 C :   -0.145807
   3 C :   -0.111186
   4 H :    0.073329
   5 H :    0.087569
   6 H :    0.105838
   7 H :    0.096880

  Mayer bond orders larger than 0.100000
B(  0-C ,  1-O ) :   1.9080 B(  0-C ,  2-C ) :   1.0249 B(  0-C ,  4-H ) :   0.9367
B(  2-C ,  3-C ) :   1.9611 B(  2-C ,  5-H ) :   0.9542 B(  3-C ,  6-H ) :   0.9581
B(  3-C ,  7-H ) :   0.9583

-----------------------------------------------------------------------------
         ABSORPTION SPECTRUM VIA TRANSITION ELECTRIC DIPOLE MOMENTS
-----------------------------------------------------------------------------
State   Energy    Wavelength  fosc         T2        TX        TY        TZ
        (cm-1)      (nm)                 (au**2)    (au)      (au)      (au)
-----------------------------------------------------------------------------
   1   30390.0    329.1   0.000011210   0.00012  -0.00801   0.00072   0.00753

Dispersion correction           -0.026014002
FINAL SINGLE POINT ENERGY      -189.332052193886

DIPOLE MOMENT
-------------
                                X             Y             Z
Electronic contribution:     -2.14073      -1.82334      -0.33339
Nuclear contribution   :      2.53802       2.74106       0.50308
                        -----------------------------------------
Total Dipole Moment    :      0.39729       0.91772       0.16970
                        -----------------------------------------
Magnitude (a.u.)       :      1.01432
Magnitude (Debye)      :      2.57820

Rotational constants in cm-1:     0.844879     0.202904     0.164688
Rotational constants in MHz : 25328.847958  6082.895452  4937.222562

                             ****ORCA TERMINATED NORMALLY****
TOTAL RUN TIME: 0 days 0 hours 0 minutes 11 seconds 268 msec
