                         Program Version 5.0.3 -  RELEASE  -
|  1> ! HF-3c
|  2> !TightSCF
|  3> %scf
|  4>  ConvForced true
|  5>  convergence tight
|  6>  MaxIter 500
|  7> end
|  8>
|  9> %tddft
| 10>  nroots 1
| 11> end
| 12>
| 13> # 	15315
| 14> * xyz 0 1
| 15> 		C   -1.221676  -0.341838   0.095381
| 16> 		O   -1.920315  -0.691138   0.977599
| 17> 		C    0.072096   0.394461   0.326188
| 18> 		C    1.178047   0.102603  -0.339825
| 19> 		H   -1.419624  -0.601705  -1.036194
| 20> 		H    0.121484   1.351694   1.193869
| 21> 		H    1.101302  -0.767919  -1.132538
| 22> 		H    2.122192   0.576537  -0.117251
| 23> *
| 24>
| 25>                          ****END OF INPUT****

CARTESIAN COORDINATES (ANGSTROEM)
---------------------------------
  C     -1.221676   -0.341838    0.095381
  O     -1.920315   -0.691138    0.977599
  C      0.072096    0.394461    0.326188
  C      1.178047    0.102603   -0.339825
  H     -1.419624   -0.601705   -1.036194
  H      0.121484    1.351694    1.193869
  H      1.101302   -0.767919   -1.132538
  H      2.122192    0.576537   -0.117251

 Total Charge           Charge          ....    0
 Multiplicity           Mult            ....    1
 Number of Electrons    NEL             ....   30
 Basis Dimension        Dim             ....   24

ORBITAL ENERGIES
----------------

  NO   OCC          E(Eh)            E(eV)
   0   2.0000     -20.381377      -554.6055
   1   2.0000     -11.306327      -307.6608
   2   2.0000     -11.179347      -304.2055
   3   2.0000     -11.174281      -304.0676
   4   2.0000      -1.428614       -38.8745
   5   2.0000      -1.066092       -29.0098
   6   2.0000      -0.859648       -23.3922
   7   2.0000      -0.740227       -20.1426
   8   2.0000      -0.650874       -17.7112
   9   2.0000      -0.639921       -17.4131
  10   2.0000      -0.588516       -16.0143
  11   2.0000      -0.544504       -14.8167
  12   2.0000      -0.494077       -13.4445
  13   2.0000      -0.403010       -10.9665
  14   2.0000      -0.392700       -10.6859
  15   0.0000       0.161828         4.4036
  16   0.0000       0.283579         7.7166
  17   0.0000       0.459723        12.5097
  18   0.0000       0.526854        14.3364
  19   0.0000       0.598181        16.2773

MULLIKEN ATOMIC CHARGES
-----------------------
   0 C :    0.184883
   1 O :   -0.356404
   2 C :   -0.146474
   3 C :   -0.246491
   4 H :    0.134002
   5 H :    0.152291
   6 H :    0.135815
   7 H :    0.142378
Sum of atomic charges:   -0.0000000

LOEWDIN ATOMIC CHARGES
----------------------
   0 C :    0.151428
   1 O :   -0.248359
   2 C :   -0.120357
   3 C :   -0.159669
   4 H :    0.075704
   5 H :    0.114462
   6 H :    0.094543
   7 H :    0.092248

  Mayer bond orders larger than 0.100000
B(  0-C ,  1-O ) :   1.9365 B(  0-C ,  2-C ) :   0.9921 B(  0-C ,  4-H ) :   0.9060
B(  2-C ,  3-C ) :   1.9822 B(  2-C ,  5-H ) :   0.9413 B(  3-C ,  6-H ) :   0.9586
B(  3-C ,  7-H ) :   0.9634

-----------------------------------------------------------------------------
         ABSORPTION SPECTRUM VIA TRANSITION ELECTRIC DIPOLE MOMENTS
-----------------------------------------------------------------------------
State   Energy    Wavelength  fosc         T2        TX        TY        TZ
        (cm-1)      (nm)                 (au**2)    (au)      (au)      (au)
-----------------------------------------------------------------------------
   1   35864.2    278.8   0.000010206   0.00009  -0.00209  -0.00793   0.00513

Dispersion correction           -0.024904885
FINAL SINGLE POINT ENERGY      -189.292156321488

DIPOLE MOMENT
-------------
                                X             Y             Z
Electronic contribution:     -2.98506      -0.76685       1.38990
Nuclear contribution   :      3.68912       1.09379      -2.05319
                        -----------------------------------------
Total Dipole Moment    :      0.70406       0.32694      -0.66329
                        -----------------------------------------
Magnitude (a.u.)       :      1.02105
Magnitude (Debye)      :      2.59530

Rotational constants in cm-1:     1.239441     0.157940     0.147072
Rotational constants in MHz : 37157.502011  4734.921700  4409.099660

                             ****ORCA TERMINATED NORMALLY****
TOTAL RUN TIME: 0 days 0 hours 0 minutes 13 seconds 317 msec
