                         Program Version 5.0.3 -  RELEASE  -
|  1> ! B3LYP cc-pVDZ
|  2> !TightSCF
|  3> %scf
|  4>  ConvForced true
|  5>  convergence tight
|  6>  MaxIter 500
|  7> end
|  8>
|  9> %tddft
| 10>  nroots 1
| 11> end
| 12>
| 13> # 	3167
| 14> * xyz 0 1
| 15> 		C   -1.249124  -0.262354  -0.041402
| 16> 		O   -1.519189  -1.162065  -0.757254
| 17> 		C   -0.005905   0.498307  -0.262206
| 18> 		C    1.183642   0.043028   0.092189
| 19> 		H   -1.839280  -0.215640   1.014964
| 20> 		H    0.050553   1.432061  -0.798550
| 21> 		H    1.227966  -0.965842   0.699367
| 22> 		H    2.111579   0.619705   0.046680
| 23> *
| 24>
| 25>                          ****END OF INPUT****

CARTESIAN COORDINATES (ANGSTROEM)
---------------------------------
  C     -1.249124   -0.262354   -0.041402
  O     -1.519189   -1.162065   -0.757254
  C     -0.005905    0.498307   -0.262206
  C      1.183642    0.043028    0.092189
  H     -1.839280   -0.215640    1.014964
  H      0.050553    1.432061   -0.798550
  H      1.227966   -0.965842    0.699367
  H      2.111579    0.619705    0.046680

 Total Charge           Charge          ....    0
 Multiplicity           Mult            ....    1
 Number of Electrons    NEL             ....   30
 Basis Dimension        Dim             ....   76

ORBITAL ENERGIES
----------------

  NO   OCC          E(Eh)            E(eV)
   0   2.0000     -19.147503      -521.0301
   1   2.0000     -10.288292      -279.9587
   2   2.0000     -10.208831      -277.7964
   3   2.0000     -10.203514      -277.6517
   4   2.0000      -1.073260       -29.2049
   5   2.0000      -0.796765       -21.6811
   6   2.0000      -0.639539       -17.4027
   7   2.0000      -0.548698       -14.9308
   8   2.0000      -0.498230       -13.5575
   9   2.0000      -0.462741       -12.5918
  10   2.0000      -0.444381       -12.0922
  11   2.0000      -0.392301       -10.6751
  12   2.0000      -0.369172       -10.0457
  13   2.0000      -0.289556        -7.8792
  14   2.0000      -0.255396        -6.9497
  15   0.0000      -0.032133        -0.8744
  16   0.0000      -0.009602        -0.2613
  17   0.0000       0.077825         2.1177
  18   0.0000       0.087467         2.3801
  19   0.0000       0.090844         2.4720

MULLIKEN ATOMIC CHARGES
-----------------------
   0 C :    0.125708
   1 O :   -0.144571
   2 C :   -0.040373
   3 C :   -0.012918
   4 H :   -0.002780
   5 H :    0.008486
   6 H :    0.032716
   7 H :    0.033734
Sum of atomic charges:   -0.0000000

LOEWDIN ATOMIC CHARGES
----------------------
   0 C :   -0.047814
   1 O :    0.042604
   2 C :   -0.066466
   3 C :   -0.032511
   4 H :    0.001121
   5 H :    0.034034
   6 H :    0.037773
   7 H :    0.031259

  Mayer bond orders larger than 0.100000
B(  0-C ,  1-O ) :   2.2532 B(  0-C ,  2-C ) :   0.9494 B(  0-C ,  4-H ) :   0.8987
B(  2-C ,  3-C ) :   2.0469 B(  2-C ,  5-H ) :   0.9334 B(  3-C ,  6-H ) :   0.9438
B(  3-C ,  7-H ) :   0.9417

-----------------------------------------------------------------------------
         ABSORPTION SPECTRUM VIA TRANSITION ELECTRIC DIPOLE MOMENTS
-----------------------------------------------------------------------------
State   Energy    Wavelength  fosc         T2        TX        TY        TZ
        (cm-1)      (nm)                 (au**2)    (au)      (au)      (au)
-----------------------------------------------------------------------------
   1   33726.5    296.5   0.000888758   0.00868  -0.04650  -0.01484   0.07933

FINAL SINGLE POINT ENERGY      -191.626586012091

DIPOLE MOMENT
-------------
                                X             Y             Z
Electronic contribution:     -2.61674      -1.10243      -1.40115
Nuclear contribution   :      3.01837       1.76454       1.81136
                        -----------------------------------------
Total Dipole Moment    :      0.40164       0.66211       0.41020
                        -----------------------------------------
Magnitude (a.u.)       :      0.87634
Magnitude (Debye)      :      2.22747

Rotational constants in cm-1:     0.907147     0.180454     0.168097
Rotational constants in MHz : 27195.575240  5409.869795  5039.425311

                             ****ORCA TERMINATED NORMALLY****
TOTAL RUN TIME: 0 days 0 hours 3 minutes 24 seconds 761 msec
