                         Program Version 5.0.3 -  RELEASE  -
|  1> ! B3LYP cc-pVDZ
|  2> !TightSCF
|  3> %scf
|  4>  ConvForced true
|  5>  convergence tight
|  6>  MaxIter 500
|  7> end
|  8>
|  9> %tddft
| 10>  nroots 1
| 11> end
| 12>
| 13> # 	32003
| 14> * xyz 0 1
| 15> 		C   -0.629521  -0.450433  -0.018496
| 16> 		O   -0.572253  -1.648400   0.002836
| 17> 		C    0.671737   0.406494  -0.000075
| 18> 		C    1.861432  -0.109688   0.061886
| 19> 		H   -1.671379   0.408010   0.015631
| 20> 		H    0.454003   1.377214  -0.003151
| 21> 		H    1.881610  -1.056662  -0.226038
| 22> 		H    2.663807   0.541084  -0.364165
| 23> *
| 24>
| 25>                          ****END OF INPUT****

CARTESIAN COORDINATES (ANGSTROEM)
---------------------------------
  C     -0.629521   -0.450433   -0.018496
  O     -0.572253   -1.648400    0.002836
  C      0.671737    0.406494   -0.000075
  C      1.861432   -0.109688    0.061886
  H     -1.671379    0.408010    0.015631
  H      0.454003    1.377214   -0.003151
  H      1.881610   -1.056662   -0.226038
  H      2.663807    0.541084   -0.364165

 Total Charge           Charge          ....    0
 Multiplicity           Mult            ....    1
 Number of Electrons    NEL             ....   30
 Basis Dimension        Dim             ....   76

ORBITAL ENERGIES
----------------

  NO   OCC          E(Eh)            E(eV)
   0   2.0000     -19.161958      -521.4234
   1   2.0000     -10.301944      -280.3301
   2   2.0000     -10.199569      -277.5444
   3   2.0000     -10.193710      -277.3849
   4   2.0000      -1.068342       -29.0711
   5   2.0000      -0.806209       -21.9381
   6   2.0000      -0.649679       -17.6787
   7   2.0000      -0.544576       -14.8187
   8   2.0000      -0.493694       -13.4341
   9   2.0000      -0.460039       -12.5183
  10   2.0000      -0.423667       -11.5286
  11   2.0000      -0.409604       -11.1459
  12   2.0000      -0.386353       -10.5132
  13   2.0000      -0.299327        -8.1451
  14   2.0000      -0.261634        -7.1194
  15   0.0000      -0.074401        -2.0246
  16   0.0000       0.037964         1.0330
  17   0.0000       0.045698         1.2435
  18   0.0000       0.087826         2.3899
  19   0.0000       0.130873         3.5612

MULLIKEN ATOMIC CHARGES
-----------------------
   0 C :    0.103389
   1 O :   -0.151054
   2 C :   -0.038248
   3 C :    0.100925
   4 H :   -0.008111
   5 H :   -0.053357
   6 H :    0.003698
   7 H :    0.042758
Sum of atomic charges:   -0.0000000

LOEWDIN ATOMIC CHARGES
----------------------
   0 C :   -0.036468
   1 O :    0.027114
   2 C :   -0.041999
   3 C :    0.002824
   4 H :   -0.004560
   5 H :   -0.003077
   6 H :    0.006153
   7 H :    0.050014

  Mayer bond orders larger than 0.100000
B(  0-C ,  1-O ) :   2.2204 B(  0-C ,  2-C ) :   1.0004 B(  0-C ,  4-H ) :   0.8435
B(  2-C ,  3-C ) :   1.9882 B(  2-C ,  5-H ) :   0.9538 B(  3-C ,  6-H ) :   0.9277
B(  3-C ,  7-H ) :   0.9374

-----------------------------------------------------------------------------
         ABSORPTION SPECTRUM VIA TRANSITION ELECTRIC DIPOLE MOMENTS
-----------------------------------------------------------------------------
State   Energy    Wavelength  fosc         T2        TX        TY        TZ
        (cm-1)      (nm)                 (au**2)    (au)      (au)      (au)
-----------------------------------------------------------------------------
   1   28728.0    348.1   0.000309433   0.00355   0.01578   0.00114   0.05741

FINAL SINGLE POINT ENERGY      -191.617820006410

DIPOLE MOMENT
-------------
                                X             Y             Z
Electronic contribution:     -1.67246      -2.19131       0.37463
Nuclear contribution   :      1.96713       2.97701      -0.54084
                        -----------------------------------------
Total Dipole Moment    :      0.29467       0.78571      -0.16621
                        -----------------------------------------
Magnitude (a.u.)       :      0.85545
Magnitude (Debye)      :      2.17438

Rotational constants in cm-1:     0.758752     0.204492     0.161807
Rotational constants in MHz : 22746.806138  6130.505848  4850.863404

                             ****ORCA TERMINATED NORMALLY****
TOTAL RUN TIME: 0 days 0 hours 3 minutes 22 seconds 719 msec
