                         Program Version 5.0.3 -  RELEASE  -
|  1> ! B3LYP cc-pVDZ
|  2> !TightSCF
|  3> %scf
|  4>  ConvForced true
|  5>  convergence tight
|  6>  MaxIter 500
|  7> end
|  8>
|  9> %tddft
| 10>  nroots 1
| 11> end
| 12>
| 13> # 	19765
| 14> * xyz 0 1
| 15> 		C   -1.212474  -0.366425   0.063006
| 16> 		O   -1.343464  -1.544879   0.273753
| 17> 		C    0.018963   0.463860   0.148399
| 18> 		C    1.230849  -0.022992  -0.017530
| 19> 		H   -2.073024   0.167032  -0.383961
| 20> 		H   -0.202585   1.607434   0.275238
| 21> 		H    1.468218  -0.968695  -0.058886
| 22> 		H    2.133376   0.636438  -0.219204
| 23> *
| 24>
| 25>                          ****END OF INPUT****

CARTESIAN COORDINATES (ANGSTROEM)
---------------------------------
  C     -1.212474   -0.366425    0.063006
  O     -1.343464   -1.544879    0.273753
  C      0.018963    0.463860    0.148399
  C      1.230849   -0.022992   -0.017530
  H     -2.073024    0.167032   -0.383961
  H     -0.202585    1.607434    0.275238
  H      1.468218   -0.968695   -0.058886
  H      2.133376    0.636438   -0.219204

 Total Charge           Charge          ....    0
 Multiplicity           Mult            ....    1
 Number of Electrons    NEL             ....   30
 Basis Dimension        Dim             ....   76

ORBITAL ENERGIES
----------------

  NO   OCC          E(Eh)            E(eV)
   0   2.0000     -19.138535      -520.7860
   1   2.0000     -10.275033      -279.5979
   2   2.0000     -10.214082      -277.9393
   3   2.0000     -10.206823      -277.7418
   4   2.0000      -1.049170       -28.5494
   5   2.0000      -0.800413       -21.7803
   6   2.0000      -0.662819       -18.0362
   7   2.0000      -0.551905       -15.0181
   8   2.0000      -0.500670       -13.6239
   9   2.0000      -0.456344       -12.4178
  10   2.0000      -0.431730       -11.7480
  11   2.0000      -0.396789       -10.7972
  12   2.0000      -0.378157       -10.2902
  13   2.0000      -0.292547        -7.9606
  14   2.0000      -0.253382        -6.8949
  15   0.0000      -0.062739        -1.7072
  16   0.0000       0.036932         1.0050
  17   0.0000       0.067132         1.8267
  18   0.0000       0.097818         2.6618
  19   0.0000       0.118889         3.2351

MULLIKEN ATOMIC CHARGES
-----------------------
   0 C :    0.182476
   1 O :   -0.183534
   2 C :   -0.152827
   3 C :    0.130270
   4 H :   -0.022004
   5 H :    0.020826
   6 H :   -0.015305
   7 H :    0.040098
Sum of atomic charges:   -0.0000000

LOEWDIN ATOMIC CHARGES
----------------------
   0 C :   -0.040006
   1 O :    0.002285
   2 C :   -0.077893
   3 C :    0.032274
   4 H :   -0.006612
   5 H :    0.045839
   6 H :   -0.002199
   7 H :    0.046312

  Mayer bond orders larger than 0.100000
B(  0-C ,  1-O ) :   2.2190 B(  0-C ,  2-C ) :   1.0326 B(  0-C ,  4-H ) :   0.9111
B(  2-C ,  3-C ) :   1.9826 B(  2-C ,  5-H ) :   0.9316 B(  3-C ,  6-H ) :   0.9403
B(  3-C ,  7-H ) :   0.9473

-----------------------------------------------------------------------------
         ABSORPTION SPECTRUM VIA TRANSITION ELECTRIC DIPOLE MOMENTS
-----------------------------------------------------------------------------
State   Energy    Wavelength  fosc         T2        TX        TY        TZ
        (cm-1)      (nm)                 (au**2)    (au)      (au)      (au)
-----------------------------------------------------------------------------
   1   28873.4    346.3   0.000175655   0.00200  -0.03688  -0.01281   0.02188

FINAL SINGLE POINT ENERGY      -191.656167489667

DIPOLE MOMENT
-------------
                                X             Y             Z
Electronic contribution:     -2.06309      -1.98968       0.58719
Nuclear contribution   :      2.54858       2.83337      -0.78345
                        -----------------------------------------
Total Dipole Moment    :      0.48549       0.84369      -0.19626
                        -----------------------------------------
Magnitude (a.u.)       :      0.99299
Magnitude (Debye)      :      2.52399

Rotational constants in cm-1:     0.831284     0.191832     0.157870
Rotational constants in MHz : 24921.278850  5750.993247  4732.812069

                             ****ORCA TERMINATED NORMALLY****
TOTAL RUN TIME: 0 days 0 hours 3 minutes 21 seconds 522 msec
