                         Program Version 5.0.3 -  RELEASE  -
|  1> ! B3LYP cc-pVDZ
|  2> !TightSCF
|  3> %scf
|  4>  ConvForced true
|  5>  convergence tight
|  6>  MaxIter 500
|  7> end
|  8>
|  9> %tddft
| 10>  nroots 1
| 11> end
| 12>
| 13> # 	31140
| 14> * xyz 0 1
| 15> 		C   -0.645199  -0.448607  -0.075596
| 16> 		O   -0.523079  -1.591426   0.030048
| 17> 		C    0.593038   0.443970   0.035094
| 18> 		C    1.872046  -0.169598   0.024500
| 19> 		H   -1.563612   0.044995   0.051838
| 20> 		H    0.362231   1.544229   0.079747
| 21> 		H    1.890749  -1.461468  -0.210215
| 22> 		H    2.860813   0.462072  -0.212559
| 23> *
| 24>
| 25>                          ****END OF INPUT****

CARTESIAN COORDINATES (ANGSTROEM)
---------------------------------
  C     -0.645199   -0.448607   -0.075596
  O     -0.523079   -1.591426    0.030048
  C      0.593038    0.443970    0.035094
  C      1.872046   -0.169598    0.024500
  H     -1.563612    0.044995    0.051838
  H      0.362231    1.544229    0.079747
  H      1.890749   -1.461468   -0.210215
  H      2.860813    0.462072   -0.212559

 Total Charge           Charge          ....    0
 Multiplicity           Mult            ....    1
 Number of Electrons    NEL             ....   30
 Basis Dimension        Dim             ....   76

ORBITAL ENERGIES
----------------

  NO   OCC          E(Eh)            E(eV)
   0   2.0000     -19.138696      -520.7904
   1   2.0000     -10.268685      -279.4251
   2   2.0000     -10.239954      -278.6433
   3   2.0000     -10.212770      -277.9036
   4   2.0000      -1.081485       -29.4287
   5   2.0000      -0.760261       -20.6877
   6   2.0000      -0.640776       -17.4364
   7   2.0000      -0.538498       -14.6533
   8   2.0000      -0.491915       -13.3857
   9   2.0000      -0.444608       -12.0984
  10   2.0000      -0.418658       -11.3923
  11   2.0000      -0.412108       -11.2140
  12   2.0000      -0.357759        -9.7351
  13   2.0000      -0.273373        -7.4389
  14   2.0000      -0.253250        -6.8913
  15   0.0000      -0.069973        -1.9041
  16   0.0000       0.041142         1.1195
  17   0.0000       0.062149         1.6912
  18   0.0000       0.069167         1.8821
  19   0.0000       0.120329         3.2743

MULLIKEN ATOMIC CHARGES
-----------------------
   0 C :    0.205386
   1 O :   -0.142311
   2 C :   -0.121807
   3 C :   -0.075786
   4 H :   -0.034625
   5 H :    0.007852
   6 H :    0.090545
   7 H :    0.070746
Sum of atomic charges:   -0.0000000

LOEWDIN ATOMIC CHARGES
----------------------
   0 C :   -0.063808
   1 O :    0.058611
   2 C :   -0.089166
   3 C :   -0.036348
   4 H :   -0.015486
   5 H :    0.026269
   6 H :    0.070079
   7 H :    0.049849

  Mayer bond orders larger than 0.100000
B(  0-C ,  1-O ) :   2.2412 B(  0-C ,  2-C ) :   1.0229 B(  0-C ,  4-H ) :   0.9218
B(  2-C ,  3-C ) :   1.9151 B(  2-C ,  5-H ) :   0.9443 B(  3-C ,  6-H ) :   0.9143
B(  3-C ,  7-H ) :   0.9374

-----------------------------------------------------------------------------
         ABSORPTION SPECTRUM VIA TRANSITION ELECTRIC DIPOLE MOMENTS
-----------------------------------------------------------------------------
State   Energy    Wavelength  fosc         T2        TX        TY        TZ
        (cm-1)      (nm)                 (au**2)    (au)      (au)      (au)
-----------------------------------------------------------------------------
   1   28203.7    354.6   0.000101149   0.00118  -0.00927   0.02089  -0.02566

FINAL SINGLE POINT ENERGY      -191.627628356117

DIPOLE MOMENT
-------------
                                X             Y             Z
Electronic contribution:     -2.04660      -1.58614       0.13159
Nuclear contribution   :      2.17596       2.34150      -0.27241
                        -----------------------------------------
Total Dipole Moment    :      0.12936       0.75536      -0.14082
                        -----------------------------------------
Magnitude (a.u.)       :      0.77919
Magnitude (Debye)      :      1.98053

Rotational constants in cm-1:     0.694366     0.214641     0.164612
Rotational constants in MHz : 20816.554642  6434.781915  4934.932276

                             ****ORCA TERMINATED NORMALLY****
TOTAL RUN TIME: 0 days 0 hours 3 minutes 27 seconds 493 msec
