                         Program Version 5.0.3 -  RELEASE  -
|  1> ! B3LYP cc-pVDZ
|  2> !TightSCF
|  3> %scf
|  4>  ConvForced true
|  5>  convergence tight
|  6>  MaxIter 500
|  7> end
|  8>
|  9> %tddft
| 10>  nroots 1
| 11> end
| 12>
| 13> # 	4941
| 14> * xyz 0 1
| 15> 		C   -1.138724  -0.229488   0.052301
| 16> 		O   -1.202082  -1.517764   0.179550
| 17> 		C   -0.023823   0.617021   0.064387
| 18> 		C    1.263535   0.038671  -0.010010
| 19> 		H   -2.115468   0.331593  -0.418401
| 20> 		H   -0.230650   1.614748   0.259277
| 21> 		H    1.017247  -1.162970  -0.111101
| 22> 		H    2.426965   0.363232  -0.009506
| 23> *
| 24>
| 25>                          ****END OF INPUT****

CARTESIAN COORDINATES (ANGSTROEM)
---------------------------------
  C     -1.138724   -0.229488    0.052301
  O     -1.202082   -1.517764    0.179550
  C     -0.023823    0.617021    0.064387
  C      1.263535    0.038671   -0.010010
  H     -2.115468    0.331593   -0.418401
  H     -0.230650    1.614748    0.259277
  H      1.017247   -1.162970   -0.111101
  H      2.426965    0.363232   -0.009506

 Total Charge           Charge          ....    0
 Multiplicity           Mult            ....    1
 Number of Electrons    NEL             ....   30
 Basis Dimension        Dim             ....   76

ORBITAL ENERGIES
----------------

  NO   OCC          E(Eh)            E(eV)
   0   2.0000     -19.139931      -520.8240
   1   2.0000     -10.283666      -279.8328
   2   2.0000     -10.253534      -279.0129
   3   2.0000     -10.217622      -278.0356
   4   2.0000      -1.002264       -27.2730
   5   2.0000      -0.801482       -21.8094
   6   2.0000      -0.659106       -17.9352
   7   2.0000      -0.536781       -14.6066
   8   2.0000      -0.499636       -13.5958
   9   2.0000      -0.439822       -11.9682
  10   2.0000      -0.415742       -11.3129
  11   2.0000      -0.370685       -10.0868
  12   2.0000      -0.364193        -9.9102
  13   2.0000      -0.281769        -7.6673
  14   2.0000      -0.255687        -6.9576
  15   0.0000      -0.092947        -2.5292
  16   0.0000       0.030523         0.8306
  17   0.0000       0.055545         1.5115
  18   0.0000       0.073433         1.9982
  19   0.0000       0.110646         3.0108

MULLIKEN ATOMIC CHARGES
-----------------------
   0 C :    0.142516
   1 O :   -0.255463
   2 C :   -0.012207
   3 C :   -0.039445
   4 H :    0.008570
   5 H :   -0.015364
   6 H :    0.083848
   7 H :    0.087544
Sum of atomic charges:    0.0000000

LOEWDIN ATOMIC CHARGES
----------------------
   0 C :   -0.009447
   1 O :   -0.084305
   2 C :   -0.083392
   3 C :    0.020385
   4 H :    0.014969
   5 H :    0.018044
   6 H :    0.063044
   7 H :    0.060702

  Mayer bond orders larger than 0.100000
B(  0-C ,  1-O ) :   2.0484 B(  0-C ,  2-C ) :   1.1376 B(  0-C ,  4-H ) :   0.9037
B(  1-O ,  3-C ) :   0.1182 B(  2-C ,  3-C ) :   1.8296 B(  2-C ,  5-H ) :   0.9570
B(  3-C ,  6-H ) :   0.9090 B(  3-C ,  7-H ) :   0.9452

-----------------------------------------------------------------------------
         ABSORPTION SPECTRUM VIA TRANSITION ELECTRIC DIPOLE MOMENTS
-----------------------------------------------------------------------------
State   Energy    Wavelength  fosc         T2        TX        TY        TZ
        (cm-1)      (nm)                 (au**2)    (au)      (au)      (au)
-----------------------------------------------------------------------------
   1   23175.6    431.5   0.000205746   0.00292   0.02094   0.00632  -0.04944

FINAL SINGLE POINT ENERGY      -191.649148408446

DIPOLE MOMENT
-------------
                                X             Y             Z
Electronic contribution:     -1.50526      -1.26790       0.42538
Nuclear contribution   :      2.14893       2.26339      -0.51998
                        -----------------------------------------
Total Dipole Moment    :      0.64367       0.99549      -0.09459
                        -----------------------------------------
Magnitude (a.u.)       :      1.18922
Magnitude (Debye)      :      3.02276

Rotational constants in cm-1:     0.692209     0.206807     0.160536
Rotational constants in MHz : 20751.910276  6199.929398  4812.733802

                             ****ORCA TERMINATED NORMALLY****
TOTAL RUN TIME: 0 days 0 hours 3 minutes 27 seconds 946 msec
