                         Program Version 5.0.3 -  RELEASE  -
|  1> ! B3LYP cc-pVDZ
|  2> !TightSCF
|  3> %scf
|  4>  ConvForced true
|  5>  convergence tight
|  6>  MaxIter 500
|  7> end
|  8>
|  9> %tddft
| 10>  nroots 1
| 11> end
| 12>
| 13> # 	22937
| 14> * xyz 0 1
| 15> 		C   -0.602701  -0.425993  -0.025143
| 16> 		O   -0.569091  -1.613837   0.008228
| 17> 		C    0.620428   0.388723   0.025600
| 18> 		C    1.852968  -0.122633  -0.011817
| 19> 		H   -1.494370   0.061542   0.040999
| 20> 		H    0.459891   1.461050  -0.060190
| 21> 		H    1.918573  -1.324445  -0.013150
| 22> 		H    2.813319   0.568070   0.036334
| 23> *
| 24>
| 25>                          ****END OF INPUT****

CARTESIAN COORDINATES (ANGSTROEM)
---------------------------------
  C     -0.602701   -0.425993   -0.025143
  O     -0.569091   -1.613837    0.008228
  C      0.620428    0.388723    0.025600
  C      1.852968   -0.122633   -0.011817
  H     -1.494370    0.061542    0.040999
  H      0.459891    1.461050   -0.060190
  H      1.918573   -1.324445   -0.013150
  H      2.813319    0.568070    0.036334

 Total Charge           Charge          ....    0
 Multiplicity           Mult            ....    1
 Number of Electrons    NEL             ....   30
 Basis Dimension        Dim             ....   76

ORBITAL ENERGIES
----------------

  NO   OCC          E(Eh)            E(eV)
   0   2.0000     -19.133726      -520.6552
   1   2.0000     -10.262755      -279.2638
   2   2.0000     -10.226356      -278.2733
   3   2.0000     -10.197776      -277.4956
   4   2.0000      -1.057480       -28.7755
   5   2.0000      -0.788791       -21.4641
   6   2.0000      -0.657125       -17.8813
   7   2.0000      -0.542090       -14.7510
   8   2.0000      -0.505985       -13.7686
   9   2.0000      -0.442194       -12.0327
  10   2.0000      -0.424473       -11.5505
  11   2.0000      -0.404912       -11.0182
  12   2.0000      -0.366327        -9.9683
  13   2.0000      -0.285852        -7.7784
  14   2.0000      -0.255214        -6.9447
  15   0.0000      -0.066486        -1.8092
  16   0.0000       0.060758         1.6533
  17   0.0000       0.067845         1.8462
  18   0.0000       0.079844         2.1727
  19   0.0000       0.127541         3.4706

MULLIKEN ATOMIC CHARGES
-----------------------
   0 C :    0.231869
   1 O :   -0.181513
   2 C :   -0.102103
   3 C :   -0.011640
   4 H :   -0.047925
   5 H :   -0.015657
   6 H :    0.067461
   7 H :    0.059508
Sum of atomic charges:   -0.0000000

LOEWDIN ATOMIC CHARGES
----------------------
   0 C :   -0.039810
   1 O :    0.019239
   2 C :   -0.091965
   3 C :   -0.000418
   4 H :   -0.018113
   5 H :    0.024105
   6 H :    0.055530
   7 H :    0.051431

  Mayer bond orders larger than 0.100000
B(  0-C ,  1-O ) :   2.2058 B(  0-C ,  2-C ) :   1.0670 B(  0-C ,  4-H ) :   0.9305
B(  2-C ,  3-C ) :   1.9590 B(  2-C ,  5-H ) :   0.9412 B(  3-C ,  6-H ) :   0.9159
B(  3-C ,  7-H ) :   0.9348

-----------------------------------------------------------------------------
         ABSORPTION SPECTRUM VIA TRANSITION ELECTRIC DIPOLE MOMENTS
-----------------------------------------------------------------------------
State   Energy    Wavelength  fosc         T2        TX        TY        TZ
        (cm-1)      (nm)                 (au**2)    (au)      (au)      (au)
-----------------------------------------------------------------------------
   1   28349.8    352.7   0.000162549   0.00189  -0.03143  -0.00720   0.02912

FINAL SINGLE POINT ENERGY      -191.659598623544

DIPOLE MOMENT
-------------
                                X             Y             Z
Electronic contribution:     -2.02483      -1.63995      -0.02857
Nuclear contribution   :      2.31189       2.50723       0.00392
                        -----------------------------------------
Total Dipole Moment    :      0.28706       0.86728      -0.02465
                        -----------------------------------------
Magnitude (a.u.)       :      0.91388
Magnitude (Debye)      :      2.32291

Rotational constants in cm-1:     0.780866     0.210898     0.166133
Rotational constants in MHz : 23409.764070  6322.563231  4980.533143

                             ****ORCA TERMINATED NORMALLY****
TOTAL RUN TIME: 0 days 0 hours 3 minutes 21 seconds 167 msec
