                         Program Version 5.0.3 -  RELEASE  -
|  1> ! HF-3c
|  2> !TightSCF
|  3> %scf
|  4>  ConvForced true
|  5>  convergence tight
|  6>  MaxIter 500
|  7> end
|  8>
|  9> %tddft
| 10>  nroots 1
| 11> end
| 12>
| 13> # 	18099
| 14> * xyz 0 1
| 15> 		C   -1.090919  -0.382919   0.122274
| 16> 		O   -2.157333  -0.188354   0.705406
| 17> 		C    0.053778   0.335837   0.302931
| 18> 		C    1.255848   0.204724  -0.249403
| 19> 		H   -1.106671  -1.104571  -0.835693
| 20> 		H   -0.134293   1.064516   1.103265
| 21> 		H    1.139222  -0.581837  -1.118965
| 22> 		H    1.953693   0.663269  -0.060315
| 23> *
| 24>
| 25>                          ****END OF INPUT****

CARTESIAN COORDINATES (ANGSTROEM)
---------------------------------
  C     -1.090919   -0.382919    0.122274
  O     -2.157333   -0.188354    0.705406
  C      0.053778    0.335837    0.302931
  C      1.255848    0.204724   -0.249403
  H     -1.106671   -1.104571   -0.835693
  H     -0.134293    1.064516    1.103265
  H      1.139222   -0.581837   -1.118965
  H      1.953693    0.663269   -0.060315

 Total Charge           Charge          ....    0
 Multiplicity           Mult            ....    1
 Number of Electrons    NEL             ....   30
 Basis Dimension        Dim             ....   24

ORBITAL ENERGIES
----------------

  NO   OCC          E(Eh)            E(eV)
   0   2.0000     -20.365592      -554.1759
   1   2.0000     -11.296382      -307.3902
   2   2.0000     -11.218294      -305.2653
   3   2.0000     -11.207931      -304.9833
   4   2.0000      -1.393506       -37.9192
   5   2.0000      -1.117090       -30.3976
   6   2.0000      -0.935951       -25.4685
   7   2.0000      -0.767686       -20.8898
   8   2.0000      -0.718239       -19.5443
   9   2.0000      -0.651306       -17.7230
  10   2.0000      -0.587831       -15.9957
  11   2.0000      -0.554201       -15.0806
  12   2.0000      -0.522625       -14.2214
  13   2.0000      -0.417009       -11.3474
  14   2.0000      -0.400227       -10.8907
  15   0.0000       0.099086         2.6963
  16   0.0000       0.322857         8.7854
  17   0.0000       0.515928        14.0391
  18   0.0000       0.560528        15.2527
  19   0.0000       0.653691        17.7878

MULLIKEN ATOMIC CHARGES
-----------------------
   0 C :    0.159090
   1 O :   -0.340067
   2 C :   -0.162641
   3 C :   -0.246642
   4 H :    0.125340
   5 H :    0.158726
   6 H :    0.163424
   7 H :    0.142769
Sum of atomic charges:   -0.0000000

LOEWDIN ATOMIC CHARGES
----------------------
   0 C :    0.137044
   1 O :   -0.253483
   2 C :   -0.112237
   3 C :   -0.137989
   4 H :    0.070733
   5 H :    0.102492
   6 H :    0.118693
   7 H :    0.074748

  Mayer bond orders larger than 0.100000
B(  0-C ,  1-O ) :   1.8708 B(  0-C ,  2-C ) :   1.0887 B(  0-C ,  4-H ) :   0.9146
B(  1-O ,  3-C ) :   0.1045 B(  2-C ,  3-C ) :   1.9122 B(  2-C ,  5-H ) :   0.9442
B(  3-C ,  6-H ) :   0.9542 B(  3-C ,  7-H ) :   0.9728

-----------------------------------------------------------------------------
         ABSORPTION SPECTRUM VIA TRANSITION ELECTRIC DIPOLE MOMENTS
-----------------------------------------------------------------------------
State   Energy    Wavelength  fosc         T2        TX        TY        TZ
        (cm-1)      (nm)                 (au**2)    (au)      (au)      (au)
-----------------------------------------------------------------------------
   1   29098.8    343.7   0.000064250   0.00073   0.00315   0.00514   0.02628

Dispersion correction           -0.026369339
FINAL SINGLE POINT ENERGY      -189.255926180520

DIPOLE MOMENT
-------------
                                X             Y             Z
Electronic contribution:     -2.79683      -0.21546       1.15051
Nuclear contribution   :      3.72299       0.10850      -1.68345
                        -----------------------------------------
Total Dipole Moment    :      0.92616      -0.10696      -0.53294
                        -----------------------------------------
Magnitude (a.u.)       :      1.07389
Magnitude (Debye)      :      2.72962

Rotational constants in cm-1:     1.776696     0.158504     0.145636
Rotational constants in MHz : 53263.991981  4751.820934  4366.066748

                             ****ORCA TERMINATED NORMALLY****
TOTAL RUN TIME: 0 days 0 hours 0 minutes 13 seconds 439 msec
