                         Program Version 5.0.3 -  RELEASE  -
|  1> ! B3LYP cc-pVDZ
|  2> !TightSCF
|  3> %scf
|  4>  ConvForced true
|  5>  convergence tight
|  6>  MaxIter 500
|  7> end
|  8>
|  9> %tddft
| 10>  nroots 1
| 11> end
| 12>
| 13> # 	23424
| 14> * xyz 0 1
| 15> 		C   -0.603121  -0.436982   0.026317
| 16> 		O   -0.547118  -1.630308  -0.027691
| 17> 		C    0.645003   0.441417  -0.036567
| 18> 		C    1.818474  -0.148660   0.016557
| 19> 		H   -1.588485   0.162959   0.252783
| 20> 		H    0.530086   1.583534  -0.056791
| 21> 		H    1.901590  -1.308818   0.254578
| 22> 		H    2.651668   0.423137  -0.102053
| 23> *
| 24>
| 25>                          ****END OF INPUT****

CARTESIAN COORDINATES (ANGSTROEM)
---------------------------------
  C     -0.603121   -0.436982    0.026317
  O     -0.547118   -1.630308   -0.027691
  C      0.645003    0.441417   -0.036567
  C      1.818474   -0.148660    0.016557
  H     -1.588485    0.162959    0.252783
  H      0.530086    1.583534   -0.056791
  H      1.901590   -1.308818    0.254578
  H      2.651668    0.423137   -0.102053

 Total Charge           Charge          ....    0
 Multiplicity           Mult            ....    1
 Number of Electrons    NEL             ....   30
 Basis Dimension        Dim             ....   76

ORBITAL ENERGIES
----------------

  NO   OCC          E(Eh)            E(eV)
   0   2.0000     -19.144629      -520.9518
   1   2.0000     -10.283088      -279.8170
   2   2.0000     -10.206561      -277.7346
   3   2.0000     -10.205568      -277.7076
   4   2.0000      -1.058636       -28.8069
   5   2.0000      -0.792469       -21.5642
   6   2.0000      -0.643891       -17.5212
   7   2.0000      -0.531236       -14.4557
   8   2.0000      -0.503478       -13.7003
   9   2.0000      -0.446979       -12.1629
  10   2.0000      -0.426700       -11.6111
  11   2.0000      -0.401928       -10.9370
  12   2.0000      -0.376016       -10.2319
  13   2.0000      -0.288725        -7.8566
  14   2.0000      -0.258156        -7.0248
  15   0.0000      -0.062613        -1.7038
  16   0.0000       0.057593         1.5672
  17   0.0000       0.063699         1.7333
  18   0.0000       0.086502         2.3538
  19   0.0000       0.109747         2.9864

MULLIKEN ATOMIC CHARGES
-----------------------
   0 C :    0.167740
   1 O :   -0.171158
   2 C :   -0.157713
   3 C :    0.096154
   4 H :   -0.010500
   5 H :    0.010679
   6 H :    0.062386
   7 H :    0.002412
Sum of atomic charges:   -0.0000000

LOEWDIN ATOMIC CHARGES
----------------------
   0 C :   -0.038265
   1 O :    0.013981
   2 C :   -0.091790
   3 C :    0.016854
   4 H :   -0.004179
   5 H :    0.037666
   6 H :    0.056110
   7 H :    0.009624

  Mayer bond orders larger than 0.100000
B(  0-C ,  1-O ) :   2.2131 B(  0-C ,  2-C ) :   1.0105 B(  0-C ,  4-H ) :   0.9002
B(  2-C ,  3-C ) :   1.9888 B(  2-C ,  5-H ) :   0.9387 B(  3-C ,  6-H ) :   0.9276
B(  3-C ,  7-H ) :   0.9332

-----------------------------------------------------------------------------
         ABSORPTION SPECTRUM VIA TRANSITION ELECTRIC DIPOLE MOMENTS
-----------------------------------------------------------------------------
State   Energy    Wavelength  fosc         T2        TX        TY        TZ
        (cm-1)      (nm)                 (au**2)    (au)      (au)      (au)
-----------------------------------------------------------------------------
   1   29914.8    334.3   0.000197957   0.00218   0.01393  -0.02006  -0.03977

FINAL SINGLE POINT ENERGY      -191.657055181973

DIPOLE MOMENT
-------------
                                X             Y             Z
Electronic contribution:     -1.78000      -1.76552      -0.25775
Nuclear contribution   :      2.12063       2.59438       0.32763
                        -----------------------------------------
Total Dipole Moment    :      0.34063       0.82886       0.06988
                        -----------------------------------------
Magnitude (a.u.)       :      0.89884
Magnitude (Debye)      :      2.28467

Rotational constants in cm-1:     0.728549     0.215107     0.166675
Rotational constants in MHz : 21841.351021  6448.759554  4996.799357

                             ****ORCA TERMINATED NORMALLY****
TOTAL RUN TIME: 0 days 0 hours 3 minutes 9 seconds 495 msec
