                         Program Version 5.0.3 -  RELEASE  -
|  1> ! HF-3c
|  2> !TightSCF
|  3> %scf
|  4>  ConvForced true
|  5>  convergence tight
|  6>  MaxIter 500
|  7> end
|  8>
|  9> %tddft
| 10>  nroots 1
| 11> end
| 12>
| 13> # 	32675
| 14> * xyz 0 1
| 15> 		C   -0.620348  -0.449966  -0.004666
| 16> 		O   -0.604319  -1.647228  -0.008844
| 17> 		C    0.646992   0.427568  -0.015127
| 18> 		C    1.884215  -0.094505   0.035103
| 19> 		H   -1.517565  -0.143327   0.123680
| 20> 		H    0.461614   1.515528   0.029262
| 21> 		H    1.957161  -1.087512   0.058515
| 22> 		H    2.874341   0.466214  -0.269533
| 23> *
| 24>
| 25>                          ****END OF INPUT****

CARTESIAN COORDINATES (ANGSTROEM)
---------------------------------
  C     -0.620348   -0.449966   -0.004666
  O     -0.604319   -1.647228   -0.008844
  C      0.646992    0.427568   -0.015127
  C      1.884215   -0.094505    0.035103
  H     -1.517565   -0.143327    0.123680
  H      0.461614    1.515528    0.029262
  H      1.957161   -1.087512    0.058515
  H      2.874341    0.466214   -0.269533

 Total Charge           Charge          ....    0
 Multiplicity           Mult            ....    1
 Number of Electrons    NEL             ....   30
 Basis Dimension        Dim             ....   24

ORBITAL ENERGIES
----------------

  NO   OCC          E(Eh)            E(eV)
   0   2.0000     -20.373412      -554.3887
   1   2.0000     -11.303138      -307.5740
   2   2.0000     -11.193029      -304.5778
   3   2.0000     -11.189037      -304.4692
   4   2.0000      -1.420980       -38.6668
   5   2.0000      -1.068053       -29.0632
   6   2.0000      -0.896040       -24.3825
   7   2.0000      -0.783465       -21.3192
   8   2.0000      -0.705983       -19.2108
   9   2.0000      -0.617112       -16.7925
  10   2.0000      -0.596042       -16.2191
  11   2.0000      -0.545757       -14.8508
  12   2.0000      -0.534375       -14.5411
  13   2.0000      -0.423346       -11.5198
  14   2.0000      -0.391769       -10.6606
  15   0.0000       0.131260         3.5718
  16   0.0000       0.291038         7.9195
  17   0.0000       0.491840        13.3836
  18   0.0000       0.600338        16.3360
  19   0.0000       0.678221        18.4553

MULLIKEN ATOMIC CHARGES
-----------------------
   0 C :    0.132023
   1 O :   -0.339608
   2 C :   -0.153974
   3 C :   -0.233582
   4 H :    0.147229
   5 H :    0.142351
   6 H :    0.148567
   7 H :    0.156994
Sum of atomic charges:    0.0000000

LOEWDIN ATOMIC CHARGES
----------------------
   0 C :    0.125618
   1 O :   -0.241279
   2 C :   -0.111941
   3 C :   -0.134523
   4 H :    0.069461
   5 H :    0.091672
   6 H :    0.088550
   7 H :    0.112441

  Mayer bond orders larger than 0.100000
B(  0-C ,  1-O ) :   1.9154 B(  0-C ,  2-C ) :   0.9996 B(  0-C ,  4-H ) :   0.9456
B(  2-C ,  3-C ) :   1.9636 B(  2-C ,  5-H ) :   0.9606 B(  3-C ,  6-H ) :   0.9635
B(  3-C ,  7-H ) :   0.9591

-----------------------------------------------------------------------------
         ABSORPTION SPECTRUM VIA TRANSITION ELECTRIC DIPOLE MOMENTS
-----------------------------------------------------------------------------
State   Energy    Wavelength  fosc         T2        TX        TY        TZ
        (cm-1)      (nm)                 (au**2)    (au)      (au)      (au)
-----------------------------------------------------------------------------
   1   31975.8    312.7   0.000017317   0.00018  -0.00467  -0.00839   0.00928

Dispersion correction           -0.025297834
FINAL SINGLE POINT ENERGY      -189.299383730209

DIPOLE MOMENT
-------------
                                X             Y             Z
Electronic contribution:     -2.06250      -1.59862       0.02547
Nuclear contribution   :      2.38484       2.49460      -0.05353
                        -----------------------------------------
Total Dipole Moment    :      0.32234       0.89598      -0.02806
                        -----------------------------------------
Magnitude (a.u.)       :      0.95261
Magnitude (Debye)      :      2.42135

Rotational constants in cm-1:     0.796261     0.196950     0.158227
Rotational constants in MHz : 23871.307741  5904.404002  4743.535755

                             ****ORCA TERMINATED NORMALLY****
TOTAL RUN TIME: 0 days 0 hours 0 minutes 12 seconds 489 msec
