                         Program Version 5.0.3 -  RELEASE  -
|  1> ! B3LYP cc-pVDZ
|  2> !TightSCF
|  3> %scf
|  4>  ConvForced true
|  5>  convergence tight
|  6>  MaxIter 500
|  7> end
|  8>
|  9> %tddft
| 10>  nroots 1
| 11> end
| 12>
| 13> # 	1695
| 14> * xyz 0 1
| 15> 		C   -1.174186  -0.370212   0.076845
| 16> 		O   -1.861300  -0.784262   0.957365
| 17> 		C    0.024664   0.412662   0.269010
| 18> 		C    1.243930   0.019984  -0.250319
| 19> 		H   -1.578748  -0.510277  -1.193014
| 20> 		H    0.043243   1.295724   1.003324
| 21> 		H    1.311034  -0.675113  -0.797680
| 22> 		H    2.017732   0.615805  -0.036846
| 23> *
| 24>
| 25>                          ****END OF INPUT****

CARTESIAN COORDINATES (ANGSTROEM)
---------------------------------
  C     -1.174186   -0.370212    0.076845
  O     -1.861300   -0.784262    0.957365
  C      0.024664    0.412662    0.269010
  C      1.243930    0.019984   -0.250319
  H     -1.578748   -0.510277   -1.193014
  H      0.043243    1.295724    1.003324
  H      1.311034   -0.675113   -0.797680
  H      2.017732    0.615805   -0.036846

 Total Charge           Charge          ....    0
 Multiplicity           Mult            ....    1
 Number of Electrons    NEL             ....   30
 Basis Dimension        Dim             ....   76

ORBITAL ENERGIES
----------------

  NO   OCC          E(Eh)            E(eV)
   0   2.0000     -19.150734      -521.1180
   1   2.0000     -10.293613      -280.1035
   2   2.0000     -10.220032      -278.1012
   3   2.0000     -10.192923      -277.3635
   4   2.0000      -1.066791       -29.0289
   5   2.0000      -0.805728       -21.9250
   6   2.0000      -0.668898       -18.2016
   7   2.0000      -0.558625       -15.2009
   8   2.0000      -0.491284       -13.3685
   9   2.0000      -0.467060       -12.7094
  10   2.0000      -0.439028       -11.9465
  11   2.0000      -0.420953       -11.4547
  12   2.0000      -0.381250       -10.3743
  13   2.0000      -0.286141        -7.7863
  14   2.0000      -0.257300        -7.0015
  15   0.0000      -0.060632        -1.6499
  16   0.0000       0.002942         0.0801
  17   0.0000       0.067689         1.8419
  18   0.0000       0.085527         2.3273
  19   0.0000       0.121280         3.3002

MULLIKEN ATOMIC CHARGES
-----------------------
   0 C :    0.122340
   1 O :   -0.151881
   2 C :   -0.138721
   3 C :    0.246725
   4 H :   -0.022911
   5 H :    0.037879
   6 H :   -0.092003
   7 H :   -0.001429
Sum of atomic charges:   -0.0000000

LOEWDIN ATOMIC CHARGES
----------------------
   0 C :   -0.061154
   1 O :    0.031429
   2 C :   -0.043687
   3 C :    0.062719
   4 H :   -0.013846
   5 H :    0.052460
   6 H :   -0.045060
   7 H :    0.017139

  Mayer bond orders larger than 0.100000
B(  0-C ,  1-O ) :   2.2174 B(  0-C ,  2-C ) :   1.0135 B(  0-C ,  4-H ) :   0.8586
B(  2-C ,  3-C ) :   1.9968 B(  2-C ,  5-H ) :   0.9322 B(  3-C ,  6-H ) :   0.9406
B(  3-C ,  7-H ) :   0.9468

-----------------------------------------------------------------------------
         ABSORPTION SPECTRUM VIA TRANSITION ELECTRIC DIPOLE MOMENTS
-----------------------------------------------------------------------------
State   Energy    Wavelength  fosc         T2        TX        TY        TZ
        (cm-1)      (nm)                 (au**2)    (au)      (au)      (au)
-----------------------------------------------------------------------------
   1   30762.8    325.1   0.000691981   0.00741  -0.08580   0.00387   0.00537

FINAL SINGLE POINT ENERGY      -191.592069138651

DIPOLE MOMENT
-------------
                                X             Y             Z
Electronic contribution:     -2.64005      -0.98403       1.57995
Nuclear contribution   :      3.45834       1.41325      -1.98376
                        -----------------------------------------
Total Dipole Moment    :      0.81828       0.42923      -0.40382
                        -----------------------------------------
Magnitude (a.u.)       :      1.00841
Magnitude (Debye)      :      2.56318

Rotational constants in cm-1:     1.206987     0.158580     0.152424
Rotational constants in MHz : 36184.558378  4754.111247  4569.541940

                             ****ORCA TERMINATED NORMALLY****
TOTAL RUN TIME: 0 days 0 hours 3 minutes 27 seconds 981 msec
