                         Program Version 5.0.3 -  RELEASE  -
|  1> ! B3LYP cc-pVDZ
|  2> !TightSCF
|  3> %scf
|  4>  ConvForced true
|  5>  convergence tight
|  6>  MaxIter 500
|  7> end
|  8>
|  9> %tddft
| 10>  nroots 1
| 11> end
| 12>
| 13> # 	7988
| 14> * xyz 0 1
| 15> 		C   -1.140639  -0.245620   0.029036
| 16> 		O   -1.617754  -0.926085   0.893090
| 17> 		C    0.026077   0.548915   0.191166
| 18> 		C    1.222387   0.047998  -0.192228
| 19> 		H   -1.766420  -0.382055  -0.973674
| 20> 		H   -0.128539   1.400375   0.808303
| 21> 		H    1.308193  -0.934546  -0.722254
| 22> 		H    2.137103   0.521548  -0.029221
| 23> *
| 24>
| 25>                          ****END OF INPUT****

CARTESIAN COORDINATES (ANGSTROEM)
---------------------------------
  C     -1.140639   -0.245620    0.029036
  O     -1.617754   -0.926085    0.893090
  C      0.026077    0.548915    0.191166
  C      1.222387    0.047998   -0.192228
  H     -1.766420   -0.382055   -0.973674
  H     -0.128539    1.400375    0.808303
  H      1.308193   -0.934546   -0.722254
  H      2.137103    0.521548   -0.029221

 Total Charge           Charge          ....    0
 Multiplicity           Mult            ....    1
 Number of Electrons    NEL             ....   30
 Basis Dimension        Dim             ....   76

ORBITAL ENERGIES
----------------

  NO   OCC          E(Eh)            E(eV)
   0   2.0000     -19.136503      -520.7307
   1   2.0000     -10.276969      -279.6505
   2   2.0000     -10.212086      -277.8850
   3   2.0000     -10.208822      -277.7962
   4   2.0000      -1.055451       -28.7203
   5   2.0000      -0.804121       -21.8812
   6   2.0000      -0.656674       -17.8690
   7   2.0000      -0.555424       -15.1138
   8   2.0000      -0.494714       -13.4618
   9   2.0000      -0.472906       -12.8684
  10   2.0000      -0.437765       -11.9122
  11   2.0000      -0.396164       -10.7802
  12   2.0000      -0.375230       -10.2105
  13   2.0000      -0.286959        -7.8086
  14   2.0000      -0.247929        -6.7465
  15   0.0000      -0.038474        -1.0469
  16   0.0000      -0.008605        -0.2341
  17   0.0000       0.086301         2.3484
  18   0.0000       0.091331         2.4853
  19   0.0000       0.096790         2.6338

MULLIKEN ATOMIC CHARGES
-----------------------
   0 C :    0.114062
   1 O :   -0.176276
   2 C :   -0.028057
   3 C :    0.038492
   4 H :   -0.017448
   5 H :    0.014318
   6 H :    0.034718
   7 H :    0.020191
Sum of atomic charges:    0.0000000

LOEWDIN ATOMIC CHARGES
----------------------
   0 C :   -0.045037
   1 O :    0.011560
   2 C :   -0.052374
   3 C :   -0.001725
   4 H :   -0.003620
   5 H :    0.036192
   6 H :    0.037417
   7 H :    0.017587

  Mayer bond orders larger than 0.100000
B(  0-C ,  1-O ) :   2.2229 B(  0-C ,  2-C ) :   1.0020 B(  0-C ,  4-H ) :   0.9179
B(  2-C ,  3-C ) :   2.0059 B(  2-C ,  5-H ) :   0.9358 B(  3-C ,  6-H ) :   0.9493
B(  3-C ,  7-H ) :   0.9528

-----------------------------------------------------------------------------
         ABSORPTION SPECTRUM VIA TRANSITION ELECTRIC DIPOLE MOMENTS
-----------------------------------------------------------------------------
State   Energy    Wavelength  fosc         T2        TX        TY        TZ
        (cm-1)      (nm)                 (au**2)    (au)      (au)      (au)
-----------------------------------------------------------------------------
   1   32341.3    309.2   0.001027175   0.01046  -0.08362   0.00527   0.05861

FINAL SINGLE POINT ENERGY      -191.634943526094

DIPOLE MOMENT
-------------
                                X             Y             Z
Electronic contribution:     -2.35880      -0.68614       1.30792
Nuclear contribution   :      2.97782       1.22532      -1.76762
                        -----------------------------------------
Total Dipole Moment    :      0.61902       0.53918      -0.45970
                        -----------------------------------------
Magnitude (a.u.)       :      0.94086
Magnitude (Debye)      :      2.39148

Rotational constants in cm-1:     0.994337     0.173516     0.166994
Rotational constants in MHz : 29809.484024  5201.871658  5006.349652

                             ****ORCA TERMINATED NORMALLY****
TOTAL RUN TIME: 0 days 0 hours 3 minutes 20 seconds 479 msec
