                         Program Version 5.0.3 -  RELEASE  -
|  1> ! B3LYP cc-pVDZ
|  2> !TightSCF
|  3> %scf
|  4>  ConvForced true
|  5>  convergence tight
|  6>  MaxIter 500
|  7> end
|  8>
|  9> %tddft
| 10>  nroots 1
| 11> end
| 12>
| 13> # 	554
| 14> * xyz 0 1
| 15> 		C   -1.240042  -0.421015   0.051142
| 16> 		O   -2.133245  -0.586019   0.832370
| 17> 		C   -0.007904   0.400183   0.251727
| 18> 		C    1.190359   0.083193  -0.269786
| 19> 		H   -1.283122  -0.831488  -0.902849
| 20> 		H    0.008519   1.274752   1.064419
| 21> 		H    1.335292  -0.652477  -1.026094
| 22> 		H    2.119127   0.665369  -0.050576
| 23> *
| 24>
| 25>                          ****END OF INPUT****

CARTESIAN COORDINATES (ANGSTROEM)
---------------------------------
  C     -1.240042   -0.421015    0.051142
  O     -2.133245   -0.586019    0.832370
  C     -0.007904    0.400183    0.251727
  C      1.190359    0.083193   -0.269786
  H     -1.283122   -0.831488   -0.902849
  H      0.008519    1.274752    1.064419
  H      1.335292   -0.652477   -1.026094
  H      2.119127    0.665369   -0.050576

 Total Charge           Charge          ....    0
 Multiplicity           Mult            ....    1
 Number of Electrons    NEL             ....   30
 Basis Dimension        Dim             ....   76

ORBITAL ENERGIES
----------------

  NO   OCC          E(Eh)            E(eV)
   0   2.0000     -19.140837      -520.8486
   1   2.0000     -10.273619      -279.5594
   2   2.0000     -10.217938      -278.0442
   3   2.0000     -10.216955      -278.0175
   4   2.0000      -1.054543       -28.6956
   5   2.0000      -0.796640       -21.6777
   6   2.0000      -0.652819       -17.7641
   7   2.0000      -0.569378       -15.4936
   8   2.0000      -0.483838       -13.1659
   9   2.0000      -0.466589       -12.6965
  10   2.0000      -0.429584       -11.6896
  11   2.0000      -0.398370       -10.8402
  12   2.0000      -0.374477       -10.1900
  13   2.0000      -0.292644        -7.9633
  14   2.0000      -0.257247        -7.0000
  15   0.0000      -0.062337        -1.6963
  16   0.0000       0.034350         0.9347
  17   0.0000       0.070490         1.9181
  18   0.0000       0.080079         2.1791
  19   0.0000       0.125846         3.4244

MULLIKEN ATOMIC CHARGES
-----------------------
   0 C :    0.228679
   1 O :   -0.181579
   2 C :   -0.140940
   3 C :    0.036120
   4 H :   -0.038170
   5 H :    0.033441
   6 H :    0.017615
   7 H :    0.044835
Sum of atomic charges:    0.0000000

LOEWDIN ATOMIC CHARGES
----------------------
   0 C :   -0.036747
   1 O :    0.018013
   2 C :   -0.069110
   3 C :   -0.005392
   4 H :   -0.016575
   5 H :    0.050282
   6 H :    0.018873
   7 H :    0.040656

  Mayer bond orders larger than 0.100000
B(  0-C ,  1-O ) :   2.2046 B(  0-C ,  2-C ) :   1.0336 B(  0-C ,  4-H ) :   0.9250
B(  2-C ,  3-C ) :   1.9619 B(  2-C ,  5-H ) :   0.9305 B(  3-C ,  6-H ) :   0.9493
B(  3-C ,  7-H ) :   0.9438

-----------------------------------------------------------------------------
         ABSORPTION SPECTRUM VIA TRANSITION ELECTRIC DIPOLE MOMENTS
-----------------------------------------------------------------------------
State   Energy    Wavelength  fosc         T2        TX        TY        TZ
        (cm-1)      (nm)                 (au**2)    (au)      (au)      (au)
-----------------------------------------------------------------------------
   1   29887.9    334.6   0.000378290   0.00417  -0.05995  -0.02179  -0.00990

FINAL SINGLE POINT ENERGY      -191.659708154588

DIPOLE MOMENT
-------------
                                X             Y             Z
Electronic contribution:     -3.26516      -0.76075       1.14088
Nuclear contribution   :      4.20585       0.96810      -1.70584
                        -----------------------------------------
Total Dipole Moment    :      0.94069       0.20735      -0.56496
                        -----------------------------------------
Magnitude (a.u.)       :      1.11672
Magnitude (Debye)      :      2.83848

Rotational constants in cm-1:     1.489109     0.150438     0.140206
Rotational constants in MHz : 44642.371577  4510.005579  4203.268833

                             ****ORCA TERMINATED NORMALLY****
TOTAL RUN TIME: 0 days 0 hours 3 minutes 23 seconds 194 msec
