                         Program Version 5.0.3 -  RELEASE  -
|  1> ! B3LYP cc-pVDZ
|  2> !TightSCF
|  3> %scf
|  4>  ConvForced true
|  5>  convergence tight
|  6>  MaxIter 500
|  7> end
|  8>
|  9> %tddft
| 10>  nroots 1
| 11> end
| 12>
| 13> # 	17844
| 14> * xyz 0 1
| 15> 		C   -1.208493  -0.331520   0.033311
| 16> 		O   -1.312241  -1.408960  -0.462629
| 17> 		C    0.021223   0.637412  -0.063174
| 18> 		C    1.192302   0.000541   0.074121
| 19> 		H   -2.027356  -0.026975   0.608123
| 20> 		H   -0.041924   1.660890  -0.564983
| 21> 		H    1.256582  -1.019433   0.322303
| 22> 		H    2.146159   0.485285   0.097853
| 23> *
| 24>
| 25>                          ****END OF INPUT****

CARTESIAN COORDINATES (ANGSTROEM)
---------------------------------
  C     -1.208493   -0.331520    0.033311
  O     -1.312241   -1.408960   -0.462629
  C      0.021223    0.637412   -0.063174
  C      1.192302    0.000541    0.074121
  H     -2.027356   -0.026975    0.608123
  H     -0.041924    1.660890   -0.564983
  H      1.256582   -1.019433    0.322303
  H      2.146159    0.485285    0.097853

 Total Charge           Charge          ....    0
 Multiplicity           Mult            ....    1
 Number of Electrons    NEL             ....   30
 Basis Dimension        Dim             ....   76

ORBITAL ENERGIES
----------------

  NO   OCC          E(Eh)            E(eV)
   0   2.0000     -19.141996      -520.8802
   1   2.0000     -10.274762      -279.5905
   2   2.0000     -10.212330      -277.8916
   3   2.0000     -10.200647      -277.5737
   4   2.0000      -1.060222       -28.8501
   5   2.0000      -0.786437       -21.4000
   6   2.0000      -0.642464       -17.4823
   7   2.0000      -0.560316       -15.2470
   8   2.0000      -0.500765       -13.6265
   9   2.0000      -0.444193       -12.0871
  10   2.0000      -0.441499       -12.0138
  11   2.0000      -0.387714       -10.5502
  12   2.0000      -0.385471       -10.4892
  13   2.0000      -0.287828        -7.8322
  14   2.0000      -0.251180        -6.8350
  15   0.0000      -0.043744        -1.1903
  16   0.0000       0.006528         0.1776
  17   0.0000       0.083898         2.2830
  18   0.0000       0.101510         2.7622
  19   0.0000       0.108544         2.9536

MULLIKEN ATOMIC CHARGES
-----------------------
   0 C :    0.203540
   1 O :   -0.169815
   2 C :   -0.163724
   3 C :    0.083292
   4 H :   -0.028452
   5 H :    0.038583
   6 H :    0.018399
   7 H :    0.018178
Sum of atomic charges:    0.0000000

LOEWDIN ATOMIC CHARGES
----------------------
   0 C :   -0.017982
   1 O :    0.022203
   2 C :   -0.077911
   3 C :    0.005923
   4 H :   -0.019780
   5 H :    0.044978
   6 H :    0.019545
   7 H :    0.023023

  Mayer bond orders larger than 0.100000
B(  0-C ,  1-O ) :   2.2375 B(  0-C ,  2-C ) :   0.9557 B(  0-C ,  4-H ) :   0.9313
B(  2-C ,  3-C ) :   2.0026 B(  2-C ,  5-H ) :   0.9394 B(  3-C ,  6-H ) :   0.9500
B(  3-C ,  7-H ) :   0.9551

-----------------------------------------------------------------------------
         ABSORPTION SPECTRUM VIA TRANSITION ELECTRIC DIPOLE MOMENTS
-----------------------------------------------------------------------------
State   Energy    Wavelength  fosc         T2        TX        TY        TZ
        (cm-1)      (nm)                 (au**2)    (au)      (au)      (au)
-----------------------------------------------------------------------------
   1   32157.9    311.0   0.000400132   0.00410   0.06347   0.00512   0.00646

FINAL SINGLE POINT ENERGY      -191.638347577323

DIPOLE MOMENT
-------------
                                X             Y             Z
Electronic contribution:     -2.21719      -1.46004      -0.57957
Nuclear contribution   :      2.54806       2.20393       0.85809
                        -----------------------------------------
Total Dipole Moment    :      0.33087       0.74388       0.27852
                        -----------------------------------------
Magnitude (a.u.)       :      0.86047
Magnitude (Debye)      :      2.18714

Rotational constants in cm-1:     0.773018     0.195555     0.162925
Rotational constants in MHz : 23174.489562  5862.584673  4884.366318

                             ****ORCA TERMINATED NORMALLY****
TOTAL RUN TIME: 0 days 0 hours 3 minutes 27 seconds 214 msec
