                         Program Version 5.0.3 -  RELEASE  -
|  1> ! HF-3c
|  2> !TightSCF
|  3> %scf
|  4>  ConvForced true
|  5>  convergence tight
|  6>  MaxIter 500
|  7> end
|  8>
|  9> %tddft
| 10>  nroots 1
| 11> end
| 12>
| 13> # 	29302
| 14> * xyz 0 1
| 15> 		C   -0.594314  -0.437285  -0.030886
| 16> 		O   -0.558980  -1.603685   0.012398
| 17> 		C    0.604643   0.395328  -0.010397
| 18> 		C    1.860713  -0.130346   0.006906
| 19> 		H   -1.567498   0.229079   0.178194
| 20> 		H    0.538038   1.380178   0.030317
| 21> 		H    1.928101  -1.386996  -0.101058
| 22> 		H    2.630941   0.544635   0.111854
| 23> *
| 24>
| 25>                          ****END OF INPUT****

CARTESIAN COORDINATES (ANGSTROEM)
---------------------------------
  C     -0.594314   -0.437285   -0.030886
  O     -0.558980   -1.603685    0.012398
  C      0.604643    0.395328   -0.010397
  C      1.860713   -0.130346    0.006906
  H     -1.567498    0.229079    0.178194
  H      0.538038    1.380178    0.030317
  H      1.928101   -1.386996   -0.101058
  H      2.630941    0.544635    0.111854

 Total Charge           Charge          ....    0
 Multiplicity           Mult            ....    1
 Number of Electrons    NEL             ....   30
 Basis Dimension        Dim             ....   24

ORBITAL ENERGIES
----------------

  NO   OCC          E(Eh)            E(eV)
   0   2.0000     -20.372378      -554.3606
   1   2.0000     -11.303840      -307.5931
   2   2.0000     -11.188696      -304.4599
   3   2.0000     -11.172537      -304.0202
   4   2.0000      -1.432420       -38.9781
   5   2.0000      -1.073881       -29.2218
   6   2.0000      -0.884083       -24.0571
   7   2.0000      -0.732719       -19.9383
   8   2.0000      -0.714877       -19.4528
   9   2.0000      -0.608592       -16.5606
  10   2.0000      -0.597134       -16.2488
  11   2.0000      -0.559969       -15.2375
  12   2.0000      -0.520072       -14.1519
  13   2.0000      -0.402471       -10.9518
  14   2.0000      -0.386208       -10.5093
  15   0.0000       0.135139         3.6773
  16   0.0000       0.315942         8.5972
  17   0.0000       0.478414        13.0183
  18   0.0000       0.552902        15.0452
  19   0.0000       0.684078        18.6147

MULLIKEN ATOMIC CHARGES
-----------------------
   0 C :    0.192522
   1 O :   -0.371478
   2 C :   -0.208533
   3 C :   -0.194136
   4 H :    0.128371
   5 H :    0.134189
   6 H :    0.175796
   7 H :    0.143270
Sum of atomic charges:   -0.0000000

LOEWDIN ATOMIC CHARGES
----------------------
   0 C :    0.155745
   1 O :   -0.261480
   2 C :   -0.164194
   3 C :   -0.100588
   4 H :    0.071596
   5 H :    0.076996
   6 H :    0.133469
   7 H :    0.088456

  Mayer bond orders larger than 0.100000
B(  0-C ,  1-O ) :   1.9080 B(  0-C ,  2-C ) :   1.0267 B(  0-C ,  4-H ) :   0.9059
B(  2-C ,  3-C ) :   1.9277 B(  2-C ,  5-H ) :   0.9664 B(  3-C ,  6-H ) :   0.9494
B(  3-C ,  7-H ) :   0.9676

-----------------------------------------------------------------------------
         ABSORPTION SPECTRUM VIA TRANSITION ELECTRIC DIPOLE MOMENTS
-----------------------------------------------------------------------------
State   Energy    Wavelength  fosc         T2        TX        TY        TZ
        (cm-1)      (nm)                 (au**2)    (au)      (au)      (au)
-----------------------------------------------------------------------------
   1   34857.2    286.9   0.000091500   0.00086   0.02031  -0.00959  -0.01897

Dispersion correction           -0.026070731
FINAL SINGLE POINT ENERGY      -189.288455552222

DIPOLE MOMENT
-------------
                                X             Y             Z
Electronic contribution:     -1.80940      -1.71749      -0.19286
Nuclear contribution   :      2.15481       2.50706       0.20549
                        -----------------------------------------
Total Dipole Moment    :      0.34541       0.78958       0.01263
                        -----------------------------------------
Magnitude (a.u.)       :      0.86192
Magnitude (Debye)      :      2.19081

Rotational constants in cm-1:     0.764000     0.215138     0.168107
Rotational constants in MHz : 22904.134076  6449.666929  5039.708114

                             ****ORCA TERMINATED NORMALLY****
TOTAL RUN TIME: 0 days 0 hours 0 minutes 13 seconds 153 msec
