                         Program Version 5.0.3 -  RELEASE  -
|  1> ! B3LYP cc-pVDZ
|  2> !TightSCF
|  3> %scf
|  4>  ConvForced true
|  5>  convergence tight
|  6>  MaxIter 500
|  7> end
|  8>
|  9> %tddft
| 10>  nroots 1
| 11> end
| 12>
| 13> # 	18687
| 14> * xyz 0 1
| 15> 		C   -1.255726  -0.289600  -0.018161
| 16> 		O   -1.554189  -1.189160   0.701264
| 17> 		C    0.032082   0.507075   0.201481
| 18> 		C    1.200037  -0.009606  -0.054853
| 19> 		H   -1.731095  -0.241910  -0.931180
| 20> 		H   -0.048164   1.493435   0.652599
| 21> 		H    1.318770  -0.951800  -0.553573
| 22> 		H    2.073839   0.593242   0.004351
| 23> *
| 24>
| 25>                          ****END OF INPUT****

CARTESIAN COORDINATES (ANGSTROEM)
---------------------------------
  C     -1.255726   -0.289600   -0.018161
  O     -1.554189   -1.189160    0.701264
  C      0.032082    0.507075    0.201481
  C      1.200037   -0.009606   -0.054853
  H     -1.731095   -0.241910   -0.931180
  H     -0.048164    1.493435    0.652599
  H      1.318770   -0.951800   -0.553573
  H      2.073839    0.593242    0.004351

 Total Charge           Charge          ....    0
 Multiplicity           Mult            ....    1
 Number of Electrons    NEL             ....   30
 Basis Dimension        Dim             ....   76

ORBITAL ENERGIES
----------------

  NO   OCC          E(Eh)            E(eV)
   0   2.0000     -19.141882      -520.8771
   1   2.0000     -10.272645      -279.5329
   2   2.0000     -10.200144      -277.5600
   3   2.0000     -10.192717      -277.3579
   4   2.0000      -1.062346       -28.9079
   5   2.0000      -0.795031       -21.6339
   6   2.0000      -0.647520       -17.6199
   7   2.0000      -0.568472       -15.4689
   8   2.0000      -0.501416       -13.6442
   9   2.0000      -0.460171       -12.5219
  10   2.0000      -0.442737       -12.0475
  11   2.0000      -0.390148       -10.6165
  12   2.0000      -0.378720       -10.3055
  13   2.0000      -0.291376        -7.9288
  14   2.0000      -0.251163        -6.8345
  15   0.0000      -0.030132        -0.8199
  16   0.0000      -0.001655        -0.0450
  17   0.0000       0.084499         2.2993
  18   0.0000       0.102098         2.7782
  19   0.0000       0.109226         2.9722

MULLIKEN ATOMIC CHARGES
-----------------------
   0 C :    0.193177
   1 O :   -0.167024
   2 C :   -0.105951
   3 C :    0.068853
   4 H :   -0.024613
   5 H :    0.007705
   6 H :    0.010718
   7 H :    0.017135
Sum of atomic charges:   -0.0000000

LOEWDIN ATOMIC CHARGES
----------------------
   0 C :   -0.016659
   1 O :    0.031043
   2 C :   -0.054787
   3 C :   -0.022884
   4 H :   -0.017872
   5 H :    0.030616
   6 H :    0.024004
   7 H :    0.026538

  Mayer bond orders larger than 0.100000
B(  0-C ,  1-O ) :   2.2494 B(  0-C ,  2-C ) :   0.9537 B(  0-C ,  4-H ) :   0.9334
B(  2-C ,  3-C ) :   2.0700 B(  2-C ,  5-H ) :   0.9338 B(  3-C ,  6-H ) :   0.9446
B(  3-C ,  7-H ) :   0.9410

-----------------------------------------------------------------------------
         ABSORPTION SPECTRUM VIA TRANSITION ELECTRIC DIPOLE MOMENTS
-----------------------------------------------------------------------------
State   Energy    Wavelength  fosc         T2        TX        TY        TZ
        (cm-1)      (nm)                 (au**2)    (au)      (au)      (au)
-----------------------------------------------------------------------------
   1   32868.0    304.2   0.000741386   0.00743   0.07887   0.01521   0.03121

FINAL SINGLE POINT ENERGY      -191.634631488192

DIPOLE MOMENT
-------------
                                X             Y             Z
Electronic contribution:     -2.71001      -1.21658       1.05023
Nuclear contribution   :      3.07135       1.87041      -1.56782
                        -----------------------------------------
Total Dipole Moment    :      0.36134       0.65383      -0.51759
                        -----------------------------------------
Magnitude (a.u.)       :      0.90882
Magnitude (Debye)      :      2.31004

Rotational constants in cm-1:     0.915800     0.179235     0.164256
Rotational constants in MHz : 27454.993366  5373.332268  4924.262010

                             ****ORCA TERMINATED NORMALLY****
TOTAL RUN TIME: 0 days 0 hours 3 minutes 21 seconds 493 msec
