                         Program Version 5.0.3 -  RELEASE  -
|  1> ! HF-3c
|  2> !TightSCF
|  3> %scf
|  4>  ConvForced true
|  5>  convergence tight
|  6>  MaxIter 500
|  7> end
|  8>
|  9> %tddft
| 10>  nroots 1
| 11> end
| 12>
| 13> # 	27589
| 14> * xyz 0 1
| 15> 		C   -0.643804  -0.438116   0.019560
| 16> 		O   -0.506655  -1.570030  -0.023327
| 17> 		C    0.608533   0.431728  -0.014630
| 18> 		C    1.825112  -0.202714   0.004755
| 19> 		H   -1.566144   0.033949   0.170320
| 20> 		H    0.493404   1.522146  -0.074605
| 21> 		H    1.949881  -1.236335   0.258485
| 22> 		H    2.765343   0.355439  -0.115405
| 23> *
| 24>
| 25>                          ****END OF INPUT****

CARTESIAN COORDINATES (ANGSTROEM)
---------------------------------
  C     -0.643804   -0.438116    0.019560
  O     -0.506655   -1.570030   -0.023327
  C      0.608533    0.431728   -0.014630
  C      1.825112   -0.202714    0.004755
  H     -1.566144    0.033949    0.170320
  H      0.493404    1.522146   -0.074605
  H      1.949881   -1.236335    0.258485
  H      2.765343    0.355439   -0.115405

 Total Charge           Charge          ....    0
 Multiplicity           Mult            ....    1
 Number of Electrons    NEL             ....   30
 Basis Dimension        Dim             ....   24

ORBITAL ENERGIES
----------------

  NO   OCC          E(Eh)            E(eV)
   0   2.0000     -20.388109      -554.7887
   1   2.0000     -11.316091      -307.9265
   2   2.0000     -11.180165      -304.2278
   3   2.0000     -11.174254      -304.0669
   4   2.0000      -1.461790       -39.7773
   5   2.0000      -1.051915       -28.6241
   6   2.0000      -0.884359       -24.0646
   7   2.0000      -0.767401       -20.8821
   8   2.0000      -0.705952       -19.2099
   9   2.0000      -0.625612       -17.0238
  10   2.0000      -0.594191       -16.1688
  11   2.0000      -0.570997       -15.5376
  12   2.0000      -0.539740       -14.6871
  13   2.0000      -0.410923       -11.1818
  14   2.0000      -0.380515       -10.3543
  15   0.0000       0.144034         3.9194
  16   0.0000       0.305425         8.3110
  17   0.0000       0.547433        14.8964
  18   0.0000       0.620566        16.8865
  19   0.0000       0.674754        18.3610

MULLIKEN ATOMIC CHARGES
-----------------------
   0 C :    0.177895
   1 O :   -0.361251
   2 C :   -0.165504
   3 C :   -0.221311
   4 H :    0.138526
   5 H :    0.137173
   6 H :    0.154685
   7 H :    0.139786
Sum of atomic charges:   -0.0000000

LOEWDIN ATOMIC CHARGES
----------------------
   0 C :    0.146420
   1 O :   -0.241862
   2 C :   -0.129588
   3 C :   -0.121892
   4 H :    0.067560
   5 H :    0.087780
   6 H :    0.100057
   7 H :    0.091526

  Mayer bond orders larger than 0.100000
B(  0-C ,  1-O ) :   1.9247 B(  0-C ,  2-C ) :   0.9917 B(  0-C ,  4-H ) :   0.9225
B(  2-C ,  3-C ) :   1.9572 B(  2-C ,  5-H ) :   0.9641 B(  3-C ,  6-H ) :   0.9623
B(  3-C ,  7-H ) :   0.9672

-----------------------------------------------------------------------------
         ABSORPTION SPECTRUM VIA TRANSITION ELECTRIC DIPOLE MOMENTS
-----------------------------------------------------------------------------
State   Energy    Wavelength  fosc         T2        TX        TY        TZ
        (cm-1)      (nm)                 (au**2)    (au)      (au)      (au)
-----------------------------------------------------------------------------
   1   36317.8    275.3   0.000127757   0.00116  -0.03389  -0.00126  -0.00276

Dispersion correction           -0.025792274
FINAL SINGLE POINT ENERGY      -189.312265853760

DIPOLE MOMENT
-------------
                                X             Y             Z
Electronic contribution:     -2.08443      -1.59581      -0.15139
Nuclear contribution   :      2.26314       2.42126       0.22477
                        -----------------------------------------
Total Dipole Moment    :      0.17871       0.82545       0.07339
                        -----------------------------------------
Magnitude (a.u.)       :      0.84776
Magnitude (Debye)      :      2.15483

Rotational constants in cm-1:     0.729302     0.223929     0.171784
Rotational constants in MHz : 21863.937462  6713.229169  5149.955590

                             ****ORCA TERMINATED NORMALLY****
TOTAL RUN TIME: 0 days 0 hours 0 minutes 12 seconds 990 msec
