                         Program Version 5.0.3 -  RELEASE  -
|  1> ! HF-3c
|  2> !TightSCF
|  3> %scf
|  4>  ConvForced true
|  5>  convergence tight
|  6>  MaxIter 500
|  7> end
|  8>
|  9> %tddft
| 10>  nroots 1
| 11> end
| 12>
| 13> # 	84
| 14> * xyz 0 1
| 15> 		C   -1.143286  -0.358544  -0.028299
| 16> 		O   -1.382068  -1.511844  -0.393478
| 17> 		C    0.033690   0.455981  -0.188210
| 18> 		C    1.203189  -0.033768   0.085924
| 19> 		H   -1.858871   0.314087   0.597404
| 20> 		H   -0.099500   1.483207  -0.472669
| 21> 		H    1.284611  -1.072945   0.364221
| 22> 		H    1.933716   0.676616   0.043306
| 23> *
| 24>
| 25>                          ****END OF INPUT****

CARTESIAN COORDINATES (ANGSTROEM)
---------------------------------
  C     -1.143286   -0.358544   -0.028299
  O     -1.382068   -1.511844   -0.393478
  C      0.033690    0.455981   -0.188210
  C      1.203189   -0.033768    0.085924
  H     -1.858871    0.314087    0.597404
  H     -0.099500    1.483207   -0.472669
  H      1.284611   -1.072945    0.364221
  H      1.933716    0.676616    0.043306

 Total Charge           Charge          ....    0
 Multiplicity           Mult            ....    1
 Number of Electrons    NEL             ....   30
 Basis Dimension        Dim             ....   24

ORBITAL ENERGIES
----------------

  NO   OCC          E(Eh)            E(eV)
   0   2.0000     -20.368104      -554.2443
   1   2.0000     -11.293797      -307.3198
   2   2.0000     -11.196485      -304.6719
   3   2.0000     -11.192771      -304.5708
   4   2.0000      -1.385811       -37.7098
   5   2.0000      -1.112442       -30.2711
   6   2.0000      -0.909464       -24.7478
   7   2.0000      -0.745793       -20.2941
   8   2.0000      -0.709028       -19.2936
   9   2.0000      -0.615736       -16.7550
  10   2.0000      -0.613886       -16.7047
  11   2.0000      -0.561924       -15.2907
  12   2.0000      -0.510950       -13.9037
  13   2.0000      -0.418223       -11.3804
  14   2.0000      -0.402847       -10.9620
  15   0.0000       0.147479         4.0131
  16   0.0000       0.273058         7.4303
  17   0.0000       0.572053        15.5664
  18   0.0000       0.622522        16.9397
  19   0.0000       0.641976        17.4691

MULLIKEN ATOMIC CHARGES
-----------------------
   0 C :    0.176906
   1 O :   -0.346852
   2 C :   -0.175165
   3 C :   -0.246456
   4 H :    0.128812
   5 H :    0.150592
   6 H :    0.162158
   7 H :    0.150004
Sum of atomic charges:    0.0000000

LOEWDIN ATOMIC CHARGES
----------------------
   0 C :    0.159191
   1 O :   -0.259384
   2 C :   -0.126585
   3 C :   -0.142846
   4 H :    0.072055
   5 H :    0.096353
   6 H :    0.107609
   7 H :    0.093607

  Mayer bond orders larger than 0.100000
B(  0-C ,  1-O ) :   1.9261 B(  0-C ,  2-C ) :   1.0249 B(  0-C ,  4-H ) :   0.9104
B(  2-C ,  3-C ) :   1.9575 B(  2-C ,  5-H ) :   0.9527 B(  3-C ,  6-H ) :   0.9596
B(  3-C ,  7-H ) :   0.9638

-----------------------------------------------------------------------------
         ABSORPTION SPECTRUM VIA TRANSITION ELECTRIC DIPOLE MOMENTS
-----------------------------------------------------------------------------
State   Energy    Wavelength  fosc         T2        TX        TY        TZ
        (cm-1)      (nm)                 (au**2)    (au)      (au)      (au)
-----------------------------------------------------------------------------
   1   32902.0    303.9   0.000289206   0.00289   0.05340  -0.00027   0.00649

Dispersion correction           -0.026179690
FINAL SINGLE POINT ENERGY      -189.321240023049

DIPOLE MOMENT
-------------
                                X             Y             Z
Electronic contribution:     -2.10497      -1.80865      -0.63664
Nuclear contribution   :      2.48664       2.77114       0.98592
                        -----------------------------------------
Total Dipole Moment    :      0.38167       0.96249       0.34928
                        -----------------------------------------
Magnitude (a.u.)       :      1.09273
Magnitude (Debye)      :      2.77749

Rotational constants in cm-1:     0.859709     0.194713     0.164485
Rotational constants in MHz : 25773.412980  5837.334127  4931.143218

                             ****ORCA TERMINATED NORMALLY****
TOTAL RUN TIME: 0 days 0 hours 0 minutes 13 seconds 711 msec
