                         Program Version 5.0.3 -  RELEASE  -
|  1> ! B3LYP cc-pVDZ
|  2> !TightSCF
|  3> %scf
|  4>  ConvForced true
|  5>  convergence tight
|  6>  MaxIter 500
|  7> end
|  8>
|  9> %tddft
| 10>  nroots 1
| 11> end
| 12>
| 13> # 	14648
| 14> * xyz 0 1
| 15> 		C   -1.177521  -0.343687   0.004787
| 16> 		O   -1.722242  -1.092073  -0.890684
| 17> 		C   -0.009291   0.494733  -0.244510
| 18> 		C    1.169122   0.055197   0.185202
| 19> 		H   -1.531908  -0.384215   1.151394
| 20> 		H   -0.140536   1.462700  -0.856083
| 21> 		H    1.254442  -0.890181   0.673411
| 22> 		H    2.063343   0.678203  -0.016855
| 23> *
| 24>
| 25>                          ****END OF INPUT****

CARTESIAN COORDINATES (ANGSTROEM)
---------------------------------
  C     -1.177521   -0.343687    0.004787
  O     -1.722242   -1.092073   -0.890684
  C     -0.009291    0.494733   -0.244510
  C      1.169122    0.055197    0.185202
  H     -1.531908   -0.384215    1.151394
  H     -0.140536    1.462700   -0.856083
  H      1.254442   -0.890181    0.673411
  H      2.063343    0.678203   -0.016855

 Total Charge           Charge          ....    0
 Multiplicity           Mult            ....    1
 Number of Electrons    NEL             ....   30
 Basis Dimension        Dim             ....   76

ORBITAL ENERGIES
----------------

  NO   OCC          E(Eh)            E(eV)
   0   2.0000     -19.148627      -521.0606
   1   2.0000     -10.294005      -280.1141
   2   2.0000     -10.216023      -277.9921
   3   2.0000     -10.208610      -277.7904
   4   2.0000      -1.011828       -27.5332
   5   2.0000      -0.806355       -21.9420
   6   2.0000      -0.651678       -17.7331
   7   2.0000      -0.553444       -15.0600
   8   2.0000      -0.483200       -13.1485
   9   2.0000      -0.457390       -12.4462
  10   2.0000      -0.432029       -11.7561
  11   2.0000      -0.391515       -10.6537
  12   2.0000      -0.356293        -9.6952
  13   2.0000      -0.289269        -7.8714
  14   2.0000      -0.258395        -7.0313
  15   0.0000      -0.058984        -1.6050
  16   0.0000      -0.007714        -0.2099
  17   0.0000       0.072385         1.9697
  18   0.0000       0.081745         2.2244
  19   0.0000       0.097068         2.6413

MULLIKEN ATOMIC CHARGES
-----------------------
   0 C :    0.147023
   1 O :   -0.232441
   2 C :   -0.083150
   3 C :    0.047717
   4 H :    0.023073
   5 H :    0.042055
   6 H :    0.018754
   7 H :    0.036968
Sum of atomic charges:    0.0000000

LOEWDIN ATOMIC CHARGES
----------------------
   0 C :    0.013948
   1 O :   -0.059529
   2 C :   -0.065467
   3 C :   -0.018894
   4 H :    0.013464
   5 H :    0.053785
   6 H :    0.024354
   7 H :    0.038340

  Mayer bond orders larger than 0.100000
B(  0-C ,  1-O ) :   2.1441 B(  0-C ,  2-C ) :   1.0036 B(  0-C ,  4-H ) :   0.9027
B(  2-C ,  3-C ) :   2.0214 B(  2-C ,  5-H ) :   0.9312 B(  3-C ,  6-H ) :   0.9436
B(  3-C ,  7-H ) :   0.9422

-----------------------------------------------------------------------------
         ABSORPTION SPECTRUM VIA TRANSITION ELECTRIC DIPOLE MOMENTS
-----------------------------------------------------------------------------
State   Energy    Wavelength  fosc         T2        TX        TY        TZ
        (cm-1)      (nm)                 (au**2)    (au)      (au)      (au)
-----------------------------------------------------------------------------
   1   28831.7    346.8   0.000254538   0.00291   0.04688   0.00579   0.02598

FINAL SINGLE POINT ENERGY      -191.651864584771

DIPOLE MOMENT
-------------
                                X             Y             Z
Electronic contribution:     -2.62040      -1.10155      -1.25348
Nuclear contribution   :      3.27261       1.74575       1.81698
                        -----------------------------------------
Total Dipole Moment    :      0.65221       0.64420       0.56350
                        -----------------------------------------
Magnitude (a.u.)       :      1.07606
Magnitude (Debye)      :      2.73512

Rotational constants in cm-1:     0.964998     0.164006     0.159404
Rotational constants in MHz : 28929.905058  4916.771775  4778.809336

                             ****ORCA TERMINATED NORMALLY****
TOTAL RUN TIME: 0 days 0 hours 3 minutes 19 seconds 420 msec
