                         Program Version 5.0.3 -  RELEASE  -
|  1> ! HF-3c
|  2> !TightSCF
|  3> %scf
|  4>  ConvForced true
|  5>  convergence tight
|  6>  MaxIter 500
|  7> end
|  8>
|  9> %tddft
| 10>  nroots 1
| 11> end
| 12>
| 13> # 	13739
| 14> * xyz 0 1
| 15> 		C   -1.171285  -0.263768  -0.059297
| 16> 		O   -2.200823  -0.275039  -0.790346
| 17> 		C    0.181337   0.365487  -0.468558
| 18> 		C    1.125039   0.250052   0.367041
| 19> 		H   -1.244012  -0.969110   1.036347
| 20> 		H    0.144965   0.852640  -1.271659
| 21> 		H    1.129824  -0.663570   1.168740
| 22> 		H    2.024802   0.663978   0.073727
| 23> *
| 24>
| 25>                          ****END OF INPUT****

CARTESIAN COORDINATES (ANGSTROEM)
---------------------------------
  C     -1.171285   -0.263768   -0.059297
  O     -2.200823   -0.275039   -0.790346
  C      0.181337    0.365487   -0.468558
  C      1.125039    0.250052    0.367041
  H     -1.244012   -0.969110    1.036347
  H      0.144965    0.852640   -1.271659
  H      1.129824   -0.663570    1.168740
  H      2.024802    0.663978    0.073727

 Total Charge           Charge          ....    0
 Multiplicity           Mult            ....    1
 Number of Electrons    NEL             ....   30
 Basis Dimension        Dim             ....   24

ORBITAL ENERGIES
----------------

  NO   OCC          E(Eh)            E(eV)
   0   2.0000     -20.343688      -553.5799
   1   2.0000     -11.274097      -306.7838
   2   2.0000     -11.208467      -304.9979
   3   2.0000     -11.202326      -304.8308
   4   2.0000      -1.355416       -36.8828
   5   2.0000      -1.115205       -30.3463
   6   2.0000      -0.862585       -23.4721
   7   2.0000      -0.776996       -21.1431
   8   2.0000      -0.666231       -18.1291
   9   2.0000      -0.630817       -17.1654
  10   2.0000      -0.570090       -15.5129
  11   2.0000      -0.533382       -14.5141
  12   2.0000      -0.514659       -14.0046
  13   2.0000      -0.414765       -11.2863
  14   2.0000      -0.393676       -10.7125
  15   0.0000       0.138593         3.7713
  16   0.0000       0.286521         7.7966
  17   0.0000       0.430389        11.7115
  18   0.0000       0.500480        13.6187
  19   0.0000       0.619702        16.8629

MULLIKEN ATOMIC CHARGES
-----------------------
   0 C :    0.185119
   1 O :   -0.356802
   2 C :   -0.197966
   3 C :   -0.225135
   4 H :    0.129912
   5 H :    0.157849
   6 H :    0.160083
   7 H :    0.146939
Sum of atomic charges:    0.0000000

LOEWDIN ATOMIC CHARGES
----------------------
   0 C :    0.153975
   1 O :   -0.274740
   2 C :   -0.130402
   3 C :   -0.132251
   4 H :    0.085311
   5 H :    0.089428
   6 H :    0.117617
   7 H :    0.091063

  Mayer bond orders larger than 0.100000
B(  0-C ,  1-O ) :   1.9221 B(  0-C ,  2-C ) :   0.9903 B(  0-C ,  4-H ) :   0.9085
B(  2-C ,  3-C ) :   1.9745 B(  2-C ,  5-H ) :   0.9568 B(  3-C ,  6-H ) :   0.9511
B(  3-C ,  7-H ) :   0.9601

-----------------------------------------------------------------------------
         ABSORPTION SPECTRUM VIA TRANSITION ELECTRIC DIPOLE MOMENTS
-----------------------------------------------------------------------------
State   Energy    Wavelength  fosc         T2        TX        TY        TZ
        (cm-1)      (nm)                 (au**2)    (au)      (au)      (au)
-----------------------------------------------------------------------------
   1   30930.8    323.3   0.000161437   0.00172   0.02518   0.02977  -0.01407

Dispersion correction           -0.025535095
FINAL SINGLE POINT ENERGY      -189.275959331352

DIPOLE MOMENT
-------------
                                X             Y             Z
Electronic contribution:     -2.96431      -0.02267      -1.16422
Nuclear contribution   :      4.01384      -0.09332       1.84450
                        -----------------------------------------
Total Dipole Moment    :      1.04954      -0.11599       0.68028
                        -----------------------------------------
Magnitude (a.u.)       :      1.25609
Magnitude (Debye)      :      3.19273

Rotational constants in cm-1:     1.429093     0.154239     0.139597
Rotational constants in MHz : 42843.144689  4623.977489  4185.006871

                             ****ORCA TERMINATED NORMALLY****
TOTAL RUN TIME: 0 days 0 hours 0 minutes 15 seconds 876 msec
