                         Program Version 5.0.3 -  RELEASE  -
|  1> ! HF-3c
|  2> !TightSCF
|  3> %scf
|  4>  ConvForced true
|  5>  convergence tight
|  6>  MaxIter 500
|  7> end
|  8>
|  9> %tddft
| 10>  nroots 1
| 11> end
| 12>
| 13> # 	10254
| 14> * xyz 0 1
| 15> 		C   -1.193514  -0.231678   0.009929
| 16> 		O   -1.789124  -0.883645   0.872347
| 17> 		C    0.066294   0.497945   0.325463
| 18> 		C    1.165387   0.066096  -0.210794
| 19> 		H   -1.438621  -0.447553  -1.068381
| 20> 		H    0.025702   1.335475   1.018458
| 21> 		H    1.193064  -0.878959  -0.763707
| 22> 		H    1.976375   0.470511  -0.186131
| 23> *
| 24>
| 25>                          ****END OF INPUT****

CARTESIAN COORDINATES (ANGSTROEM)
---------------------------------
  C     -1.193514   -0.231678    0.009929
  O     -1.789124   -0.883645    0.872347
  C      0.066294    0.497945    0.325463
  C      1.165387    0.066096   -0.210794
  H     -1.438621   -0.447553   -1.068381
  H      0.025702    1.335475    1.018458
  H      1.193064   -0.878959   -0.763707
  H      1.976375    0.470511   -0.186131

 Total Charge           Charge          ....    0
 Multiplicity           Mult            ....    1
 Number of Electrons    NEL             ....   30
 Basis Dimension        Dim             ....   24

ORBITAL ENERGIES
----------------

  NO   OCC          E(Eh)            E(eV)
   0   2.0000     -20.371110      -554.3261
   1   2.0000     -11.295570      -307.3681
   2   2.0000     -11.209391      -305.0230
   3   2.0000     -11.193988      -304.6039
   4   2.0000      -1.392818       -37.9005
   5   2.0000      -1.106397       -30.1066
   6   2.0000      -0.898332       -24.4449
   7   2.0000      -0.783605       -21.3230
   8   2.0000      -0.688606       -18.7379
   9   2.0000      -0.673197       -18.3186
  10   2.0000      -0.598128       -16.2759
  11   2.0000      -0.558006       -15.1841
  12   2.0000      -0.508490       -13.8367
  13   2.0000      -0.423991       -11.5374
  14   2.0000      -0.411379       -11.1942
  15   0.0000       0.151012         4.1092
  16   0.0000       0.244459         6.6521
  17   0.0000       0.549087        14.9414
  18   0.0000       0.596243        16.2246
  19   0.0000       0.703987        19.1565

MULLIKEN ATOMIC CHARGES
-----------------------
   0 C :    0.162355
   1 O :   -0.334859
   2 C :   -0.147396
   3 C :   -0.278429
   4 H :    0.146658
   5 H :    0.162840
   6 H :    0.148201
   7 H :    0.140631
Sum of atomic charges:   -0.0000000

LOEWDIN ATOMIC CHARGES
----------------------
   0 C :    0.146188
   1 O :   -0.246244
   2 C :   -0.093729
   3 C :   -0.173445
   4 H :    0.084477
   5 H :    0.106883
   6 H :    0.098555
   7 H :    0.077315

  Mayer bond orders larger than 0.100000
B(  0-C ,  1-O ) :   1.9375 B(  0-C ,  2-C ) :   0.9955 B(  0-C ,  4-H ) :   0.9229
B(  2-C ,  3-C ) :   1.9917 B(  2-C ,  5-H ) :   0.9486 B(  3-C ,  6-H ) :   0.9610
B(  3-C ,  7-H ) :   0.9682

-----------------------------------------------------------------------------
         ABSORPTION SPECTRUM VIA TRANSITION ELECTRIC DIPOLE MOMENTS
-----------------------------------------------------------------------------
State   Energy    Wavelength  fosc         T2        TX        TY        TZ
        (cm-1)      (nm)                 (au**2)    (au)      (au)      (au)
-----------------------------------------------------------------------------
   1   31725.4    315.2   0.000179017   0.00186   0.01002   0.01162   0.04028

Dispersion correction           -0.025756003
FINAL SINGLE POINT ENERGY      -189.300814837821

DIPOLE MOMENT
-------------
                                X             Y             Z
Electronic contribution:     -2.88463      -0.66251       1.25012
Nuclear contribution   :      3.39522       1.08606      -1.89578
                        -----------------------------------------
Total Dipole Moment    :      0.51059       0.42355      -0.64566
                        -----------------------------------------
Magnitude (a.u.)       :      0.92573
Magnitude (Debye)      :      2.35302

Rotational constants in cm-1:     1.082867     0.167237     0.161726
Rotational constants in MHz : 32463.546813  5013.639187  4848.427967

                             ****ORCA TERMINATED NORMALLY****
TOTAL RUN TIME: 0 days 0 hours 0 minutes 10 seconds 777 msec
