                         Program Version 5.0.3 -  RELEASE  -
|  1> ! B3LYP cc-pVDZ
|  2> !TightSCF
|  3> %scf
|  4>  ConvForced true
|  5>  convergence tight
|  6>  MaxIter 500
|  7> end
|  8>
|  9> %tddft
| 10>  nroots 1
| 11> end
| 12>
| 13> # 	11577
| 14> * xyz 0 1
| 15> 		C   -1.219928  -0.299700   0.017185
| 16> 		O   -2.068528  -0.404879  -0.981632
| 17> 		C    0.031148   0.468219  -0.326826
| 18> 		C    1.198413   0.137890   0.264778
| 19> 		H   -1.328940  -0.823347   1.009771
| 20> 		H   -0.098835   0.957472  -1.118121
| 21> 		H    1.269706  -0.603397   1.067377
| 22> 		H    2.182290   0.606594   0.066643
| 23> *
| 24>
| 25>                          ****END OF INPUT****

CARTESIAN COORDINATES (ANGSTROEM)
---------------------------------
  C     -1.219928   -0.299700    0.017185
  O     -2.068528   -0.404879   -0.981632
  C      0.031148    0.468219   -0.326826
  C      1.198413    0.137890    0.264778
  H     -1.328940   -0.823347    1.009771
  H     -0.098835    0.957472   -1.118121
  H      1.269706   -0.603397    1.067377
  H      2.182290    0.606594    0.066643

 Total Charge           Charge          ....    0
 Multiplicity           Mult            ....    1
 Number of Electrons    NEL             ....   30
 Basis Dimension        Dim             ....   76

ORBITAL ENERGIES
----------------

  NO   OCC          E(Eh)            E(eV)
   0   2.0000     -19.141157      -520.8574
   1   2.0000     -10.287604      -279.9399
   2   2.0000     -10.222451      -278.1670
   3   2.0000     -10.203732      -277.6577
   4   2.0000      -0.995567       -27.0908
   5   2.0000      -0.800474       -21.7820
   6   2.0000      -0.649592       -17.6763
   7   2.0000      -0.591676       -16.1003
   8   2.0000      -0.478521       -13.0212
   9   2.0000      -0.469160       -12.7665
  10   2.0000      -0.415147       -11.2967
  11   2.0000      -0.387475       -10.5437
  12   2.0000      -0.370177       -10.0730
  13   2.0000      -0.287501        -7.8233
  14   2.0000      -0.254950        -6.9375
  15   0.0000      -0.075956        -2.0669
  16   0.0000       0.020725         0.5640
  17   0.0000       0.070046         1.9061
  18   0.0000       0.091357         2.4860
  19   0.0000       0.110707         3.0125

MULLIKEN ATOMIC CHARGES
-----------------------
   0 C :    0.152839
   1 O :   -0.269526
   2 C :    0.080269
   3 C :    0.016559
   4 H :    0.017953
   5 H :   -0.071317
   6 H :    0.029883
   7 H :    0.043340
Sum of atomic charges:   -0.0000000

LOEWDIN ATOMIC CHARGES
----------------------
   0 C :    0.045509
   1 O :   -0.092569
   2 C :   -0.017292
   3 C :    0.004456
   4 H :    0.010849
   5 H :   -0.015663
   6 H :    0.029414
   7 H :    0.035296

  Mayer bond orders larger than 0.100000
B(  0-C ,  1-O ) :   2.0263 B(  0-C ,  2-C ) :   1.0950 B(  0-C ,  4-H ) :   0.9232
B(  2-C ,  3-C ) :   1.9090 B(  2-C ,  5-H ) :   0.9540 B(  3-C ,  6-H ) :   0.9482
B(  3-C ,  7-H ) :   0.9502

-----------------------------------------------------------------------------
         ABSORPTION SPECTRUM VIA TRANSITION ELECTRIC DIPOLE MOMENTS
-----------------------------------------------------------------------------
State   Energy    Wavelength  fosc         T2        TX        TY        TZ
        (cm-1)      (nm)                 (au**2)    (au)      (au)      (au)
-----------------------------------------------------------------------------
   1   25763.3    388.1   0.001217290   0.01555  -0.11907  -0.00233  -0.03705

FINAL SINGLE POINT ENERGY      -191.652486615660

DIPOLE MOMENT
-------------
                                X             Y             Z
Electronic contribution:     -2.96954      -0.17286      -1.24365
Nuclear contribution   :      3.94753       0.30153       1.96986
                        -----------------------------------------
Total Dipole Moment    :      0.97800       0.12867       0.72621
                        -----------------------------------------
Magnitude (a.u.)       :      1.22491
Magnitude (Debye)      :      3.11348

Rotational constants in cm-1:     1.313189     0.154309     0.142052
Rotational constants in MHz : 39368.430601  4626.055805  4258.604676

                             ****ORCA TERMINATED NORMALLY****
TOTAL RUN TIME: 0 days 0 hours 3 minutes 24 seconds 36 msec
