                         Program Version 5.0.3 -  RELEASE  -
|  1> ! B3LYP cc-pVDZ
|  2> !TightSCF
|  3> %scf
|  4>  ConvForced true
|  5>  convergence tight
|  6>  MaxIter 500
|  7> end
|  8>
|  9> %tddft
| 10>  nroots 1
| 11> end
| 12>
| 13> # 	27663
| 14> * xyz 0 1
| 15> 		C   -0.588421  -0.411265  -0.014656
| 16> 		O   -0.609671  -1.638093  -0.005013
| 17> 		C    0.628455   0.333387   0.032459
| 18> 		C    1.882539  -0.082014  -0.007251
| 19> 		H   -1.552648   0.093172   0.006109
| 20> 		H    0.523270   1.523306  -0.039689
| 21> 		H    2.077222  -1.159615   0.197655
| 22> 		H    2.698502   0.709655  -0.227051
| 23> *
| 24>
| 25>                          ****END OF INPUT****

CARTESIAN COORDINATES (ANGSTROEM)
---------------------------------
  C     -0.588421   -0.411265   -0.014656
  O     -0.609671   -1.638093   -0.005013
  C      0.628455    0.333387    0.032459
  C      1.882539   -0.082014   -0.007251
  H     -1.552648    0.093172    0.006109
  H      0.523270    1.523306   -0.039689
  H      2.077222   -1.159615    0.197655
  H      2.698502    0.709655   -0.227051

 Total Charge           Charge          ....    0
 Multiplicity           Mult            ....    1
 Number of Electrons    NEL             ....   30
 Basis Dimension        Dim             ....   76

ORBITAL ENERGIES
----------------

  NO   OCC          E(Eh)            E(eV)
   0   2.0000     -19.133987      -520.6623
   1   2.0000     -10.270983      -279.4877
   2   2.0000     -10.222950      -278.1806
   3   2.0000     -10.209108      -277.8039
   4   2.0000      -1.036679       -28.2095
   5   2.0000      -0.799018       -21.7424
   6   2.0000      -0.664568       -18.0838
   7   2.0000      -0.535122       -14.5614
   8   2.0000      -0.507233       -13.8025
   9   2.0000      -0.442122       -12.0308
  10   2.0000      -0.427521       -11.6334
  11   2.0000      -0.396742       -10.7959
  12   2.0000      -0.364357        -9.9147
  13   2.0000      -0.287740        -7.8298
  14   2.0000      -0.255063        -6.9406
  15   0.0000      -0.076559        -2.0833
  16   0.0000       0.045828         1.2471
  17   0.0000       0.069298         1.8857
  18   0.0000       0.086906         2.3648
  19   0.0000       0.118138         3.2147

MULLIKEN ATOMIC CHARGES
-----------------------
   0 C :    0.202261
   1 O :   -0.208300
   2 C :   -0.133196
   3 C :    0.052389
   4 H :   -0.020922
   5 H :    0.006629
   6 H :    0.044598
   7 H :    0.056540
Sum of atomic charges:    0.0000000

LOEWDIN ATOMIC CHARGES
----------------------
   0 C :   -0.037371
   1 O :   -0.019717
   2 C :   -0.095997
   3 C :    0.018513
   4 H :   -0.000412
   5 H :    0.041617
   6 H :    0.039599
   7 H :    0.053767

  Mayer bond orders larger than 0.100000
B(  0-C ,  1-O ) :   2.1643 B(  0-C ,  2-C ) :   1.0855 B(  0-C ,  4-H ) :   0.9283
B(  1-O ,  3-C ) :   0.1026 B(  2-C ,  3-C ) :   1.9666 B(  2-C ,  5-H ) :   0.9242
B(  3-C ,  6-H ) :   0.9284 B(  3-C ,  7-H ) :   0.9290

-----------------------------------------------------------------------------
         ABSORPTION SPECTRUM VIA TRANSITION ELECTRIC DIPOLE MOMENTS
-----------------------------------------------------------------------------
State   Energy    Wavelength  fosc         T2        TX        TY        TZ
        (cm-1)      (nm)                 (au**2)    (au)      (au)      (au)
-----------------------------------------------------------------------------
   1   26066.4    383.6   0.000156831   0.00198  -0.02527   0.00852   0.03563

FINAL SINGLE POINT ENERGY      -191.673344676204

DIPOLE MOMENT
-------------
                                X             Y             Z
Electronic contribution:     -1.92192      -1.97746       0.04471
Nuclear contribution   :      2.35564       2.88138      -0.05802
                        -----------------------------------------
Total Dipole Moment    :      0.43373       0.90391      -0.01331
                        -----------------------------------------
Magnitude (a.u.)       :      1.00267
Magnitude (Debye)      :      2.54860

Rotational constants in cm-1:     0.812204     0.201451     0.161752
Rotational constants in MHz : 24349.268169  6039.341634  4849.190220

                             ****ORCA TERMINATED NORMALLY****
TOTAL RUN TIME: 0 days 0 hours 3 minutes 20 seconds 582 msec
