                         Program Version 5.0.3 -  RELEASE  -
|  1> ! B3LYP cc-pVDZ
|  2> !TightSCF
|  3> %scf
|  4>  ConvForced true
|  5>  convergence tight
|  6>  MaxIter 500
|  7> end
|  8>
|  9> %tddft
| 10>  nroots 1
| 11> end
| 12>
| 13> # 	25511
| 14> * xyz 0 1
| 15> 		C   -0.626126  -0.504646   0.013943
| 16> 		O   -0.576574  -1.651151   0.010202
| 17> 		C    0.616085   0.489558  -0.044477
| 18> 		C    1.893707  -0.100877   0.002079
| 19> 		H   -1.400957   0.278067  -0.090423
| 20> 		H    0.300196   1.563751   0.237075
| 21> 		H    1.797627  -1.419427  -0.114660
| 22> 		H    2.950625   0.414632   0.167287
| 23> *
| 24>
| 25>                          ****END OF INPUT****

CARTESIAN COORDINATES (ANGSTROEM)
---------------------------------
  C     -0.626126   -0.504646    0.013943
  O     -0.576574   -1.651151    0.010202
  C      0.616085    0.489558   -0.044477
  C      1.893707   -0.100877    0.002079
  H     -1.400957    0.278067   -0.090423
  H      0.300196    1.563751    0.237075
  H      1.797627   -1.419427   -0.114660
  H      2.950625    0.414632    0.167287

 Total Charge           Charge          ....    0
 Multiplicity           Mult            ....    1
 Number of Electrons    NEL             ....   30
 Basis Dimension        Dim             ....   76

ORBITAL ENERGIES
----------------

  NO   OCC          E(Eh)            E(eV)
   0   2.0000     -19.156818      -521.2835
   1   2.0000     -10.283246      -279.8214
   2   2.0000     -10.241407      -278.6829
   3   2.0000     -10.211656      -277.8733
   4   2.0000      -1.093652       -29.7598
   5   2.0000      -0.759907       -20.6781
   6   2.0000      -0.640676       -17.4337
   7   2.0000      -0.523529       -14.2459
   8   2.0000      -0.487721       -13.2716
   9   2.0000      -0.456723       -12.4281
  10   2.0000      -0.425053       -11.5663
  11   2.0000      -0.416555       -11.3350
  12   2.0000      -0.353766        -9.6265
  13   2.0000      -0.275584        -7.4990
  14   2.0000      -0.255456        -6.9513
  15   0.0000      -0.064901        -1.7661
  16   0.0000       0.040921         1.1135
  17   0.0000       0.052272         1.4224
  18   0.0000       0.064071         1.7434
  19   0.0000       0.118925         3.2361

MULLIKEN ATOMIC CHARGES
-----------------------
   0 C :    0.191608
   1 O :   -0.124103
   2 C :   -0.163799
   3 C :   -0.064723
   4 H :   -0.014883
   5 H :    0.021013
   6 H :    0.084408
   7 H :    0.070479
Sum of atomic charges:   -0.0000000

LOEWDIN ATOMIC CHARGES
----------------------
   0 C :   -0.063104
   1 O :    0.075485
   2 C :   -0.118188
   3 C :   -0.030921
   4 H :   -0.009783
   5 H :    0.032394
   6 H :    0.067628
   7 H :    0.046489

  Mayer bond orders larger than 0.100000
B(  0-C ,  1-O ) :   2.2738 B(  0-C ,  2-C ) :   0.9798 B(  0-C ,  4-H ) :   0.9077
B(  2-C ,  3-C ) :   1.9186 B(  2-C ,  5-H ) :   0.9424 B(  3-C ,  6-H ) :   0.9069
B(  3-C ,  7-H ) :   0.9411

-----------------------------------------------------------------------------
         ABSORPTION SPECTRUM VIA TRANSITION ELECTRIC DIPOLE MOMENTS
-----------------------------------------------------------------------------
State   Energy    Wavelength  fosc         T2        TX        TY        TZ
        (cm-1)      (nm)                 (au**2)    (au)      (au)      (au)
-----------------------------------------------------------------------------
   1   29772.1    335.9   0.000746590   0.00826  -0.08590  -0.02107  -0.02083

FINAL SINGLE POINT ENERGY      -191.611125020701

DIPOLE MOMENT
-------------
                                X             Y             Z
Electronic contribution:     -2.04439      -1.86455      -0.09983
Nuclear contribution   :      2.26591       2.57296       0.18561
                        -----------------------------------------
Total Dipole Moment    :      0.22151       0.70841       0.08578
                        -----------------------------------------
Magnitude (a.u.)       :      0.74717
Magnitude (Debye)      :      1.89917

Rotational constants in cm-1:     0.699927     0.200214     0.156068
Rotational constants in MHz : 20983.273085  6002.264226  4678.801218

                             ****ORCA TERMINATED NORMALLY****
TOTAL RUN TIME: 0 days 0 hours 3 minutes 13 seconds 566 msec
