                         Program Version 5.0.3 -  RELEASE  -
|  1> ! HF-3c
|  2> !TightSCF
|  3> %scf
|  4>  ConvForced true
|  5>  convergence tight
|  6>  MaxIter 500
|  7> end
|  8>
|  9> %tddft
| 10>  nroots 1
| 11> end
| 12>
| 13> # 	5849
| 14> * xyz 0 1
| 15> 		C   -1.227701  -0.374058  -0.004912
| 16> 		O   -1.488334  -1.338743   0.651120
| 17> 		C   -0.013216   0.402351   0.247968
| 18> 		C    1.156658  -0.000397  -0.109067
| 19> 		H   -1.837132  -0.038257  -0.825118
| 20> 		H   -0.128088   1.484199   0.727722
| 21> 		H    1.403343  -0.814368  -0.714857
| 22> 		H    2.128643   0.640956  -0.010757
| 23> *
| 24>
| 25>                          ****END OF INPUT****

CARTESIAN COORDINATES (ANGSTROEM)
---------------------------------
  C     -1.227701   -0.374058   -0.004912
  O     -1.488334   -1.338743    0.651120
  C     -0.013216    0.402351    0.247968
  C      1.156658   -0.000397   -0.109067
  H     -1.837132   -0.038257   -0.825118
  H     -0.128088    1.484199    0.727722
  H      1.403343   -0.814368   -0.714857
  H      2.128643    0.640956   -0.010757

 Total Charge           Charge          ....    0
 Multiplicity           Mult            ....    1
 Number of Electrons    NEL             ....   30
 Basis Dimension        Dim             ....   24

ORBITAL ENERGIES
----------------

  NO   OCC          E(Eh)            E(eV)
   0   2.0000     -20.381819      -554.6175
   1   2.0000     -11.306851      -307.6751
   2   2.0000     -11.191646      -304.5402
   3   2.0000     -11.178565      -304.1842
   4   2.0000      -1.421143       -38.6713
   5   2.0000      -1.085783       -29.5456
   6   2.0000      -0.890423       -24.2296
   7   2.0000      -0.763801       -20.7841
   8   2.0000      -0.692706       -18.8495
   9   2.0000      -0.628634       -17.1060
  10   2.0000      -0.617925       -16.8146
  11   2.0000      -0.527386       -14.3509
  12   2.0000      -0.505377       -13.7520
  13   2.0000      -0.413400       -11.2492
  14   2.0000      -0.411318       -11.1925
  15   0.0000       0.184094         5.0095
  16   0.0000       0.240631         6.5479
  17   0.0000       0.512856        13.9555
  18   0.0000       0.587529        15.9875
  19   0.0000       0.683062        18.5871

MULLIKEN ATOMIC CHARGES
-----------------------
   0 C :    0.166214
   1 O :   -0.338577
   2 C :   -0.162173
   3 C :   -0.240620
   4 H :    0.142280
   5 H :    0.155912
   6 H :    0.137891
   7 H :    0.139074
Sum of atomic charges:    0.0000000

LOEWDIN ATOMIC CHARGES
----------------------
   0 C :    0.148967
   1 O :   -0.239016
   2 C :   -0.122657
   3 C :   -0.153095
   4 H :    0.075001
   5 H :    0.111085
   6 H :    0.084500
   7 H :    0.095216

  Mayer bond orders larger than 0.100000
B(  0-C ,  1-O ) :   1.9425 B(  0-C ,  2-C ) :   0.9950 B(  0-C ,  4-H ) :   0.9203
B(  2-C ,  3-C ) :   2.0047 B(  2-C ,  5-H ) :   0.9372 B(  3-C ,  6-H ) :   0.9648
B(  3-C ,  7-H ) :   0.9587

-----------------------------------------------------------------------------
         ABSORPTION SPECTRUM VIA TRANSITION ELECTRIC DIPOLE MOMENTS
-----------------------------------------------------------------------------
State   Energy    Wavelength  fosc         T2        TX        TY        TZ
        (cm-1)      (nm)                 (au**2)    (au)      (au)      (au)
-----------------------------------------------------------------------------
   1   35048.0    285.3   0.000049819   0.00047  -0.00893   0.01776   0.00853

Dispersion correction           -0.025283897
FINAL SINGLE POINT ENERGY      -189.306658804238

DIPOLE MOMENT
-------------
                                X             Y             Z
Electronic contribution:     -2.64275      -1.65344       0.97285
Nuclear contribution   :      3.00993       2.50467      -1.51494
                        -----------------------------------------
Total Dipole Moment    :      0.36718       0.85123      -0.54209
                        -----------------------------------------
Magnitude (a.u.)       :      1.07391
Magnitude (Debye)      :      2.72965

Rotational constants in cm-1:     0.923101     0.182910     0.166876
Rotational constants in MHz : 27673.872434  5483.511042  5002.816132

                             ****ORCA TERMINATED NORMALLY****
TOTAL RUN TIME: 0 days 0 hours 0 minutes 10 seconds 688 msec
