                         Program Version 5.0.3 -  RELEASE  -
|  1> ! B3LYP cc-pVDZ
|  2> !TightSCF
|  3> %scf
|  4>  ConvForced true
|  5>  convergence tight
|  6>  MaxIter 500
|  7> end
|  8>
|  9> %tddft
| 10>  nroots 1
| 11> end
| 12>
| 13> # 	20701
| 14> * xyz 0 1
| 15> 		C   -0.587418  -0.445172  -0.009848
| 16> 		O   -0.535269  -1.609557   0.024522
| 17> 		C    0.650758   0.465617  -0.020819
| 18> 		C    1.767044  -0.176152   0.020283
| 19> 		H   -1.579240   0.015601  -0.121650
| 20> 		H    0.555284   1.634239   0.121300
| 21> 		H    1.905383  -1.252141  -0.428847
| 22> 		H    2.783369   0.260068   0.187306
| 23> *
| 24>
| 25>                          ****END OF INPUT****

CARTESIAN COORDINATES (ANGSTROEM)
---------------------------------
  C     -0.587418   -0.445172   -0.009848
  O     -0.535269   -1.609557    0.024522
  C      0.650758    0.465617   -0.020819
  C      1.767044   -0.176152    0.020283
  H     -1.579240    0.015601   -0.121650
  H      0.555284    1.634239    0.121300
  H      1.905383   -1.252141   -0.428847
  H      2.783369    0.260068    0.187306

 Total Charge           Charge          ....    0
 Multiplicity           Mult            ....    1
 Number of Electrons    NEL             ....   30
 Basis Dimension        Dim             ....   76

ORBITAL ENERGIES
----------------

  NO   OCC          E(Eh)            E(eV)
   0   2.0000     -19.138390      -520.7821
   1   2.0000     -10.273493      -279.5560
   2   2.0000     -10.209585      -277.8169
   3   2.0000     -10.206765      -277.7402
   4   2.0000      -1.073499       -29.2114
   5   2.0000      -0.793777       -21.5998
   6   2.0000      -0.635222       -17.2853
   7   2.0000      -0.538589       -14.6557
   8   2.0000      -0.500341       -13.6150
   9   2.0000      -0.449669       -12.2361
  10   2.0000      -0.429435       -11.6855
  11   2.0000      -0.410762       -11.1774
  12   2.0000      -0.363378        -9.8880
  13   2.0000      -0.287580        -7.8255
  14   2.0000      -0.254518        -6.9258
  15   0.0000      -0.056780        -1.5451
  16   0.0000       0.056148         1.5279
  17   0.0000       0.063618         1.7311
  18   0.0000       0.089140         2.4256
  19   0.0000       0.111850         3.0436

MULLIKEN ATOMIC CHARGES
-----------------------
   0 C :    0.187471
   1 O :   -0.149243
   2 C :   -0.162097
   3 C :    0.042741
   4 H :   -0.031324
   5 H :    0.025101
   6 H :    0.058341
   7 H :    0.029010
Sum of atomic charges:    0.0000000

LOEWDIN ATOMIC CHARGES
----------------------
   0 C :   -0.048785
   1 O :    0.041365
   2 C :   -0.102240
   3 C :   -0.002907
   4 H :   -0.014072
   5 H :    0.044858
   6 H :    0.050978
   7 H :    0.030803

  Mayer bond orders larger than 0.100000
B(  0-C ,  1-O ) :   2.2528 B(  0-C ,  2-C ) :   0.9822 B(  0-C ,  4-H ) :   0.9235
B(  2-C ,  3-C ) :   1.9801 B(  2-C ,  5-H ) :   0.9372 B(  3-C ,  6-H ) :   0.9303
B(  3-C ,  7-H ) :   0.9456

-----------------------------------------------------------------------------
         ABSORPTION SPECTRUM VIA TRANSITION ELECTRIC DIPOLE MOMENTS
-----------------------------------------------------------------------------
State   Energy    Wavelength  fosc         T2        TX        TY        TZ
        (cm-1)      (nm)                 (au**2)    (au)      (au)      (au)
-----------------------------------------------------------------------------
   1   30590.4    326.9   0.000667888   0.00719   0.08098  -0.00816   0.02374

FINAL SINGLE POINT ENERGY      -191.642874628379

DIPOLE MOMENT
-------------
                                X             Y             Z
Electronic contribution:     -1.98442      -1.63084       0.17385
Nuclear contribution   :      2.28018       2.40490      -0.22817
                        -----------------------------------------
Total Dipole Moment    :      0.29576       0.77407      -0.05432
                        -----------------------------------------
Magnitude (a.u.)       :      0.83042
Magnitude (Debye)      :      2.11077

Rotational constants in cm-1:     0.737182     0.221098     0.171021
Rotational constants in MHz : 22100.166296  6628.340967  5127.092934

                             ****ORCA TERMINATED NORMALLY****
TOTAL RUN TIME: 0 days 0 hours 3 minutes 12 seconds 613 msec
