                         Program Version 5.0.3 -  RELEASE  -
|  1> ! B3LYP cc-pVDZ
|  2> !TightSCF
|  3> %scf
|  4>  ConvForced true
|  5>  convergence tight
|  6>  MaxIter 500
|  7> end
|  8>
|  9> %tddft
| 10>  nroots 1
| 11> end
| 12>
| 13> # 	13490
| 14> * xyz 0 1
| 15> 		C   -1.163932  -0.316872   0.004107
| 16> 		O   -1.581797  -1.111197  -0.887203
| 17> 		C    0.046804   0.502284  -0.221648
| 18> 		C    1.185258   0.005514   0.140198
| 19> 		H   -1.739866  -0.154556   0.958910
| 20> 		H   -0.104712   1.555636  -0.699857
| 21> 		H    1.242130  -1.063969   0.591942
| 22> 		H    2.144929   0.606335   0.105995
| 23> *
| 24>
| 25>                          ****END OF INPUT****

CARTESIAN COORDINATES (ANGSTROEM)
---------------------------------
  C     -1.163932   -0.316872    0.004107
  O     -1.581797   -1.111197   -0.887203
  C      0.046804    0.502284   -0.221648
  C      1.185258    0.005514    0.140198
  H     -1.739866   -0.154556    0.958910
  H     -0.104712    1.555636   -0.699857
  H      1.242130   -1.063969    0.591942
  H      2.144929    0.606335    0.105995

 Total Charge           Charge          ....    0
 Multiplicity           Mult            ....    1
 Number of Electrons    NEL             ....   30
 Basis Dimension        Dim             ....   76

ORBITAL ENERGIES
----------------

  NO   OCC          E(Eh)            E(eV)
   0   2.0000     -19.145691      -520.9807
   1   2.0000     -10.286832      -279.9189
   2   2.0000     -10.210680      -277.8467
   3   2.0000     -10.209443      -277.8131
   4   2.0000      -1.022685       -27.8287
   5   2.0000      -0.803704       -21.8699
   6   2.0000      -0.645991       -17.5783
   7   2.0000      -0.548292       -14.9198
   8   2.0000      -0.491105       -13.3636
   9   2.0000      -0.453881       -12.3507
  10   2.0000      -0.434434       -11.8215
  11   2.0000      -0.375398       -10.2151
  12   2.0000      -0.360092        -9.7986
  13   2.0000      -0.295221        -8.0334
  14   2.0000      -0.255037        -6.9399
  15   0.0000      -0.047854        -1.3022
  16   0.0000      -0.002676        -0.0728
  17   0.0000       0.070446         1.9169
  18   0.0000       0.081127         2.2076
  19   0.0000       0.093243         2.5373

MULLIKEN ATOMIC CHARGES
-----------------------
   0 C :    0.164919
   1 O :   -0.221944
   2 C :   -0.074801
   3 C :   -0.003585
   4 H :    0.014591
   5 H :    0.041397
   6 H :    0.040888
   7 H :    0.038536
Sum of atomic charges:    0.0000000

LOEWDIN ATOMIC CHARGES
----------------------
   0 C :    0.015854
   1 O :   -0.040079
   2 C :   -0.073531
   3 C :   -0.044513
   4 H :    0.005472
   5 H :    0.054705
   6 H :    0.043428
   7 H :    0.038663

  Mayer bond orders larger than 0.100000
B(  0-C ,  1-O ) :   2.1700 B(  0-C ,  2-C ) :   0.9906 B(  0-C ,  4-H ) :   0.9179
B(  2-C ,  3-C ) :   2.0369 B(  2-C ,  5-H ) :   0.9269 B(  3-C ,  6-H ) :   0.9358
B(  3-C ,  7-H ) :   0.9401

-----------------------------------------------------------------------------
         ABSORPTION SPECTRUM VIA TRANSITION ELECTRIC DIPOLE MOMENTS
-----------------------------------------------------------------------------
State   Energy    Wavelength  fosc         T2        TX        TY        TZ
        (cm-1)      (nm)                 (au**2)    (au)      (au)      (au)
-----------------------------------------------------------------------------
   1   29890.4    334.6   0.000084325   0.00093  -0.02837  -0.00565   0.00958

FINAL SINGLE POINT ENERGY      -191.647619516205

DIPOLE MOMENT
-------------
                                X             Y             Z
Electronic contribution:     -2.49641      -1.16236      -1.22230
Nuclear contribution   :      2.96489       1.84536       1.83617
                        -----------------------------------------
Total Dipole Moment    :      0.46848       0.68300       0.61386
                        -----------------------------------------
Magnitude (a.u.)       :      1.03092
Magnitude (Debye)      :      2.62039

Rotational constants in cm-1:     0.899054     0.174542     0.164505
Rotational constants in MHz : 26952.966526  5232.636997  4931.726003

                             ****ORCA TERMINATED NORMALLY****
TOTAL RUN TIME: 0 days 0 hours 2 minutes 56 seconds 422 msec
