                         Program Version 5.0.3 -  RELEASE  -
|  1> ! HF-3c
|  2> !TightSCF
|  3> %scf
|  4>  ConvForced true
|  5>  convergence tight
|  6>  MaxIter 500
|  7> end
|  8>
|  9> %tddft
| 10>  nroots 1
| 11> end
| 12>
| 13> # 	20790
| 14> * xyz 0 1
| 15> 		C   -0.561588  -0.416884  -0.008831
| 16> 		O   -0.605297  -1.623630   0.001659
| 17> 		C    0.604785   0.346838  -0.020134
| 18> 		C    1.863872  -0.092320   0.016986
| 19> 		H   -1.511459   0.144464   0.151621
| 20> 		H    0.409722   1.466061  -0.002902
| 21> 		H    2.118151  -1.246539  -0.081758
| 22> 		H    2.823410   0.616019   0.051052
| 23> *
| 24>
| 25>                          ****END OF INPUT****

CARTESIAN COORDINATES (ANGSTROEM)
---------------------------------
  C     -0.561588   -0.416884   -0.008831
  O     -0.605297   -1.623630    0.001659
  C      0.604785    0.346838   -0.020134
  C      1.863872   -0.092320    0.016986
  H     -1.511459    0.144464    0.151621
  H      0.409722    1.466061   -0.002902
  H      2.118151   -1.246539   -0.081758
  H      2.823410    0.616019    0.051052

 Total Charge           Charge          ....    0
 Multiplicity           Mult            ....    1
 Number of Electrons    NEL             ....   30
 Basis Dimension        Dim             ....   24

ORBITAL ENERGIES
----------------

  NO   OCC          E(Eh)            E(eV)
   0   2.0000     -20.351950      -553.8047
   1   2.0000     -11.291219      -307.2497
   2   2.0000     -11.194935      -304.6297
   3   2.0000     -11.182932      -304.3031
   4   2.0000      -1.397419       -38.0257
   5   2.0000      -1.076404       -29.2904
   6   2.0000      -0.895282       -24.3619
   7   2.0000      -0.727329       -19.7916
   8   2.0000      -0.692292       -18.8382
   9   2.0000      -0.610802       -16.6208
  10   2.0000      -0.575790       -15.6680
  11   2.0000      -0.545771       -14.8512
  12   2.0000      -0.499334       -13.5876
  13   2.0000      -0.410270       -11.1640
  14   2.0000      -0.384784       -10.4705
  15   0.0000       0.126532         3.4431
  16   0.0000       0.334383         9.0990
  17   0.0000       0.491845        13.3838
  18   0.0000       0.550353        14.9759
  19   0.0000       0.666555        18.1379

MULLIKEN ATOMIC CHARGES
-----------------------
   0 C :    0.152152
   1 O :   -0.356239
   2 C :   -0.198583
   3 C :   -0.174912
   4 H :    0.133796
   5 H :    0.139559
   6 H :    0.156226
   7 H :    0.148000
Sum of atomic charges:    0.0000000

LOEWDIN ATOMIC CHARGES
----------------------
   0 C :    0.135763
   1 O :   -0.263477
   2 C :   -0.160584
   3 C :   -0.089454
   4 H :    0.071395
   5 H :    0.092380
   6 H :    0.109568
   7 H :    0.104410

  Mayer bond orders larger than 0.100000
B(  0-C ,  1-O ) :   1.8736 B(  0-C ,  2-C ) :   1.0714 B(  0-C ,  4-H ) :   0.9244
B(  2-C ,  3-C ) :   1.9121 B(  2-C ,  5-H ) :   0.9530 B(  3-C ,  6-H ) :   0.9548
B(  3-C ,  7-H ) :   0.9598

-----------------------------------------------------------------------------
         ABSORPTION SPECTRUM VIA TRANSITION ELECTRIC DIPOLE MOMENTS
-----------------------------------------------------------------------------
State   Energy    Wavelength  fosc         T2        TX        TY        TZ
        (cm-1)      (nm)                 (au**2)    (au)      (au)      (au)
-----------------------------------------------------------------------------
   1   31397.7    318.5   0.000016574   0.00017   0.00139   0.00263   0.01284

Dispersion correction           -0.025480436
FINAL SINGLE POINT ENERGY      -189.324456970290

DIPOLE MOMENT
-------------
                                X             Y             Z
Electronic contribution:     -1.92063      -1.76254      -0.09290
Nuclear contribution   :      2.44489       2.70569       0.11063
                        -----------------------------------------
Total Dipole Moment    :      0.52425       0.94315       0.01773
                        -----------------------------------------
Magnitude (a.u.)       :      1.07921
Magnitude (Debye)      :      2.74312

Rotational constants in cm-1:     0.799997     0.206581     0.164318
Rotational constants in MHz : 23983.304228  6193.144757  4926.128080

                             ****ORCA TERMINATED NORMALLY****
TOTAL RUN TIME: 0 days 0 hours 0 minutes 10 seconds 966 msec
