                         Program Version 5.0.3 -  RELEASE  -
|  1> ! B3LYP cc-pVDZ
|  2> !TightSCF
|  3> %scf
|  4>  ConvForced true
|  5>  convergence tight
|  6>  MaxIter 500
|  7> end
|  8>
|  9> %tddft
| 10>  nroots 1
| 11> end
| 12>
| 13> # 	11634
| 14> * xyz 0 1
| 15> 		C   -1.173354  -0.429127  -0.031619
| 16> 		O   -2.127208  -0.619587   0.616305
| 17> 		C   -0.024439   0.427183   0.293761
| 18> 		C    1.200305   0.070816  -0.131335
| 19> 		H   -1.187025  -0.805562  -0.938847
| 20> 		H   -0.169872   1.318450   1.072570
| 21> 		H    1.325361  -0.812790  -0.902065
| 22> 		H    2.116910   0.866279   0.006135
| 23> *
| 24>
| 25>                          ****END OF INPUT****

CARTESIAN COORDINATES (ANGSTROEM)
---------------------------------
  C     -1.173354   -0.429127   -0.031619
  O     -2.127208   -0.619587    0.616305
  C     -0.024439    0.427183    0.293761
  C      1.200305    0.070816   -0.131335
  H     -1.187025   -0.805562   -0.938847
  H     -0.169872    1.318450    1.072570
  H      1.325361   -0.812790   -0.902065
  H      2.116910    0.866279    0.006135

 Total Charge           Charge          ....    0
 Multiplicity           Mult            ....    1
 Number of Electrons    NEL             ....   30
 Basis Dimension        Dim             ....   76

ORBITAL ENERGIES
----------------

  NO   OCC          E(Eh)            E(eV)
   0   2.0000     -19.133331      -520.6444
   1   2.0000     -10.258956      -279.1604
   2   2.0000     -10.233700      -278.4731
   3   2.0000     -10.214328      -277.9460
   4   2.0000      -1.068706       -29.0810
   5   2.0000      -0.797226       -21.6936
   6   2.0000      -0.641549       -17.4574
   7   2.0000      -0.571401       -15.5486
   8   2.0000      -0.481324       -13.0975
   9   2.0000      -0.458963       -12.4890
  10   2.0000      -0.429962       -11.6999
  11   2.0000      -0.394485       -10.7345
  12   2.0000      -0.375796       -10.2259
  13   2.0000      -0.292926        -7.9709
  14   2.0000      -0.251834        -6.8528
  15   0.0000      -0.060083        -1.6350
  16   0.0000       0.038014         1.0344
  17   0.0000       0.060219         1.6386
  18   0.0000       0.066085         1.7983
  19   0.0000       0.127109         3.4588

MULLIKEN ATOMIC CHARGES
-----------------------
   0 C :    0.242852
   1 O :   -0.165832
   2 C :   -0.115410
   3 C :   -0.051113
   4 H :   -0.069114
   5 H :    0.039938
   6 H :    0.052729
   7 H :    0.065949
Sum of atomic charges:    0.0000000

LOEWDIN ATOMIC CHARGES
----------------------
   0 C :   -0.059881
   1 O :    0.045650
   2 C :   -0.072517
   3 C :   -0.037006
   4 H :   -0.029517
   5 H :    0.052649
   6 H :    0.044163
   7 H :    0.056458

  Mayer bond orders larger than 0.100000
B(  0-C ,  1-O ) :   2.2322 B(  0-C ,  2-C ) :   1.0439 B(  0-C ,  4-H ) :   0.9354
B(  2-C ,  3-C ) :   1.9399 B(  2-C ,  5-H ) :   0.9308 B(  3-C ,  6-H ) :   0.9357
B(  3-C ,  7-H ) :   0.9339

-----------------------------------------------------------------------------
         ABSORPTION SPECTRUM VIA TRANSITION ELECTRIC DIPOLE MOMENTS
-----------------------------------------------------------------------------
State   Energy    Wavelength  fosc         T2        TX        TY        TZ
        (cm-1)      (nm)                 (au**2)    (au)      (au)      (au)
-----------------------------------------------------------------------------
   1   29581.1    338.1   0.000350415   0.00390   0.06106   0.00677   0.01119

FINAL SINGLE POINT ENERGY      -191.633209109483

DIPOLE MOMENT
-------------
                                X             Y             Z
Electronic contribution:     -3.18511      -0.82745       0.96063
Nuclear contribution   :      4.06873       1.09438      -1.42253
                        -----------------------------------------
Total Dipole Moment    :      0.88362       0.26693      -0.46190
                        -----------------------------------------
Magnitude (a.u.)       :      1.03218
Magnitude (Debye)      :      2.62358

Rotational constants in cm-1:     1.424554     0.157803     0.145795
Rotational constants in MHz : 42707.060758  4730.808612  4370.835613

                             ****ORCA TERMINATED NORMALLY****
TOTAL RUN TIME: 0 days 0 hours 3 minutes 23 seconds 509 msec
