                         Program Version 5.0.3 -  RELEASE  -
|  1> ! B3LYP cc-pVDZ
|  2> !TightSCF
|  3> %scf
|  4>  ConvForced true
|  5>  convergence tight
|  6>  MaxIter 500
|  7> end
|  8>
|  9> %tddft
| 10>  nroots 1
| 11> end
| 12>
| 13> # 	25105
| 14> * xyz 0 1
| 15> 		C   -0.548960  -0.435441  -0.014421
| 16> 		O   -0.610871  -1.632866   0.009417
| 17> 		C    0.620754   0.388508   0.002800
| 18> 		C    1.858428  -0.114809   0.039138
| 19> 		H   -1.364508   0.352943   0.018249
| 20> 		H    0.337727   1.304720  -0.109495
| 21> 		H    2.027412  -1.136410  -0.367776
| 22> 		H    2.628396   0.603478  -0.018798
| 23> *
| 24>
| 25>                          ****END OF INPUT****

CARTESIAN COORDINATES (ANGSTROEM)
---------------------------------
  C     -0.548960   -0.435441   -0.014421
  O     -0.610871   -1.632866    0.009417
  C      0.620754    0.388508    0.002800
  C      1.858428   -0.114809    0.039138
  H     -1.364508    0.352943    0.018249
  H      0.337727    1.304720   -0.109495
  H      2.027412   -1.136410   -0.367776
  H      2.628396    0.603478   -0.018798

 Total Charge           Charge          ....    0
 Multiplicity           Mult            ....    1
 Number of Electrons    NEL             ....   30
 Basis Dimension        Dim             ....   76

ORBITAL ENERGIES
----------------

  NO   OCC          E(Eh)            E(eV)
   0   2.0000     -19.140497      -520.8394
   1   2.0000     -10.267652      -279.3970
   2   2.0000     -10.214064      -277.9388
   3   2.0000     -10.188509      -277.2434
   4   2.0000      -1.051501       -28.6128
   5   2.0000      -0.811109       -22.0714
   6   2.0000      -0.680793       -18.5253
   7   2.0000      -0.538430       -14.6514
   8   2.0000      -0.513803       -13.9813
   9   2.0000      -0.454103       -12.3568
  10   2.0000      -0.420705       -11.4480
  11   2.0000      -0.407969       -11.1014
  12   2.0000      -0.390862       -10.6359
  13   2.0000      -0.288660        -7.8548
  14   2.0000      -0.253442        -6.8965
  15   0.0000      -0.080745        -2.1972
  16   0.0000       0.058928         1.6035
  17   0.0000       0.072393         1.9699
  18   0.0000       0.092972         2.5299
  19   0.0000       0.134135         3.6500

MULLIKEN ATOMIC CHARGES
-----------------------
   0 C :    0.152730
   1 O :   -0.178334
   2 C :   -0.022052
   3 C :    0.083374
   4 H :   -0.042949
   5 H :   -0.075600
   6 H :    0.056980
   7 H :    0.025851
Sum of atomic charges:    0.0000000

LOEWDIN ATOMIC CHARGES
----------------------
   0 C :   -0.057999
   1 O :    0.013596
   2 C :   -0.056879
   3 C :    0.041102
   4 H :   -0.009487
   5 H :   -0.004298
   6 H :    0.049351
   7 H :    0.024614

  Mayer bond orders larger than 0.100000
B(  0-C ,  1-O ) :   2.2208 B(  0-C ,  2-C ) :   1.1122 B(  0-C ,  4-H ) :   0.9035
B(  1-O ,  3-C ) :   0.1017 B(  2-C ,  3-C ) :   1.9237 B(  2-C ,  5-H ) :   0.9543
B(  3-C ,  6-H ) :   0.9378 B(  3-C ,  7-H ) :   0.9394

-----------------------------------------------------------------------------
         ABSORPTION SPECTRUM VIA TRANSITION ELECTRIC DIPOLE MOMENTS
-----------------------------------------------------------------------------
State   Energy    Wavelength  fosc         T2        TX        TY        TZ
        (cm-1)      (nm)                 (au**2)    (au)      (au)      (au)
-----------------------------------------------------------------------------
   1   25614.1    390.4   0.000146331   0.00188  -0.02598   0.01020  -0.03319

FINAL SINGLE POINT ENERGY      -191.653425773276

DIPOLE MOMENT
-------------
                                X             Y             Z
Electronic contribution:     -1.74392      -1.94407       0.31039
Nuclear contribution   :      2.24862       2.84095      -0.44811
                        -----------------------------------------
Total Dipole Moment    :      0.50470       0.89689      -0.13772
                        -----------------------------------------
Magnitude (a.u.)       :      1.03832
Magnitude (Debye)      :      2.63919

Rotational constants in cm-1:     0.799742     0.209815     0.166773
Rotational constants in MHz : 23975.655597  6290.109959  4999.742549

                             ****ORCA TERMINATED NORMALLY****
TOTAL RUN TIME: 0 days 0 hours 3 minutes 14 seconds 610 msec
