                         Program Version 5.0.3 -  RELEASE  -
|  1> ! B3LYP cc-pVDZ
|  2> !TightSCF
|  3> %scf
|  4>  ConvForced true
|  5>  convergence tight
|  6>  MaxIter 500
|  7> end
|  8>
|  9> %tddft
| 10>  nroots 1
| 11> end
| 12>
| 13> # 	13498
| 14> * xyz 0 1
| 15> 		C   -1.193270  -0.361137  -0.037141
| 16> 		O   -2.175023  -0.286896  -0.874340
| 17> 		C    0.074587   0.340001  -0.389458
| 18> 		C    1.138001   0.068883   0.246924
| 19> 		H   -1.243693  -1.058335   0.947241
| 20> 		H    0.122992   1.244147  -1.186835
| 21> 		H    1.202150  -0.669806   1.068542
| 22> 		H    2.040064   0.688649   0.198135
| 23> *
| 24>
| 25>                          ****END OF INPUT****

CARTESIAN COORDINATES (ANGSTROEM)
---------------------------------
  C     -1.193270   -0.361137   -0.037141
  O     -2.175023   -0.286896   -0.874340
  C      0.074587    0.340001   -0.389458
  C      1.138001    0.068883    0.246924
  H     -1.243693   -1.058335    0.947241
  H      0.122992    1.244147   -1.186835
  H      1.202150   -0.669806    1.068542
  H      2.040064    0.688649    0.198135

 Total Charge           Charge          ....    0
 Multiplicity           Mult            ....    1
 Number of Electrons    NEL             ....   30
 Basis Dimension        Dim             ....   76

ORBITAL ENERGIES
----------------

  NO   OCC          E(Eh)            E(eV)
   0   2.0000     -19.141510      -520.8670
   1   2.0000     -10.293309      -280.0952
   2   2.0000     -10.215382      -277.9747
   3   2.0000     -10.209134      -277.8047
   4   2.0000      -1.005227       -27.3536
   5   2.0000      -0.815653       -22.1950
   6   2.0000      -0.640475       -17.4282
   7   2.0000      -0.557428       -15.1684
   8   2.0000      -0.472424       -12.8553
   9   2.0000      -0.472309       -12.8522
  10   2.0000      -0.408740       -11.1224
  11   2.0000      -0.378974       -10.3124
  12   2.0000      -0.371015       -10.0958
  13   2.0000      -0.299467        -8.1489
  14   2.0000      -0.256318        -6.9748
  15   0.0000      -0.070321        -1.9135
  16   0.0000       0.037001         1.0068
  17   0.0000       0.054912         1.4942
  18   0.0000       0.069496         1.8911
  19   0.0000       0.102603         2.7920

MULLIKEN ATOMIC CHARGES
-----------------------
   0 C :    0.154612
   1 O :   -0.248263
   2 C :   -0.088450
   3 C :    0.061501
   4 H :    0.027351
   5 H :    0.042470
   6 H :    0.021509
   7 H :    0.029269
Sum of atomic charges:   -0.0000000

LOEWDIN ATOMIC CHARGES
----------------------
   0 C :    0.009989
   1 O :   -0.071949
   2 C :   -0.073898
   3 C :   -0.013595
   4 H :    0.020635
   5 H :    0.063262
   6 H :    0.030703
   7 H :    0.034853

  Mayer bond orders larger than 0.100000
B(  0-C ,  1-O ) :   2.0650 B(  0-C ,  2-C ) :   1.0551 B(  0-C ,  4-H ) :   0.9090
B(  2-C ,  3-C ) :   1.9565 B(  2-C ,  5-H ) :   0.9350 B(  3-C ,  6-H ) :   0.9409
B(  3-C ,  7-H ) :   0.9309

-----------------------------------------------------------------------------
         ABSORPTION SPECTRUM VIA TRANSITION ELECTRIC DIPOLE MOMENTS
-----------------------------------------------------------------------------
State   Energy    Wavelength  fosc         T2        TX        TY        TZ
        (cm-1)      (nm)                 (au**2)    (au)      (au)      (au)
-----------------------------------------------------------------------------
   1   26815.6    372.9   0.000298993   0.00367   0.04974  -0.03167   0.01392

FINAL SINGLE POINT ENERGY      -191.657608548895

DIPOLE MOMENT
-------------
                                X             Y             Z
Electronic contribution:     -3.08277      -0.33332      -1.33320
Nuclear contribution   :      4.13732       0.44381       1.96613
                        -----------------------------------------
Total Dipole Moment    :      1.05455       0.11049       0.63294
                        -----------------------------------------
Magnitude (a.u.)       :      1.23487
Magnitude (Debye)      :      3.13879

Rotational constants in cm-1:     1.374740     0.157607     0.142374
Rotational constants in MHz : 41213.674963  4724.932883  4268.253090

                             ****ORCA TERMINATED NORMALLY****
TOTAL RUN TIME: 0 days 0 hours 2 minutes 46 seconds 668 msec
