                         Program Version 5.0.3 -  RELEASE  -
|  1> ! HF-3c
|  2> !TightSCF
|  3> %scf
|  4>  ConvForced true
|  5>  convergence tight
|  6>  MaxIter 500
|  7> end
|  8>
|  9> %tddft
| 10>  nroots 1
| 11> end
| 12>
| 13> # 	14854
| 14> * xyz 0 1
| 15> 		C   -1.209036  -0.279215   0.120686
| 16> 		O   -1.748847  -0.884403   1.008184
| 17> 		C    0.015118   0.503890   0.244303
| 18> 		C    1.199450   0.102851  -0.246606
| 19> 		H   -1.594684  -0.538131  -1.019091
| 20> 		H    0.044542   1.462439   0.886932
| 21> 		H    1.249937  -0.813310  -0.799983
| 22> 		H    2.006499   0.511899  -0.149082
| 23> *
| 24>
| 25>                          ****END OF INPUT****

CARTESIAN COORDINATES (ANGSTROEM)
---------------------------------
  C     -1.209036   -0.279215    0.120686
  O     -1.748847   -0.884403    1.008184
  C      0.015118    0.503890    0.244303
  C      1.199450    0.102851   -0.246606
  H     -1.594684   -0.538131   -1.019091
  H      0.044542    1.462439    0.886932
  H      1.249937   -0.813310   -0.799983
  H      2.006499    0.511899   -0.149082

 Total Charge           Charge          ....    0
 Multiplicity           Mult            ....    1
 Number of Electrons    NEL             ....   30
 Basis Dimension        Dim             ....   24

ORBITAL ENERGIES
----------------

  NO   OCC          E(Eh)            E(eV)
   0   2.0000     -20.379126      -554.5442
   1   2.0000     -11.305821      -307.6470
   2   2.0000     -11.205977      -304.9301
   3   2.0000     -11.191518      -304.5367
   4   2.0000      -1.414683       -38.4955
   5   2.0000      -1.090494       -29.6739
   6   2.0000      -0.902671       -24.5629
   7   2.0000      -0.758806       -20.6482
   8   2.0000      -0.677910       -18.4469
   9   2.0000      -0.672092       -18.2886
  10   2.0000      -0.603095       -16.4110
  11   2.0000      -0.558105       -15.1868
  12   2.0000      -0.509753       -13.8711
  13   2.0000      -0.414220       -11.2715
  14   2.0000      -0.400320       -10.8933
  15   0.0000       0.156406         4.2560
  16   0.0000       0.232988         6.3399
  17   0.0000       0.503094        13.6899
  18   0.0000       0.592891        16.1334
  19   0.0000       0.651649        17.7323

MULLIKEN ATOMIC CHARGES
-----------------------
   0 C :    0.179778
   1 O :   -0.345554
   2 C :   -0.141616
   3 C :   -0.275040
   4 H :    0.136844
   5 H :    0.162059
   6 H :    0.143792
   7 H :    0.139737
Sum of atomic charges:    0.0000000

LOEWDIN ATOMIC CHARGES
----------------------
   0 C :    0.148767
   1 O :   -0.247196
   2 C :   -0.096870
   3 C :   -0.169821
   4 H :    0.082688
   5 H :    0.112395
   6 H :    0.093001
   7 H :    0.077037

  Mayer bond orders larger than 0.100000
B(  0-C ,  1-O ) :   1.9387 B(  0-C ,  2-C ) :   1.0084 B(  0-C ,  4-H ) :   0.9030
B(  2-C ,  3-C ) :   1.9781 B(  2-C ,  5-H ) :   0.9438 B(  3-C ,  6-H ) :   0.9651
B(  3-C ,  7-H ) :   0.9708

-----------------------------------------------------------------------------
         ABSORPTION SPECTRUM VIA TRANSITION ELECTRIC DIPOLE MOMENTS
-----------------------------------------------------------------------------
State   Energy    Wavelength  fosc         T2        TX        TY        TZ
        (cm-1)      (nm)                 (au**2)    (au)      (au)      (au)
-----------------------------------------------------------------------------
   1   34137.2    292.9   0.000143308   0.00138   0.01629   0.01114   0.03151

Dispersion correction           -0.025173621
FINAL SINGLE POINT ENERGY      -189.279913640150

DIPOLE MOMENT
-------------
                                X             Y             Z
Electronic contribution:     -2.84297      -0.75592       1.44819
Nuclear contribution   :      3.33514       1.21560      -2.10571
                        -----------------------------------------
Total Dipole Moment    :      0.49216       0.45969      -0.65752
                        -----------------------------------------
Magnitude (a.u.)       :      0.94121
Magnitude (Debye)      :      2.39236

Rotational constants in cm-1:     1.105583     0.161013     0.157007
Rotational constants in MHz : 33144.541062  4827.044691  4706.953828

                             ****ORCA TERMINATED NORMALLY****
TOTAL RUN TIME: 0 days 0 hours 0 minutes 16 seconds 10 msec
