                         Program Version 5.0.3 -  RELEASE  -
|  1> ! B3LYP cc-pVDZ
|  2> !TightSCF
|  3> %scf
|  4>  ConvForced true
|  5>  convergence tight
|  6>  MaxIter 500
|  7> end
|  8>
|  9> %tddft
| 10>  nroots 1
| 11> end
| 12>
| 13> # 	2675
| 14> * xyz 0 1
| 15> 		C   -1.258054  -0.413055   0.095959
| 16> 		O   -2.127841  -0.488314   0.810812
| 17> 		C   -0.018853   0.456852   0.200448
| 18> 		C    1.181814   0.133126  -0.313387
| 19> 		H   -1.126116  -1.042067  -0.682336
| 20> 		H   -0.135418   1.455625   0.979077
| 21> 		H    1.266473  -0.889962  -0.908584
| 22> 		H    2.179426   0.740550  -0.213243
| 23> *
| 24>
| 25>                          ****END OF INPUT****

CARTESIAN COORDINATES (ANGSTROEM)
---------------------------------
  C     -1.258054   -0.413055    0.095959
  O     -2.127841   -0.488314    0.810812
  C     -0.018853    0.456852    0.200448
  C      1.181814    0.133126   -0.313387
  H     -1.126116   -1.042067   -0.682336
  H     -0.135418    1.455625    0.979077
  H      1.266473   -0.889962   -0.908584
  H      2.179426    0.740550   -0.213243

 Total Charge           Charge          ....    0
 Multiplicity           Mult            ....    1
 Number of Electrons    NEL             ....   30
 Basis Dimension        Dim             ....   76

ORBITAL ENERGIES
----------------

  NO   OCC          E(Eh)            E(eV)
   0   2.0000     -19.143751      -520.9279
   1   2.0000     -10.267579      -279.3950
   2   2.0000     -10.231421      -278.4111
   3   2.0000     -10.217856      -278.0420
   4   2.0000      -1.099040       -29.9064
   5   2.0000      -0.787556       -21.4305
   6   2.0000      -0.642882       -17.4937
   7   2.0000      -0.562734       -15.3128
   8   2.0000      -0.478948       -13.0328
   9   2.0000      -0.463881       -12.6229
  10   2.0000      -0.436618       -11.8810
  11   2.0000      -0.421820       -11.4783
  12   2.0000      -0.362153        -9.8547
  13   2.0000      -0.291968        -7.9448
  14   2.0000      -0.256284        -6.9738
  15   0.0000      -0.053875        -1.4660
  16   0.0000       0.046377         1.2620
  17   0.0000       0.055393         1.5073
  18   0.0000       0.069820         1.8999
  19   0.0000       0.125971         3.4279

MULLIKEN ATOMIC CHARGES
-----------------------
   0 C :    0.241736
   1 O :   -0.118088
   2 C :   -0.169398
   3 C :   -0.028072
   4 H :   -0.075279
   5 H :    0.034249
   6 H :    0.047486
   7 H :    0.067365
Sum of atomic charges:   -0.0000000

LOEWDIN ATOMIC CHARGES
----------------------
   0 C :   -0.081676
   1 O :    0.094366
   2 C :   -0.084868
   3 C :   -0.037325
   4 H :   -0.031118
   5 H :    0.047413
   6 H :    0.042092
   7 H :    0.051117

  Mayer bond orders larger than 0.100000
B(  0-C ,  1-O ) :   2.2958 B(  0-C ,  2-C ) :   1.0129 B(  0-C ,  4-H ) :   0.9130
B(  2-C ,  3-C ) :   1.9479 B(  2-C ,  5-H ) :   0.9205 B(  3-C ,  6-H ) :   0.9276
B(  3-C ,  7-H ) :   0.9395

-----------------------------------------------------------------------------
         ABSORPTION SPECTRUM VIA TRANSITION ELECTRIC DIPOLE MOMENTS
-----------------------------------------------------------------------------
State   Energy    Wavelength  fosc         T2        TX        TY        TZ
        (cm-1)      (nm)                 (au**2)    (au)      (au)      (au)
-----------------------------------------------------------------------------
   1   32079.8    311.7   0.000186008   0.00191   0.03958   0.01752   0.00598

FINAL SINGLE POINT ENERGY      -191.617742140069

DIPOLE MOMENT
-------------
                                X             Y             Z
Electronic contribution:     -3.42016      -0.52763       1.10808
Nuclear contribution   :      4.23435       0.60490      -1.56422
                        -----------------------------------------
Total Dipole Moment    :      0.81419       0.07727      -0.45614
                        -----------------------------------------
Magnitude (a.u.)       :      0.93645
Magnitude (Debye)      :      2.38026

Rotational constants in cm-1:     1.496767     0.151882     0.140242
Rotational constants in MHz : 44871.939890  4553.301728  4204.359591

                             ****ORCA TERMINATED NORMALLY****
TOTAL RUN TIME: 0 days 0 hours 3 minutes 27 seconds 321 msec
