                         Program Version 5.0.3 -  RELEASE  -
|  1> ! HF-3c
|  2> !TightSCF
|  3> %scf
|  4>  ConvForced true
|  5>  convergence tight
|  6>  MaxIter 500
|  7> end
|  8>
|  9> %tddft
| 10>  nroots 1
| 11> end
| 12>
| 13> # 	4992
| 14> * xyz 0 1
| 15> 		C   -1.226014  -0.321251  -0.006094
| 16> 		O   -1.661932  -1.121740   0.881011
| 17> 		C    0.042892   0.451129   0.180627
| 18> 		C    1.216232  -0.066524  -0.125726
| 19> 		H   -1.821306  -0.158429  -0.929247
| 20> 		H   -0.059310   1.428251   0.711366
| 21> 		H    1.517354  -0.803403  -0.517945
| 22> 		H    1.974365   0.576470  -0.161971
| 23> *
| 24>
| 25>                          ****END OF INPUT****

CARTESIAN COORDINATES (ANGSTROEM)
---------------------------------
  C     -1.226014   -0.321251   -0.006094
  O     -1.661932   -1.121740    0.881011
  C      0.042892    0.451129    0.180627
  C      1.216232   -0.066524   -0.125726
  H     -1.821306   -0.158429   -0.929247
  H     -0.059310    1.428251    0.711366
  H      1.517354   -0.803403   -0.517945
  H      1.974365    0.576470   -0.161971

 Total Charge           Charge          ....    0
 Multiplicity           Mult            ....    1
 Number of Electrons    NEL             ....   30
 Basis Dimension        Dim             ....   24

ORBITAL ENERGIES
----------------

  NO   OCC          E(Eh)            E(eV)
   0   2.0000     -20.363184      -554.1104
   1   2.0000     -11.289917      -307.2143
   2   2.0000     -11.216755      -305.2234
   3   2.0000     -11.194399      -304.6151
   4   2.0000      -1.365230       -37.1498
   5   2.0000      -1.100386       -29.9430
   6   2.0000      -0.917628       -24.9699
   7   2.0000      -0.793340       -21.5879
   8   2.0000      -0.692933       -18.8557
   9   2.0000      -0.656948       -17.8765
  10   2.0000      -0.605544       -16.4777
  11   2.0000      -0.560869       -15.2620
  12   2.0000      -0.478276       -13.0146
  13   2.0000      -0.426958       -11.6181
  14   2.0000      -0.411177       -11.1887
  15   0.0000       0.170169         4.6305
  16   0.0000       0.192323         5.2334
  17   0.0000       0.557059        15.1584
  18   0.0000       0.597795        16.2668
  19   0.0000       0.699408        19.0319

MULLIKEN ATOMIC CHARGES
-----------------------
   0 C :    0.150487
   1 O :   -0.327970
   2 C :   -0.125800
   3 C :   -0.306991
   4 H :    0.148550
   5 H :    0.164708
   6 H :    0.146326
   7 H :    0.150690
Sum of atomic charges:    0.0000000

LOEWDIN ATOMIC CHARGES
----------------------
   0 C :    0.145455
   1 O :   -0.250718
   2 C :   -0.073793
   3 C :   -0.192349
   4 H :    0.086288
   5 H :    0.111353
   6 H :    0.080310
   7 H :    0.093454

  Mayer bond orders larger than 0.100000
B(  0-C ,  1-O ) :   1.9453 B(  0-C ,  2-C ) :   0.9958 B(  0-C ,  4-H ) :   0.9254
B(  2-C ,  3-C ) :   1.9948 B(  2-C ,  5-H ) :   0.9448 B(  3-C ,  6-H ) :   0.9688
B(  3-C ,  7-H ) :   0.9610

-----------------------------------------------------------------------------
         ABSORPTION SPECTRUM VIA TRANSITION ELECTRIC DIPOLE MOMENTS
-----------------------------------------------------------------------------
State   Energy    Wavelength  fosc         T2        TX        TY        TZ
        (cm-1)      (nm)                 (au**2)    (au)      (au)      (au)
-----------------------------------------------------------------------------
   1   30941.8    323.2   0.000028273   0.00030   0.01525   0.00584   0.00584

Dispersion correction           -0.025098257
FINAL SINGLE POINT ENERGY      -189.274066818605

DIPOLE MOMENT
-------------
                                X             Y             Z
Electronic contribution:     -2.78584      -1.28080       1.10710
Nuclear contribution   :      3.13786       2.04606      -1.75504
                        -----------------------------------------
Total Dipole Moment    :      0.35202       0.76526      -0.64794
                        -----------------------------------------
Magnitude (a.u.)       :      1.06272
Magnitude (Debye)      :      2.70122

Rotational constants in cm-1:     0.949010     0.167897     0.157947
Rotational constants in MHz : 28450.618038  5033.412772  4735.142771

                             ****ORCA TERMINATED NORMALLY****
TOTAL RUN TIME: 0 days 0 hours 0 minutes 11 seconds 861 msec
