                         Program Version 5.0.3 -  RELEASE  -
|  1> ! B3LYP cc-pVDZ
|  2> !TightSCF
|  3> %scf
|  4>  ConvForced true
|  5>  convergence tight
|  6>  MaxIter 500
|  7> end
|  8>
|  9> %tddft
| 10>  nroots 1
| 11> end
| 12>
| 13> # 	8682
| 14> * xyz 0 1
| 15> 		C   -1.198377  -0.380538   0.033378
| 16> 		O   -1.290628  -1.531282  -0.198306
| 17> 		C    0.005972   0.456660  -0.104823
| 18> 		C    1.255362   0.018435   0.038459
| 19> 		H   -2.149927   0.251353   0.174103
| 20> 		H   -0.122945   1.523863  -0.233684
| 21> 		H    1.431872  -0.971185   0.313059
| 22> 		H    2.072187   0.666818  -0.046246
| 23> *
| 24>
| 25>                          ****END OF INPUT****

CARTESIAN COORDINATES (ANGSTROEM)
---------------------------------
  C     -1.198377   -0.380538    0.033378
  O     -1.290628   -1.531282   -0.198306
  C      0.005972    0.456660   -0.104823
  C      1.255362    0.018435    0.038459
  H     -2.149927    0.251353    0.174103
  H     -0.122945    1.523863   -0.233684
  H      1.431872   -0.971185    0.313059
  H      2.072187    0.666818   -0.046246

 Total Charge           Charge          ....    0
 Multiplicity           Mult            ....    1
 Number of Electrons    NEL             ....   30
 Basis Dimension        Dim             ....   76

ORBITAL ENERGIES
----------------

  NO   OCC          E(Eh)            E(eV)
   0   2.0000     -19.140651      -520.8436
   1   2.0000     -10.275186      -279.6020
   2   2.0000     -10.203806      -277.6597
   3   2.0000     -10.201402      -277.5943
   4   2.0000      -1.066457       -29.0198
   5   2.0000      -0.799638       -21.7593
   6   2.0000      -0.660511       -17.9734
   7   2.0000      -0.543669       -14.7940
   8   2.0000      -0.513080       -13.9616
   9   2.0000      -0.451829       -12.2949
  10   2.0000      -0.435450       -11.8492
  11   2.0000      -0.406197       -11.0532
  12   2.0000      -0.388849       -10.5811
  13   2.0000      -0.290936        -7.9168
  14   2.0000      -0.254434        -6.9235
  15   0.0000      -0.063738        -1.7344
  16   0.0000       0.054733         1.4894
  17   0.0000       0.069726         1.8973
  18   0.0000       0.099875         2.7177
  19   0.0000       0.125635         3.4187

MULLIKEN ATOMIC CHARGES
-----------------------
   0 C :    0.167344
   1 O :   -0.155777
   2 C :   -0.123254
   3 C :    0.126083
   4 H :   -0.032747
   5 H :   -0.010064
   6 H :    0.011525
   7 H :    0.016890
Sum of atomic charges:    0.0000000

LOEWDIN ATOMIC CHARGES
----------------------
   0 C :   -0.062814
   1 O :    0.033423
   2 C :   -0.072619
   3 C :    0.038087
   4 H :   -0.010829
   5 H :    0.030308
   6 H :    0.020552
   7 H :    0.023891

  Mayer bond orders larger than 0.100000
B(  0-C ,  1-O ) :   2.2392 B(  0-C ,  2-C ) :   1.0396 B(  0-C ,  4-H ) :   0.8994
B(  2-C ,  3-C ) :   1.9902 B(  2-C ,  5-H ) :   0.9379 B(  3-C ,  6-H ) :   0.9418
B(  3-C ,  7-H ) :   0.9403

-----------------------------------------------------------------------------
         ABSORPTION SPECTRUM VIA TRANSITION ELECTRIC DIPOLE MOMENTS
-----------------------------------------------------------------------------
State   Energy    Wavelength  fosc         T2        TX        TY        TZ
        (cm-1)      (nm)                 (au**2)    (au)      (au)      (au)
-----------------------------------------------------------------------------
   1   29209.3    342.4   0.000426862   0.00481   0.06544  -0.00165   0.02293

FINAL SINGLE POINT ENERGY      -191.666722838393

DIPOLE MOMENT
-------------
                                X             Y             Z
Electronic contribution:     -1.89559      -1.99535      -0.25500
Nuclear contribution   :      2.38936       2.82765       0.41728
                        -----------------------------------------
Total Dipole Moment    :      0.49377       0.83229       0.16228
                        -----------------------------------------
Magnitude (a.u.)       :      0.98125
Magnitude (Debye)      :      2.49415

Rotational constants in cm-1:     0.850296     0.195387     0.160719
Rotational constants in MHz : 25491.247439  5857.558323  4818.223212

                             ****ORCA TERMINATED NORMALLY****
TOTAL RUN TIME: 0 days 0 hours 3 minutes 22 seconds 370 msec
