                         Program Version 5.0.3 -  RELEASE  -
|  1> ! B3LYP cc-pVDZ
|  2> !TightSCF
|  3> %scf
|  4>  ConvForced true
|  5>  convergence tight
|  6>  MaxIter 500
|  7> end
|  8>
|  9> %tddft
| 10>  nroots 1
| 11> end
| 12>
| 13> # 	11888
| 14> * xyz 0 1
| 15> 		C   -1.199607  -0.301176  -0.058224
| 16> 		O   -1.395170  -1.335408  -0.663769
| 17> 		C   -0.041812   0.515323  -0.159273
| 18> 		C    1.242451   0.064992   0.174789
| 19> 		H   -1.895876  -0.020071   0.652288
| 20> 		H   -0.113699   1.652407  -0.375532
| 21> 		H    1.336093  -1.135116   0.270436
| 22> 		H    2.099247   0.557560   0.092938
| 23> *
| 24>
| 25>                          ****END OF INPUT****

CARTESIAN COORDINATES (ANGSTROEM)
---------------------------------
  C     -1.199607   -0.301176   -0.058224
  O     -1.395170   -1.335408   -0.663769
  C     -0.041812    0.515323   -0.159273
  C      1.242451    0.064992    0.174789
  H     -1.895876   -0.020071    0.652288
  H     -0.113699    1.652407   -0.375532
  H      1.336093   -1.135116    0.270436
  H      2.099247    0.557560    0.092938

 Total Charge           Charge          ....    0
 Multiplicity           Mult            ....    1
 Number of Electrons    NEL             ....   30
 Basis Dimension        Dim             ....   76

ORBITAL ENERGIES
----------------

  NO   OCC          E(Eh)            E(eV)
   0   2.0000     -19.138661      -520.7894
   1   2.0000     -10.269998      -279.4609
   2   2.0000     -10.219102      -278.0759
   3   2.0000     -10.218526      -278.0602
   4   2.0000      -1.046461       -28.4757
   5   2.0000      -0.790797       -21.5187
   6   2.0000      -0.670740       -18.2518
   7   2.0000      -0.558453       -15.1963
   8   2.0000      -0.500649       -13.6233
   9   2.0000      -0.461812       -12.5665
  10   2.0000      -0.438550       -11.9336
  11   2.0000      -0.386102       -10.5064
  12   2.0000      -0.362838        -9.8733
  13   2.0000      -0.280282        -7.6269
  14   2.0000      -0.256976        -6.9927
  15   0.0000      -0.058377        -1.5885
  16   0.0000       0.000869         0.0236
  17   0.0000       0.078076         2.1245
  18   0.0000       0.082244         2.2380
  19   0.0000       0.113969         3.1012

MULLIKEN ATOMIC CHARGES
-----------------------
   0 C :    0.224245
   1 O :   -0.195745
   2 C :   -0.122202
   3 C :    0.030219
   4 H :   -0.027107
   5 H :    0.032833
   6 H :    0.054114
   7 H :    0.003643
Sum of atomic charges:    0.0000000

LOEWDIN ATOMIC CHARGES
----------------------
   0 C :   -0.034364
   1 O :    0.003883
   2 C :   -0.058911
   3 C :    0.004811
   4 H :   -0.010401
   5 H :    0.048756
   6 H :    0.051284
   7 H :   -0.005058

  Mayer bond orders larger than 0.100000
B(  0-C ,  1-O ) :   2.2034 B(  0-C ,  2-C ) :   1.0301 B(  0-C ,  4-H ) :   0.9316
B(  2-C ,  3-C ) :   1.9820 B(  2-C ,  5-H ) :   0.9295 B(  3-C ,  6-H ) :   0.9468
B(  3-C ,  7-H ) :   0.9533

-----------------------------------------------------------------------------
         ABSORPTION SPECTRUM VIA TRANSITION ELECTRIC DIPOLE MOMENTS
-----------------------------------------------------------------------------
State   Energy    Wavelength  fosc         T2        TX        TY        TZ
        (cm-1)      (nm)                 (au**2)    (au)      (au)      (au)
-----------------------------------------------------------------------------
   1   30155.5    331.6   0.000120794   0.00132   0.03441   0.01139  -0.00227

FINAL SINGLE POINT ENERGY      -191.632381132383

DIPOLE MOMENT
-------------
                                X             Y             Z
Electronic contribution:     -2.30109      -1.28520      -0.89126
Nuclear contribution   :      2.71957       2.10881       1.29549
                        -----------------------------------------
Total Dipole Moment    :      0.41848       0.82360       0.40423
                        -----------------------------------------
Magnitude (a.u.)       :      1.00839
Magnitude (Debye)      :      2.56312

Rotational constants in cm-1:     0.841218     0.186411     0.160809
Rotational constants in MHz : 25219.087840  5588.469516  4820.942199

                             ****ORCA TERMINATED NORMALLY****
TOTAL RUN TIME: 0 days 0 hours 2 minutes 55 seconds 120 msec
