                         Program Version 5.0.3 -  RELEASE  -
|  1> ! HF-3c
|  2> !TightSCF
|  3> %scf
|  4>  ConvForced true
|  5>  convergence tight
|  6>  MaxIter 500
|  7> end
|  8>
|  9> %tddft
| 10>  nroots 1
| 11> end
| 12>
| 13> # 	18624
| 14> * xyz 0 1
| 15> 		C   -1.186027  -0.308724  -0.007035
| 16> 		O   -1.393203  -1.422287  -0.464286
| 17> 		C   -0.051593   0.497125  -0.153653
| 18> 		C    1.157723   0.064505   0.077172
| 19> 		H   -1.984718   0.181413   0.581339
| 20> 		H   -0.040813   1.518559  -0.271014
| 21> 		H    1.301313  -0.952356   0.314110
| 22> 		H    2.248883   0.367468  -0.016371
| 23> *
| 24>
| 25>                          ****END OF INPUT****

CARTESIAN COORDINATES (ANGSTROEM)
---------------------------------
  C     -1.186027   -0.308724   -0.007035
  O     -1.393203   -1.422287   -0.464286
  C     -0.051593    0.497125   -0.153653
  C      1.157723    0.064505    0.077172
  H     -1.984718    0.181413    0.581339
  H     -0.040813    1.518559   -0.271014
  H      1.301313   -0.952356    0.314110
  H      2.248883    0.367468   -0.016371

 Total Charge           Charge          ....    0
 Multiplicity           Mult            ....    1
 Number of Electrons    NEL             ....   30
 Basis Dimension        Dim             ....   24

ORBITAL ENERGIES
----------------

  NO   OCC          E(Eh)            E(eV)
   0   2.0000     -20.369865      -554.2922
   1   2.0000     -11.302492      -307.5565
   2   2.0000     -11.200452      -304.7798
   3   2.0000     -11.192679      -304.5683
   4   2.0000      -1.397558       -38.0295
   5   2.0000      -1.108618       -30.1670
   6   2.0000      -0.909085       -24.7375
   7   2.0000      -0.773800       -21.0562
   8   2.0000      -0.715342       -19.4655
   9   2.0000      -0.638086       -17.3632
  10   2.0000      -0.608008       -16.5447
  11   2.0000      -0.524394       -14.2695
  12   2.0000      -0.513397       -13.9703
  13   2.0000      -0.424889       -11.5618
  14   2.0000      -0.403711       -10.9855
  15   0.0000       0.137416         3.7393
  16   0.0000       0.279797         7.6137
  17   0.0000       0.524943        14.2844
  18   0.0000       0.658576        17.9208
  19   0.0000       0.679935        18.5020

MULLIKEN ATOMIC CHARGES
-----------------------
   0 C :    0.164212
   1 O :   -0.338837
   2 C :   -0.211642
   3 C :   -0.203798
   4 H :    0.136967
   5 H :    0.159759
   6 H :    0.134571
   7 H :    0.158768
Sum of atomic charges:   -0.0000000

LOEWDIN ATOMIC CHARGES
----------------------
   0 C :    0.151147
   1 O :   -0.249833
   2 C :   -0.157371
   3 C :   -0.107520
   4 H :    0.073225
   5 H :    0.101094
   6 H :    0.080774
   7 H :    0.108485

  Mayer bond orders larger than 0.100000
B(  0-C ,  1-O ) :   1.9089 B(  0-C ,  2-C ) :   1.0453 B(  0-C ,  4-H ) :   0.9195
B(  2-C ,  3-C ) :   1.9442 B(  2-C ,  5-H ) :   0.9478 B(  3-C ,  6-H ) :   0.9662
B(  3-C ,  7-H ) :   0.9625

-----------------------------------------------------------------------------
         ABSORPTION SPECTRUM VIA TRANSITION ELECTRIC DIPOLE MOMENTS
-----------------------------------------------------------------------------
State   Energy    Wavelength  fosc         T2        TX        TY        TZ
        (cm-1)      (nm)                 (au**2)    (au)      (au)      (au)
-----------------------------------------------------------------------------
   1   32525.7    307.4   0.000252638   0.00256  -0.04991  -0.00256  -0.00770

Dispersion correction           -0.025883498
FINAL SINGLE POINT ENERGY      -189.306357955007

DIPOLE MOMENT
-------------
                                X             Y             Z
Electronic contribution:     -2.30978      -1.44120      -0.67662
Nuclear contribution   :      2.86889       2.27459       1.08899
                        -----------------------------------------
Total Dipole Moment    :      0.55911       0.83339       0.41237
                        -----------------------------------------
Magnitude (a.u.)       :      1.08498
Magnitude (Debye)      :      2.75781

Rotational constants in cm-1:     0.881842     0.195729     0.165843
Rotational constants in MHz : 26436.948290  5867.795699  4971.854112

                             ****ORCA TERMINATED NORMALLY****
TOTAL RUN TIME: 0 days 0 hours 0 minutes 15 seconds 797 msec
