                         Program Version 5.0.3 -  RELEASE  -
|  1> ! HF-3c
|  2> !TightSCF
|  3> %scf
|  4>  ConvForced true
|  5>  convergence tight
|  6>  MaxIter 500
|  7> end
|  8>
|  9> %tddft
| 10>  nroots 1
| 11> end
| 12>
| 13> # 	21362
| 14> * xyz 0 1
| 15> 		C   -0.608674  -0.400334  -0.014225
| 16> 		O   -0.542009  -1.613410  -0.004030
| 17> 		C    0.645995   0.425237   0.043591
| 18> 		C    1.808931  -0.158027   0.003233
| 19> 		H   -1.559239  -0.092945   0.026850
| 20> 		H    0.426216   1.436748  -0.225300
| 21> 		H    1.898374  -1.336633  -0.017020
| 22> 		H    2.787943   0.426948  -0.125506
| 23> *
| 24>
| 25>                          ****END OF INPUT****

CARTESIAN COORDINATES (ANGSTROEM)
---------------------------------
  C     -0.608674   -0.400334   -0.014225
  O     -0.542009   -1.613410   -0.004030
  C      0.645995    0.425237    0.043591
  C      1.808931   -0.158027    0.003233
  H     -1.559239   -0.092945    0.026850
  H      0.426216    1.436748   -0.225300
  H      1.898374   -1.336633   -0.017020
  H      2.787943    0.426948   -0.125506

 Total Charge           Charge          ....    0
 Multiplicity           Mult            ....    1
 Number of Electrons    NEL             ....   30
 Basis Dimension        Dim             ....   24

ORBITAL ENERGIES
----------------

  NO   OCC          E(Eh)            E(eV)
   0   2.0000     -20.353016      -553.8337
   1   2.0000     -11.287405      -307.1459
   2   2.0000     -11.190683      -304.5140
   3   2.0000     -11.186815      -304.4087
   4   2.0000      -1.399583       -38.0846
   5   2.0000      -1.077111       -29.3097
   6   2.0000      -0.885519       -24.0962
   7   2.0000      -0.761875       -20.7317
   8   2.0000      -0.699481       -19.0338
   9   2.0000      -0.614257       -16.7148
  10   2.0000      -0.586811       -15.9679
  11   2.0000      -0.538436       -14.6516
  12   2.0000      -0.508787       -13.8448
  13   2.0000      -0.416020       -11.3205
  14   2.0000      -0.397055       -10.8044
  15   0.0000       0.141891         3.8610
  16   0.0000       0.304656         8.2901
  17   0.0000       0.494395        13.4532
  18   0.0000       0.574223        15.6254
  19   0.0000       0.670317        18.2402

MULLIKEN ATOMIC CHARGES
-----------------------
   0 C :    0.136070
   1 O :   -0.350582
   2 C :   -0.190654
   3 C :   -0.199104
   4 H :    0.146326
   5 H :    0.143831
   6 H :    0.167231
   7 H :    0.146882
Sum of atomic charges:   -0.0000000

LOEWDIN ATOMIC CHARGES
----------------------
   0 C :    0.129773
   1 O :   -0.258961
   2 C :   -0.144073
   3 C :   -0.110659
   4 H :    0.073598
   5 H :    0.090826
   6 H :    0.118989
   7 H :    0.100507

  Mayer bond orders larger than 0.100000
B(  0-C ,  1-O ) :   1.9037 B(  0-C ,  2-C ) :   1.0112 B(  0-C ,  4-H ) :   0.9441
B(  2-C ,  3-C ) :   1.9615 B(  2-C ,  5-H ) :   0.9573 B(  3-C ,  6-H ) :   0.9488
B(  3-C ,  7-H ) :   0.9596

-----------------------------------------------------------------------------
         ABSORPTION SPECTRUM VIA TRANSITION ELECTRIC DIPOLE MOMENTS
-----------------------------------------------------------------------------
State   Energy    Wavelength  fosc         T2        TX        TY        TZ
        (cm-1)      (nm)                 (au**2)    (au)      (au)      (au)
-----------------------------------------------------------------------------
   1   31631.2    316.1   0.000253150   0.00263   0.04881   0.00814  -0.01365

Dispersion correction           -0.025946064
FINAL SINGLE POINT ENERGY      -189.320474477640

DIPOLE MOMENT
-------------
                                X             Y             Z
Electronic contribution:     -1.84083      -1.40293       0.21626
Nuclear contribution   :      2.17746       2.19609      -0.31884
                        -----------------------------------------
Total Dipole Moment    :      0.33663       0.79316      -0.10258
                        -----------------------------------------
Magnitude (a.u.)       :      0.86772
Magnitude (Debye)      :      2.20557

Rotational constants in cm-1:     0.753616     0.218032     0.169425
Rotational constants in MHz : 22592.852703  6536.424754  5079.238985

                             ****ORCA TERMINATED NORMALLY****
TOTAL RUN TIME: 0 days 0 hours 0 minutes 11 seconds 784 msec
