                         Program Version 5.0.3 -  RELEASE  -
|  1> ! B3LYP cc-pVDZ
|  2> !TightSCF
|  3> %scf
|  4>  ConvForced true
|  5>  convergence tight
|  6>  MaxIter 500
|  7> end
|  8>
|  9> %tddft
| 10>  nroots 1
| 11> end
| 12>
| 13> # 	619
| 14> * xyz 0 1
| 15> 		C   -1.214363  -0.298668   0.023265
| 16> 		O   -2.184671  -0.308371   0.650782
| 17> 		C    0.001792   0.547593   0.331490
| 18> 		C    1.164270   0.206011  -0.391347
| 19> 		H   -1.226073  -1.059647  -0.797097
| 20> 		H   -0.001581   0.901386   1.314643
| 21> 		H    1.351992  -0.518397  -1.045956
| 22> 		H    2.151867   0.495756  -0.025055
| 23> *
| 24>
| 25>                          ****END OF INPUT****

CARTESIAN COORDINATES (ANGSTROEM)
---------------------------------
  C     -1.214363   -0.298668    0.023265
  O     -2.184671   -0.308371    0.650782
  C      0.001792    0.547593    0.331490
  C      1.164270    0.206011   -0.391347
  H     -1.226073   -1.059647   -0.797097
  H     -0.001581    0.901386    1.314643
  H      1.351992   -0.518397   -1.045956
  H      2.151867    0.495756   -0.025055

 Total Charge           Charge          ....    0
 Multiplicity           Mult            ....    1
 Number of Electrons    NEL             ....   30
 Basis Dimension        Dim             ....   76

ORBITAL ENERGIES
----------------

  NO   OCC          E(Eh)            E(eV)
   0   2.0000     -19.131335      -520.5901
   1   2.0000     -10.267716      -279.3988
   2   2.0000     -10.220364      -278.1102
   3   2.0000     -10.217148      -278.0227
   4   2.0000      -1.075101       -29.2550
   5   2.0000      -0.788530       -21.4570
   6   2.0000      -0.651004       -17.7147
   7   2.0000      -0.572553       -15.5799
   8   2.0000      -0.488790       -13.3007
   9   2.0000      -0.466924       -12.7057
  10   2.0000      -0.428030       -11.6473
  11   2.0000      -0.409580       -11.1452
  12   2.0000      -0.392557       -10.6820
  13   2.0000      -0.285695        -7.7742
  14   2.0000      -0.246528        -6.7084
  15   0.0000      -0.068936        -1.8758
  16   0.0000       0.036245         0.9863
  17   0.0000       0.079524         2.1640
  18   0.0000       0.092678         2.5219
  19   0.0000       0.117507         3.1975

MULLIKEN ATOMIC CHARGES
-----------------------
   0 C :    0.142120
   1 O :   -0.152570
   2 C :   -0.046683
   3 C :    0.053991
   4 H :   -0.040376
   5 H :    0.010345
   6 H :    0.002707
   7 H :    0.030465
Sum of atomic charges:    0.0000000

LOEWDIN ATOMIC CHARGES
----------------------
   0 C :   -0.078182
   1 O :    0.044234
   2 C :   -0.040573
   3 C :    0.031380
   4 H :   -0.013018
   5 H :    0.022979
   6 H :    0.001017
   7 H :    0.032165

  Mayer bond orders larger than 0.100000
B(  0-C ,  1-O ) :   2.2218 B(  0-C ,  2-C ) :   1.0369 B(  0-C ,  4-H ) :   0.9247
B(  2-C ,  3-C ) :   1.8906 B(  2-C ,  5-H ) :   0.9444 B(  3-C ,  6-H ) :   0.9715
B(  3-C ,  7-H ) :   0.9608

-----------------------------------------------------------------------------
         ABSORPTION SPECTRUM VIA TRANSITION ELECTRIC DIPOLE MOMENTS
-----------------------------------------------------------------------------
State   Energy    Wavelength  fosc         T2        TX        TY        TZ
        (cm-1)      (nm)                 (au**2)    (au)      (au)      (au)
-----------------------------------------------------------------------------
   1   27933.0    358.0   0.001648646   0.01943  -0.12612  -0.05932  -0.00252

FINAL SINGLE POINT ENERGY      -191.642195254921

DIPOLE MOMENT
-------------
                                X             Y             Z
Electronic contribution:     -3.30809       0.15895       0.83668
Nuclear contribution   :      4.33678      -0.19768      -1.14227
                        -----------------------------------------
Total Dipole Moment    :      1.02869      -0.03873      -0.30560
                        -----------------------------------------
Magnitude (a.u.)       :      1.07382
Magnitude (Debye)      :      2.72943

Rotational constants in cm-1:     1.484487     0.154946     0.141388
Rotational constants in MHz : 44503.788520  4645.171629  4238.698441

                             ****ORCA TERMINATED NORMALLY****
TOTAL RUN TIME: 0 days 0 hours 3 minutes 23 seconds 78 msec
