                         Program Version 5.0.3 -  RELEASE  -
|  1> ! B3LYP cc-pVDZ
|  2> !TightSCF
|  3> %scf
|  4>  ConvForced true
|  5>  convergence tight
|  6>  MaxIter 500
|  7> end
|  8>
|  9> %tddft
| 10>  nroots 1
| 11> end
| 12>
| 13> # 	4420
| 14> * xyz 0 1
| 15> 		C   -1.201958  -0.305565   0.021283
| 16> 		O   -1.177367  -1.542270   0.082434
| 17> 		C    0.016749   0.495306   0.087594
| 18> 		C    1.234277  -0.044747   0.054229
| 19> 		H   -2.199324   0.246057  -0.125037
| 20> 		H   -0.141055   1.558866  -0.068617
| 21> 		H    1.398910  -1.126258  -0.181949
| 22> 		H    2.056526   0.742952   0.124935
| 23> *
| 24>
| 25>                          ****END OF INPUT****

CARTESIAN COORDINATES (ANGSTROEM)
---------------------------------
  C     -1.201958   -0.305565    0.021283
  O     -1.177367   -1.542270    0.082434
  C      0.016749    0.495306    0.087594
  C      1.234277   -0.044747    0.054229
  H     -2.199324    0.246057   -0.125037
  H     -0.141055    1.558866   -0.068617
  H      1.398910   -1.126258   -0.181949
  H      2.056526    0.742952    0.124935

 Total Charge           Charge          ....    0
 Multiplicity           Mult            ....    1
 Number of Electrons    NEL             ....   30
 Basis Dimension        Dim             ....   76

ORBITAL ENERGIES
----------------

  NO   OCC          E(Eh)            E(eV)
   0   2.0000     -19.135589      -520.7059
   1   2.0000     -10.275381      -279.6073
   2   2.0000     -10.221904      -278.1522
   3   2.0000     -10.203160      -277.6421
   4   2.0000      -1.029365       -28.0104
   5   2.0000      -0.797914       -21.7124
   6   2.0000      -0.656572       -17.8662
   7   2.0000      -0.533384       -14.5141
   8   2.0000      -0.506213       -13.7748
   9   2.0000      -0.445442       -12.1211
  10   2.0000      -0.414039       -11.2666
  11   2.0000      -0.394745       -10.7416
  12   2.0000      -0.378860       -10.3093
  13   2.0000      -0.285639        -7.7726
  14   2.0000      -0.254116        -6.9149
  15   0.0000      -0.075750        -2.0613
  16   0.0000       0.055422         1.5081
  17   0.0000       0.060841         1.6556
  18   0.0000       0.084949         2.3116
  19   0.0000       0.119145         3.2421

MULLIKEN ATOMIC CHARGES
-----------------------
   0 C :    0.166493
   1 O :   -0.215912
   2 C :   -0.088286
   3 C :    0.052906
   4 H :   -0.010606
   5 H :   -0.006668
   6 H :    0.056243
   7 H :    0.045830
Sum of atomic charges:    0.0000000

LOEWDIN ATOMIC CHARGES
----------------------
   0 C :   -0.025656
   1 O :   -0.034022
   2 C :   -0.088639
   3 C :    0.025834
   4 H :    0.001829
   5 H :    0.028970
   6 H :    0.044853
   7 H :    0.046830

  Mayer bond orders larger than 0.100000
B(  0-C ,  1-O ) :   2.1530 B(  0-C ,  2-C ) :   1.0826 B(  0-C ,  4-H ) :   0.9136
B(  1-O ,  3-C ) :   0.1004 B(  2-C ,  3-C ) :   1.9458 B(  2-C ,  5-H ) :   0.9404
B(  3-C ,  6-H ) :   0.9340 B(  3-C ,  7-H ) :   0.9332

-----------------------------------------------------------------------------
         ABSORPTION SPECTRUM VIA TRANSITION ELECTRIC DIPOLE MOMENTS
-----------------------------------------------------------------------------
State   Energy    Wavelength  fosc         T2        TX        TY        TZ
        (cm-1)      (nm)                 (au**2)    (au)      (au)      (au)
-----------------------------------------------------------------------------
   1   26214.7    381.5   0.000213187   0.00268  -0.02688  -0.02143   0.03867

FINAL SINGLE POINT ENERGY      -191.679947411313

DIPOLE MOMENT
-------------
                                X             Y             Z
Electronic contribution:     -1.76240      -1.82934       0.31084
Nuclear contribution   :      2.17940       2.75573      -0.43725
                        -----------------------------------------
Total Dipole Moment    :      0.41699       0.92639      -0.12641
                        -----------------------------------------
Magnitude (a.u.)       :      1.02375
Magnitude (Debye)      :      2.60216

Rotational constants in cm-1:     0.745370     0.211634     0.165294
Rotational constants in MHz : 22345.624032  6344.620108  4955.380192

                             ****ORCA TERMINATED NORMALLY****
TOTAL RUN TIME: 0 days 0 hours 3 minutes 18 seconds 676 msec
