                         Program Version 5.0.3 -  RELEASE  -
|  1> ! HF-3c
|  2> !TightSCF
|  3> %scf
|  4>  ConvForced true
|  5>  convergence tight
|  6>  MaxIter 500
|  7> end
|  8>
|  9> %tddft
| 10>  nroots 1
| 11> end
| 12>
| 13> # 	19484
| 14> * xyz 0 1
| 15> 		C   -1.153997  -0.367156  -0.024590
| 16> 		O   -1.280493  -1.550844   0.283423
| 17> 		C   -0.010468   0.486844   0.126131
| 18> 		C    1.216381  -0.092953  -0.054543
| 19> 		H   -2.144717   0.364543  -0.330278
| 20> 		H   -0.113516   1.625596   0.152640
| 21> 		H    1.328817  -1.171544  -0.056599
| 22> 		H    2.052617   0.618402  -0.004736
| 23> *
| 24>
| 25>                          ****END OF INPUT****

CARTESIAN COORDINATES (ANGSTROEM)
---------------------------------
  C     -1.153997   -0.367156   -0.024590
  O     -1.280493   -1.550844    0.283423
  C     -0.010468    0.486844    0.126131
  C      1.216381   -0.092953   -0.054543
  H     -2.144717    0.364543   -0.330278
  H     -0.113516    1.625596    0.152640
  H      1.328817   -1.171544   -0.056599
  H      2.052617    0.618402   -0.004736

 Total Charge           Charge          ....    0
 Multiplicity           Mult            ....    1
 Number of Electrons    NEL             ....   30
 Basis Dimension        Dim             ....   24

ORBITAL ENERGIES
----------------

  NO   OCC          E(Eh)            E(eV)
   0   2.0000     -20.350457      -553.7641
   1   2.0000     -11.284729      -307.0731
   2   2.0000     -11.191441      -304.5346
   3   2.0000     -11.185470      -304.3721
   4   2.0000      -1.378392       -37.5079
   5   2.0000      -1.077962       -29.3328
   6   2.0000      -0.884361       -24.0647
   7   2.0000      -0.720203       -19.5977
   8   2.0000      -0.684023       -18.6132
   9   2.0000      -0.603668       -16.4266
  10   2.0000      -0.576157       -15.6780
  11   2.0000      -0.540908       -14.7189
  12   2.0000      -0.518386       -14.1060
  13   2.0000      -0.392591       -10.6829
  14   2.0000      -0.381801       -10.3893
  15   0.0000       0.125658         3.4193
  16   0.0000       0.296130         8.0581
  17   0.0000       0.484550        13.1853
  18   0.0000       0.574805        15.6412
  19   0.0000       0.622625        16.9425

MULLIKEN ATOMIC CHARGES
-----------------------
   0 C :    0.178918
   1 O :   -0.364059
   2 C :   -0.177658
   3 C :   -0.210760
   4 H :    0.117697
   5 H :    0.147970
   6 H :    0.162301
   7 H :    0.145590
Sum of atomic charges:   -0.0000000

LOEWDIN ATOMIC CHARGES
----------------------
   0 C :    0.152391
   1 O :   -0.276132
   2 C :   -0.139516
   3 C :   -0.109353
   4 H :    0.069360
   5 H :    0.100127
   6 H :    0.107230
   7 H :    0.095893

  Mayer bond orders larger than 0.100000
B(  0-C ,  1-O ) :   1.8943 B(  0-C ,  2-C ) :   1.0544 B(  0-C ,  4-H ) :   0.9031
B(  2-C ,  3-C ) :   1.9143 B(  2-C ,  5-H ) :   0.9564 B(  3-C ,  6-H ) :   0.9601
B(  3-C ,  7-H ) :   0.9656

-----------------------------------------------------------------------------
         ABSORPTION SPECTRUM VIA TRANSITION ELECTRIC DIPOLE MOMENTS
-----------------------------------------------------------------------------
State   Energy    Wavelength  fosc         T2        TX        TY        TZ
        (cm-1)      (nm)                 (au**2)    (au)      (au)      (au)
-----------------------------------------------------------------------------
   1   31621.0    316.2   0.001001598   0.01043  -0.10069   0.01596   0.00584

Dispersion correction           -0.025608513
FINAL SINGLE POINT ENERGY      -189.316498275580

DIPOLE MOMENT
-------------
                                X             Y             Z
Electronic contribution:     -1.82536      -1.84552       0.29308
Nuclear contribution   :      2.29353       2.87366      -0.54647
                        -----------------------------------------
Total Dipole Moment    :      0.46818       1.02815      -0.25339
                        -----------------------------------------
Magnitude (a.u.)       :      1.15779
Magnitude (Debye)      :      2.94287

Rotational constants in cm-1:     0.746619     0.205566     0.163644
Rotational constants in MHz : 22383.082799  6162.702684  4905.913718

                             ****ORCA TERMINATED NORMALLY****
TOTAL RUN TIME: 0 days 0 hours 0 minutes 16 seconds 8 msec
