                         Program Version 5.0.3 -  RELEASE  -
|  1> ! HF-3c
|  2> !TightSCF
|  3> %scf
|  4>  ConvForced true
|  5>  convergence tight
|  6>  MaxIter 500
|  7> end
|  8>
|  9> %tddft
| 10>  nroots 1
| 11> end
| 12>
| 13> # 	22221
| 14> * xyz 0 1
| 15> 		C   -0.587200  -0.428065  -0.036483
| 16> 		O   -0.563843  -1.580888   0.012784
| 17> 		C    0.582092   0.362905   0.049097
| 18> 		C    1.858551  -0.154345  -0.016224
| 19> 		H   -1.397862   0.223536  -0.096843
| 20> 		H    0.390086   1.435475   0.027461
| 21> 		H    2.092157  -1.103691   0.071191
| 22> 		H    2.690023   0.441844  -0.168806
| 23> *
| 24>
| 25>                          ****END OF INPUT****

CARTESIAN COORDINATES (ANGSTROEM)
---------------------------------
  C     -0.587200   -0.428065   -0.036483
  O     -0.563843   -1.580888    0.012784
  C      0.582092    0.362905    0.049097
  C      1.858551   -0.154345   -0.016224
  H     -1.397862    0.223536   -0.096843
  H      0.390086    1.435475    0.027461
  H      2.092157   -1.103691    0.071191
  H      2.690023    0.441844   -0.168806

 Total Charge           Charge          ....    0
 Multiplicity           Mult            ....    1
 Number of Electrons    NEL             ....   30
 Basis Dimension        Dim             ....   24

ORBITAL ENERGIES
----------------

  NO   OCC          E(Eh)            E(eV)
   0   2.0000     -20.386494      -554.7447
   1   2.0000     -11.315943      -307.9225
   2   2.0000     -11.199012      -304.7406
   3   2.0000     -11.187094      -304.4163
   4   2.0000      -1.450837       -39.4793
   5   2.0000      -1.082543       -29.4575
   6   2.0000      -0.933540       -25.4029
   7   2.0000      -0.775216       -21.0947
   8   2.0000      -0.718711       -19.5571
   9   2.0000      -0.639199       -17.3935
  10   2.0000      -0.609958       -16.5978
  11   2.0000      -0.577759       -15.7216
  12   2.0000      -0.556094       -15.1321
  13   2.0000      -0.419505       -11.4153
  14   2.0000      -0.386238       -10.5101
  15   0.0000       0.116330         3.1655
  16   0.0000       0.318763         8.6740
  17   0.0000       0.602355        16.3909
  18   0.0000       0.691202        18.8086
  19   0.0000       0.732579        19.9345

MULLIKEN ATOMIC CHARGES
-----------------------
   0 C :    0.164509
   1 O :   -0.352156
   2 C :   -0.159018
   3 C :   -0.227978
   4 H :    0.136525
   5 H :    0.138184
   6 H :    0.153390
   7 H :    0.146544
Sum of atomic charges:    0.0000000

LOEWDIN ATOMIC CHARGES
----------------------
   0 C :    0.140247
   1 O :   -0.239824
   2 C :   -0.122491
   3 C :   -0.113615
   4 H :    0.065379
   5 H :    0.087286
   6 H :    0.091281
   7 H :    0.091736

  Mayer bond orders larger than 0.100000
B(  0-C ,  1-O ) :   1.8944 B(  0-C ,  2-C ) :   1.0465 B(  0-C ,  4-H ) :   0.9192
B(  2-C ,  3-C ) :   1.9195 B(  2-C ,  5-H ) :   0.9637 B(  3-C ,  6-H ) :   0.9669
B(  3-C ,  7-H ) :   0.9689

-----------------------------------------------------------------------------
         ABSORPTION SPECTRUM VIA TRANSITION ELECTRIC DIPOLE MOMENTS
-----------------------------------------------------------------------------
State   Energy    Wavelength  fosc         T2        TX        TY        TZ
        (cm-1)      (nm)                 (au**2)    (au)      (au)      (au)
-----------------------------------------------------------------------------
   1   33589.5    297.7   0.000036689   0.00036  -0.01693   0.00060  -0.00852

Dispersion correction           -0.026281599
FINAL SINGLE POINT ENERGY      -189.301637668364

DIPOLE MOMENT
-------------
                                X             Y             Z
Electronic contribution:     -2.09789      -1.80208       0.08967
Nuclear contribution   :      2.38727       2.72142      -0.15600
                        -----------------------------------------
Total Dipole Moment    :      0.28938       0.91935      -0.06633
                        -----------------------------------------
Magnitude (a.u.)       :      0.96609
Magnitude (Debye)      :      2.45561

Rotational constants in cm-1:     0.785992     0.219356     0.171826
Rotational constants in MHz : 23563.440413  6576.114059  5151.207648

                             ****ORCA TERMINATED NORMALLY****
TOTAL RUN TIME: 0 days 0 hours 0 minutes 8 seconds 853 msec
