                         Program Version 5.0.3 -  RELEASE  -
|  1> ! HF-3c
|  2> !TightSCF
|  3> %scf
|  4>  ConvForced true
|  5>  convergence tight
|  6>  MaxIter 500
|  7> end
|  8>
|  9> %tddft
| 10>  nroots 1
| 11> end
| 12>
| 13> # 	6641
| 14> * xyz 0 1
| 15> 		C   -1.204262  -0.331753  -0.043315
| 16> 		O   -1.174425  -1.481213   0.118373
| 17> 		C    0.039019   0.503228  -0.006912
| 18> 		C    1.251407   0.013398  -0.011469
| 19> 		H   -2.063713   0.290644  -0.116568
| 20> 		H   -0.125294   1.567602   0.306013
| 21> 		H    1.242061  -1.119165  -0.168605
| 22> 		H    2.113135   0.587940  -0.061422
| 23> *
| 24>
| 25>                          ****END OF INPUT****

CARTESIAN COORDINATES (ANGSTROEM)
---------------------------------
  C     -1.204262   -0.331753   -0.043315
  O     -1.174425   -1.481213    0.118373
  C      0.039019    0.503228   -0.006912
  C      1.251407    0.013398   -0.011469
  H     -2.063713    0.290644   -0.116568
  H     -0.125294    1.567602    0.306013
  H      1.242061   -1.119165   -0.168605
  H      2.113135    0.587940   -0.061422

 Total Charge           Charge          ....    0
 Multiplicity           Mult            ....    1
 Number of Electrons    NEL             ....   30
 Basis Dimension        Dim             ....   24

ORBITAL ENERGIES
----------------

  NO   OCC          E(Eh)            E(eV)
   0   2.0000     -20.391840      -554.8902
   1   2.0000     -11.315165      -307.9013
   2   2.0000     -11.182617      -304.2945
   3   2.0000     -11.176142      -304.1183
   4   2.0000      -1.448634       -39.4193
   5   2.0000      -1.079541       -29.3758
   6   2.0000      -0.898435       -24.4476
   7   2.0000      -0.753941       -20.5158
   8   2.0000      -0.704693       -19.1757
   9   2.0000      -0.624643       -16.9974
  10   2.0000      -0.619410       -16.8550
  11   2.0000      -0.568646       -15.4736
  12   2.0000      -0.515405       -14.0249
  13   2.0000      -0.419767       -11.4224
  14   2.0000      -0.397361       -10.8127
  15   0.0000       0.145432         3.9574
  16   0.0000       0.309087         8.4107
  17   0.0000       0.551697        15.0124
  18   0.0000       0.635010        17.2795
  19   0.0000       0.642394        17.4804

MULLIKEN ATOMIC CHARGES
-----------------------
   0 C :    0.179583
   1 O :   -0.355565
   2 C :   -0.168494
   3 C :   -0.235847
   4 H :    0.138605
   5 H :    0.133946
   6 H :    0.160631
   7 H :    0.147141
Sum of atomic charges:    0.0000000

LOEWDIN ATOMIC CHARGES
----------------------
   0 C :    0.152417
   1 O :   -0.242299
   2 C :   -0.133315
   3 C :   -0.136402
   4 H :    0.069136
   5 H :    0.086230
   6 H :    0.111426
   7 H :    0.092807

  Mayer bond orders larger than 0.100000
B(  0-C ,  1-O ) :   1.9275 B(  0-C ,  2-C ) :   0.9956 B(  0-C ,  4-H ) :   0.9207
B(  2-C ,  3-C ) :   1.9676 B(  2-C ,  5-H ) :   0.9584 B(  3-C ,  6-H ) :   0.9520
B(  3-C ,  7-H ) :   0.9653

-----------------------------------------------------------------------------
         ABSORPTION SPECTRUM VIA TRANSITION ELECTRIC DIPOLE MOMENTS
-----------------------------------------------------------------------------
State   Energy    Wavelength  fosc         T2        TX        TY        TZ
        (cm-1)      (nm)                 (au**2)    (au)      (au)      (au)
-----------------------------------------------------------------------------
   1   35667.8    280.4   0.000085713   0.00079   0.02801   0.00105  -0.00230

Dispersion correction           -0.026207416
FINAL SINGLE POINT ENERGY      -189.314357104479

DIPOLE MOMENT
-------------
                                X             Y             Z
Electronic contribution:     -2.00871      -1.73661       0.02265
Nuclear contribution   :      2.19084       2.57646      -0.11104
                        -----------------------------------------
Total Dipole Moment    :      0.18213       0.83986      -0.08839
                        -----------------------------------------
Magnitude (a.u.)       :      0.86391
Magnitude (Debye)      :      2.19589

Rotational constants in cm-1:     0.807644     0.210818     0.168136
Rotational constants in MHz : 24212.570650  6320.157673  5040.576150

                             ****ORCA TERMINATED NORMALLY****
TOTAL RUN TIME: 0 days 0 hours 0 minutes 13 seconds 351 msec
