                         Program Version 5.0.3 -  RELEASE  -
|  1> ! HF-3c
|  2> !TightSCF
|  3> %scf
|  4>  ConvForced true
|  5>  convergence tight
|  6>  MaxIter 500
|  7> end
|  8>
|  9> %tddft
| 10>  nroots 1
| 11> end
| 12>
| 13> # 	17667
| 14> * xyz 0 1
| 15> 		C   -1.170177  -0.343066  -0.006312
| 16> 		O   -1.677957  -1.157769  -0.765105
| 17> 		C    0.053397   0.429880  -0.335205
| 18> 		C    1.220315   0.026211   0.142846
| 19> 		H   -1.602242  -0.164261   1.051026
| 20> 		H   -0.214598   1.363329  -0.722975
| 21> 		H    1.404904  -0.811363   0.692017
| 22> 		H    2.016803   0.618436  -0.020889
| 23> *
| 24>
| 25>                          ****END OF INPUT****

CARTESIAN COORDINATES (ANGSTROEM)
---------------------------------
  C     -1.170177   -0.343066   -0.006312
  O     -1.677957   -1.157769   -0.765105
  C      0.053397    0.429880   -0.335205
  C      1.220315    0.026211    0.142846
  H     -1.602242   -0.164261    1.051026
  H     -0.214598    1.363329   -0.722975
  H      1.404904   -0.811363    0.692017
  H      2.016803    0.618436   -0.020889

 Total Charge           Charge          ....    0
 Multiplicity           Mult            ....    1
 Number of Electrons    NEL             ....   30
 Basis Dimension        Dim             ....   24

ORBITAL ENERGIES
----------------

  NO   OCC          E(Eh)            E(eV)
   0   2.0000     -20.370182      -554.3008
   1   2.0000     -11.293915      -307.3231
   2   2.0000     -11.204986      -304.9032
   3   2.0000     -11.192587      -304.5658
   4   2.0000      -1.395438       -37.9718
   5   2.0000      -1.097065       -29.8527
   6   2.0000      -0.901277       -24.5250
   7   2.0000      -0.771911       -21.0048
   8   2.0000      -0.690288       -18.7837
   9   2.0000      -0.656027       -17.8514
  10   2.0000      -0.616005       -16.7624
  11   2.0000      -0.565202       -15.3799
  12   2.0000      -0.498525       -13.5656
  13   2.0000      -0.418676       -11.3928
  14   2.0000      -0.405473       -11.0335
  15   0.0000       0.188019         5.1163
  16   0.0000       0.202500         5.5103
  17   0.0000       0.552334        15.0298
  18   0.0000       0.628278        17.0963
  19   0.0000       0.695904        18.9365

MULLIKEN ATOMIC CHARGES
-----------------------
   0 C :    0.173440
   1 O :   -0.342905
   2 C :   -0.155477
   3 C :   -0.266300
   4 H :    0.140293
   5 H :    0.157186
   6 H :    0.148706
   7 H :    0.145057
Sum of atomic charges:   -0.0000000

LOEWDIN ATOMIC CHARGES
----------------------
   0 C :    0.152395
   1 O :   -0.251451
   2 C :   -0.101639
   3 C :   -0.161452
   4 H :    0.081219
   5 H :    0.100087
   6 H :    0.092367
   7 H :    0.088473

  Mayer bond orders larger than 0.100000
B(  0-C ,  1-O ) :   1.9512 B(  0-C ,  2-C ) :   0.9890 B(  0-C ,  4-H ) :   0.9131
B(  2-C ,  3-C ) :   1.9955 B(  2-C ,  5-H ) :   0.9513 B(  3-C ,  6-H ) :   0.9662
B(  3-C ,  7-H ) :   0.9648

-----------------------------------------------------------------------------
         ABSORPTION SPECTRUM VIA TRANSITION ELECTRIC DIPOLE MOMENTS
-----------------------------------------------------------------------------
State   Energy    Wavelength  fosc         T2        TX        TY        TZ
        (cm-1)      (nm)                 (au**2)    (au)      (au)      (au)
-----------------------------------------------------------------------------
   1   34177.7    292.6   0.000022544   0.00022  -0.00123  -0.00018   0.01468

Dispersion correction           -0.025454677
FINAL SINGLE POINT ENERGY      -189.313167207054

DIPOLE MOMENT
-------------
                                X             Y             Z
Electronic contribution:     -2.63569      -1.32137      -1.18596
Nuclear contribution   :      3.09258       2.01219       1.84135
                        -----------------------------------------
Total Dipole Moment    :      0.45689       0.69082       0.65540
                        -----------------------------------------
Magnitude (a.u.)       :      1.05618
Magnitude (Debye)      :      2.68461

Rotational constants in cm-1:     1.023073     0.167366     0.160747
Rotational constants in MHz : 30670.949600  5017.515997  4819.064789

                             ****ORCA TERMINATED NORMALLY****
TOTAL RUN TIME: 0 days 0 hours 0 minutes 12 seconds 285 msec
