                         Program Version 5.0.3 -  RELEASE  -
|  1> ! B3LYP cc-pVDZ
|  2> !TightSCF
|  3> %scf
|  4>  ConvForced true
|  5>  convergence tight
|  6>  MaxIter 500
|  7> end
|  8>
|  9> %tddft
| 10>  nroots 1
| 11> end
| 12>
| 13> # 	8255
| 14> * xyz 0 1
| 15> 		C   -1.143654  -0.430405   0.010172
| 16> 		O   -2.021887  -0.709553  -0.868862
| 17> 		C    0.108706   0.370413  -0.398431
| 18> 		C    1.200443   0.104382   0.161500
| 19> 		H   -1.287874  -0.677702   1.241745
| 20> 		H   -0.045053   1.069355  -1.100938
| 21> 		H    1.191803  -0.573631   0.958286
| 22> 		H    1.989849   0.812873  -0.028287
| 23> *
| 24>
| 25>                          ****END OF INPUT****

CARTESIAN COORDINATES (ANGSTROEM)
---------------------------------
  C     -1.143654   -0.430405    0.010172
  O     -2.021887   -0.709553   -0.868862
  C      0.108706    0.370413   -0.398431
  C      1.200443    0.104382    0.161500
  H     -1.287874   -0.677702    1.241745
  H     -0.045053    1.069355   -1.100938
  H      1.191803   -0.573631    0.958286
  H      1.989849    0.812873   -0.028287

 Total Charge           Charge          ....    0
 Multiplicity           Mult            ....    1
 Number of Electrons    NEL             ....   30
 Basis Dimension        Dim             ....   76

ORBITAL ENERGIES
----------------

  NO   OCC          E(Eh)            E(eV)
   0   2.0000     -19.149149      -521.0748
   1   2.0000     -10.297624      -280.2126
   2   2.0000     -10.196894      -277.4716
   3   2.0000     -10.195051      -277.4214
   4   2.0000      -1.018486       -27.7144
   5   2.0000      -0.821184       -22.3456
   6   2.0000      -0.635877       -17.3031
   7   2.0000      -0.573767       -15.6130
   8   2.0000      -0.485168       -13.2021
   9   2.0000      -0.461234       -12.5508
  10   2.0000      -0.427265       -11.6265
  11   2.0000      -0.390867       -10.6360
  12   2.0000      -0.373444       -10.1619
  13   2.0000      -0.304611        -8.2889
  14   2.0000      -0.257122        -6.9966
  15   0.0000      -0.062748        -1.7075
  16   0.0000       0.023510         0.6397
  17   0.0000       0.067467         1.8359
  18   0.0000       0.084446         2.2979
  19   0.0000       0.110285         3.0010

MULLIKEN ATOMIC CHARGES
-----------------------
   0 C :    0.115850
   1 O :   -0.225772
   2 C :   -0.017157
   3 C :    0.122360
   4 H :    0.023741
   5 H :   -0.036004
   6 H :   -0.003908
   7 H :    0.020892
Sum of atomic charges:   -0.0000000

LOEWDIN ATOMIC CHARGES
----------------------
   0 C :    0.011543
   1 O :   -0.051718
   2 C :   -0.038052
   3 C :   -0.006357
   4 H :    0.013998
   5 H :    0.012425
   6 H :    0.021261
   7 H :    0.036899

  Mayer bond orders larger than 0.100000
B(  0-C ,  1-O ) :   2.1195 B(  0-C ,  2-C ) :   1.0095 B(  0-C ,  4-H ) :   0.8802
B(  2-C ,  3-C ) :   2.0127 B(  2-C ,  5-H ) :   0.9576 B(  3-C ,  6-H ) :   0.9283
B(  3-C ,  7-H ) :   0.9257

-----------------------------------------------------------------------------
         ABSORPTION SPECTRUM VIA TRANSITION ELECTRIC DIPOLE MOMENTS
-----------------------------------------------------------------------------
State   Energy    Wavelength  fosc         T2        TX        TY        TZ
        (cm-1)      (nm)                 (au**2)    (au)      (au)      (au)
-----------------------------------------------------------------------------
   1   28552.6    350.2   0.000936123   0.01079  -0.10270   0.01235   0.00973

FINAL SINGLE POINT ENERGY      -191.637052273408

DIPOLE MOMENT
-------------
                                X             Y             Z
Electronic contribution:     -2.76867      -0.85253      -1.47203
Nuclear contribution   :      3.61952       1.26570       2.03639
                        -----------------------------------------
Total Dipole Moment    :      0.85085       0.41316       0.56436
                        -----------------------------------------
Magnitude (a.u.)       :      1.10143
Magnitude (Debye)      :      2.79962

Rotational constants in cm-1:     1.308127     0.157658     0.145867
Rotational constants in MHz : 39216.668037  4726.454698  4372.969545

                             ****ORCA TERMINATED NORMALLY****
TOTAL RUN TIME: 0 days 0 hours 3 minutes 23 seconds 601 msec
