                         Program Version 5.0.3 -  RELEASE  -
|  1> ! B3LYP cc-pVDZ
|  2> !TightSCF
|  3> %scf
|  4>  ConvForced true
|  5>  convergence tight
|  6>  MaxIter 500
|  7> end
|  8>
|  9> %tddft
| 10>  nroots 1
| 11> end
| 12>
| 13> # 	17803
| 14> * xyz 0 1
| 15> 		C   -1.210186  -0.344218   0.000180
| 16> 		O   -1.424441  -1.446095   0.468641
| 17> 		C   -0.050627   0.516055   0.213778
| 18> 		C    1.156635  -0.046723  -0.089533
| 19> 		H   -1.819952   0.152812  -0.763858
| 20> 		H   -0.186118   1.621473   0.309898
| 21> 		H    1.411819  -1.076481  -0.230391
| 22> 		H    2.092409   0.583358   0.027587
| 23> *
| 24>
| 25>                          ****END OF INPUT****

CARTESIAN COORDINATES (ANGSTROEM)
---------------------------------
  C     -1.210186   -0.344218    0.000180
  O     -1.424441   -1.446095    0.468641
  C     -0.050627    0.516055    0.213778
  C      1.156635   -0.046723   -0.089533
  H     -1.819952    0.152812   -0.763858
  H     -0.186118    1.621473    0.309898
  H      1.411819   -1.076481   -0.230391
  H      2.092409    0.583358    0.027587

 Total Charge           Charge          ....    0
 Multiplicity           Mult            ....    1
 Number of Electrons    NEL             ....   30
 Basis Dimension        Dim             ....   76

ORBITAL ENERGIES
----------------

  NO   OCC          E(Eh)            E(eV)
   0   2.0000     -19.142348      -520.8898
   1   2.0000     -10.276534      -279.6387
   2   2.0000     -10.216952      -278.0174
   3   2.0000     -10.213931      -277.9352
   4   2.0000      -1.044238       -28.4152
   5   2.0000      -0.797348       -21.6969
   6   2.0000      -0.660874       -17.9833
   7   2.0000      -0.550588       -14.9823
   8   2.0000      -0.498598       -13.5675
   9   2.0000      -0.449883       -12.2419
  10   2.0000      -0.441488       -12.0135
  11   2.0000      -0.386842       -10.5265
  12   2.0000      -0.374360       -10.1869
  13   2.0000      -0.286051        -7.7838
  14   2.0000      -0.255259        -6.9460
  15   0.0000      -0.055349        -1.5061
  16   0.0000       0.011554         0.3144
  17   0.0000       0.068768         1.8713
  18   0.0000       0.090815         2.4712
  19   0.0000       0.112516         3.0617

MULLIKEN ATOMIC CHARGES
-----------------------
   0 C :    0.194759
   1 O :   -0.194263
   2 C :   -0.092157
   3 C :    0.012697
   4 H :   -0.018843
   5 H :    0.024810
   6 H :    0.036951
   7 H :    0.036045
Sum of atomic charges:   -0.0000000

LOEWDIN ATOMIC CHARGES
----------------------
   0 C :   -0.030840
   1 O :   -0.003192
   2 C :   -0.064461
   3 C :   -0.000490
   4 H :   -0.006550
   5 H :    0.042838
   6 H :    0.026107
   7 H :    0.036588

  Mayer bond orders larger than 0.100000
B(  0-C ,  1-O ) :   2.2090 B(  0-C ,  2-C ) :   1.0343 B(  0-C ,  4-H ) :   0.9061
B(  2-C ,  3-C ) :   1.9688 B(  2-C ,  5-H ) :   0.9313 B(  3-C ,  6-H ) :   0.9566
B(  3-C ,  7-H ) :   0.9523

-----------------------------------------------------------------------------
         ABSORPTION SPECTRUM VIA TRANSITION ELECTRIC DIPOLE MOMENTS
-----------------------------------------------------------------------------
State   Energy    Wavelength  fosc         T2        TX        TY        TZ
        (cm-1)      (nm)                 (au**2)    (au)      (au)      (au)
-----------------------------------------------------------------------------
   1   30713.0    325.6   0.000972270   0.01042  -0.09989  -0.01847   0.01011

FINAL SINGLE POINT ENERGY      -191.652340512334

DIPOLE MOMENT
-------------
                                X             Y             Z
Electronic contribution:     -2.41666      -1.70126       0.83346
Nuclear contribution   :      2.89854       2.54754      -1.16902
                        -----------------------------------------
Total Dipole Moment    :      0.48188       0.84629      -0.33557
                        -----------------------------------------
Magnitude (a.u.)       :      1.03005
Magnitude (Debye)      :      2.61818

Rotational constants in cm-1:     0.793311     0.194511     0.163651
Rotational constants in MHz : 23782.868244  5831.279359  4906.120205

                             ****ORCA TERMINATED NORMALLY****
TOTAL RUN TIME: 0 days 0 hours 3 minutes 20 seconds 120 msec
