                         Program Version 5.0.3 -  RELEASE  -
|  1> ! HF-3c
|  2> !TightSCF
|  3> %scf
|  4>  ConvForced true
|  5>  convergence tight
|  6>  MaxIter 500
|  7> end
|  8>
|  9> %tddft
| 10>  nroots 1
| 11> end
| 12>
| 13> # 	8032
| 14> * xyz 0 1
| 15> 		C   -1.223771  -0.342843   0.089779
| 16> 		O   -1.718659  -1.006953   0.945979
| 17> 		C   -0.021933   0.470601   0.292056
| 18> 		C    1.178170   0.079612  -0.217931
| 19> 		H   -1.467041  -0.397913  -0.988498
| 20> 		H   -0.114843   1.463579   0.727866
| 21> 		H    1.270715  -0.894772  -0.781731
| 22> 		H    2.203730   0.597941  -0.040672
| 23> *
| 24>
| 25>                          ****END OF INPUT****

CARTESIAN COORDINATES (ANGSTROEM)
---------------------------------
  C     -1.223771   -0.342843    0.089779
  O     -1.718659   -1.006953    0.945979
  C     -0.021933    0.470601    0.292056
  C      1.178170    0.079612   -0.217931
  H     -1.467041   -0.397913   -0.988498
  H     -0.114843    1.463579    0.727866
  H      1.270715   -0.894772   -0.781731
  H      2.203730    0.597941   -0.040672

 Total Charge           Charge          ....    0
 Multiplicity           Mult            ....    1
 Number of Electrons    NEL             ....   30
 Basis Dimension        Dim             ....   24

ORBITAL ENERGIES
----------------

  NO   OCC          E(Eh)            E(eV)
   0   2.0000     -20.386379      -554.7416
   1   2.0000     -11.308204      -307.7119
   2   2.0000     -11.182582      -304.2935
   3   2.0000     -11.176067      -304.1162
   4   2.0000      -1.423848       -38.7449
   5   2.0000      -1.069134       -29.0926
   6   2.0000      -0.876173       -23.8419
   7   2.0000      -0.765682       -20.8353
   8   2.0000      -0.677098       -18.4248
   9   2.0000      -0.635780       -17.3004
  10   2.0000      -0.604780       -16.4569
  11   2.0000      -0.536403       -14.5963
  12   2.0000      -0.510723       -13.8975
  13   2.0000      -0.416182       -11.3249
  14   2.0000      -0.385440       -10.4884
  15   0.0000       0.177113         4.8195
  16   0.0000       0.223058         6.0697
  17   0.0000       0.556286        15.1373
  18   0.0000       0.609845        16.5947
  19   0.0000       0.621217        16.9042

MULLIKEN ATOMIC CHARGES
-----------------------
   0 C :    0.174533
   1 O :   -0.341202
   2 C :   -0.177148
   3 C :   -0.220403
   4 H :    0.139844
   5 H :    0.151126
   6 H :    0.130026
   7 H :    0.143224
Sum of atomic charges:   -0.0000000

LOEWDIN ATOMIC CHARGES
----------------------
   0 C :    0.153862
   1 O :   -0.238912
   2 C :   -0.134546
   3 C :   -0.138196
   4 H :    0.074859
   5 H :    0.099235
   6 H :    0.085023
   7 H :    0.098676

  Mayer bond orders larger than 0.100000
B(  0-C ,  1-O ) :   1.9471 B(  0-C ,  2-C ) :   0.9933 B(  0-C ,  4-H ) :   0.9142
B(  2-C ,  3-C ) :   1.9861 B(  2-C ,  5-H ) :   0.9506 B(  3-C ,  6-H ) :   0.9666
B(  3-C ,  7-H ) :   0.9625

-----------------------------------------------------------------------------
         ABSORPTION SPECTRUM VIA TRANSITION ELECTRIC DIPOLE MOMENTS
-----------------------------------------------------------------------------
State   Energy    Wavelength  fosc         T2        TX        TY        TZ
        (cm-1)      (nm)                 (au**2)    (au)      (au)      (au)
-----------------------------------------------------------------------------
   1   35322.3    283.1   0.000165714   0.00154   0.03434   0.00186   0.01903

Dispersion correction           -0.025147224
FINAL SINGLE POINT ENERGY      -189.312238819764

DIPOLE MOMENT
-------------
                                X             Y             Z
Electronic contribution:     -2.92358      -1.05634       1.36959
Nuclear contribution   :      3.52423       1.56956      -2.07807
                        -----------------------------------------
Total Dipole Moment    :      0.60066       0.51322      -0.70848
                        -----------------------------------------
Magnitude (a.u.)       :      1.06119
Magnitude (Debye)      :      2.69733

Rotational constants in cm-1:     1.061915     0.163447     0.158504
Rotational constants in MHz : 31835.408049  4900.017455  4751.840927

                             ****ORCA TERMINATED NORMALLY****
TOTAL RUN TIME: 0 days 0 hours 0 minutes 11 seconds 354 msec
