                         Program Version 5.0.3 -  RELEASE  -
|  1> ! B3LYP cc-pVDZ
|  2> !TightSCF
|  3> %scf
|  4>  ConvForced true
|  5>  convergence tight
|  6>  MaxIter 500
|  7> end
|  8>
|  9> %tddft
| 10>  nroots 1
| 11> end
| 12>
| 13> # 	20791
| 14> * xyz 0 1
| 15> 		C   -0.594101  -0.400350  -0.034554
| 16> 		O   -0.596659  -1.645969   0.017769
| 17> 		C    0.606869   0.388546   0.028520
| 18> 		C    1.884032  -0.076821  -0.022966
| 19> 		H   -1.544118  -0.097841  -0.021473
| 20> 		H    0.512906   1.373598   0.032478
| 21> 		H    2.041485  -1.342333  -0.022581
| 22> 		H    2.812633   0.474455   0.081993
| 23> *
| 24>
| 25>                          ****END OF INPUT****

CARTESIAN COORDINATES (ANGSTROEM)
---------------------------------
  C     -0.594101   -0.400350   -0.034554
  O     -0.596659   -1.645969    0.017769
  C      0.606869    0.388546    0.028520
  C      1.884032   -0.076821   -0.022966
  H     -1.544118   -0.097841   -0.021473
  H      0.512906    1.373598    0.032478
  H      2.041485   -1.342333   -0.022581
  H      2.812633    0.474455    0.081993

 Total Charge           Charge          ....    0
 Multiplicity           Mult            ....    1
 Number of Electrons    NEL             ....   30
 Basis Dimension        Dim             ....   76

ORBITAL ENERGIES
----------------

  NO   OCC          E(Eh)            E(eV)
   0   2.0000     -19.126284      -520.4526
   1   2.0000     -10.260611      -279.2054
   2   2.0000     -10.233133      -278.4577
   3   2.0000     -10.201555      -277.5984
   4   2.0000      -1.022812       -27.8321
   5   2.0000      -0.796039       -21.6613
   6   2.0000      -0.662900       -18.0384
   7   2.0000      -0.561816       -15.2878
   8   2.0000      -0.517832       -14.0909
   9   2.0000      -0.452608       -12.3161
  10   2.0000      -0.415066       -11.2945
  11   2.0000      -0.387475       -10.5437
  12   2.0000      -0.360038        -9.7971
  13   2.0000      -0.283733        -7.7208
  14   2.0000      -0.248179        -6.7533
  15   0.0000      -0.078800        -2.1443
  16   0.0000       0.059651         1.6232
  17   0.0000       0.069478         1.8906
  18   0.0000       0.080283         2.1846
  19   0.0000       0.124756         3.3948

MULLIKEN ATOMIC CHARGES
-----------------------
   0 C :    0.236281
   1 O :   -0.232331
   2 C :   -0.014801
   3 C :   -0.005605
   4 H :   -0.047785
   5 H :   -0.051645
   6 H :    0.070653
   7 H :    0.045232
Sum of atomic charges:    0.0000000

LOEWDIN ATOMIC CHARGES
----------------------
   0 C :   -0.003159
   1 O :   -0.038106
   2 C :   -0.068247
   3 C :    0.030814
   4 H :   -0.014752
   5 H :    0.003515
   6 H :    0.060657
   7 H :    0.029279

  Mayer bond orders larger than 0.100000
B(  0-C ,  1-O ) :   2.1201 B(  0-C ,  2-C ) :   1.0809 B(  0-C ,  4-H ) :   0.9626
B(  1-O ,  3-C ) :   0.1099 B(  2-C ,  3-C ) :   1.9247 B(  2-C ,  5-H ) :   0.9501
B(  3-C ,  6-H ) :   0.9271 B(  3-C ,  7-H ) :   0.9429

-----------------------------------------------------------------------------
         ABSORPTION SPECTRUM VIA TRANSITION ELECTRIC DIPOLE MOMENTS
-----------------------------------------------------------------------------
State   Energy    Wavelength  fosc         T2        TX        TY        TZ
        (cm-1)      (nm)                 (au**2)    (au)      (au)      (au)
-----------------------------------------------------------------------------
   1   24061.1    415.6   0.000052707   0.00072   0.01078   0.00076  -0.02458

FINAL SINGLE POINT ENERGY      -191.654432342904

DIPOLE MOMENT
-------------
                                X             Y             Z
Electronic contribution:     -2.02338      -1.17286      -0.07024
Nuclear contribution   :      2.42929       2.17186       0.06586
                        -----------------------------------------
Total Dipole Moment    :      0.40591       0.99899      -0.00438
                        -----------------------------------------
Magnitude (a.u.)       :      1.07832
Magnitude (Debye)      :      2.74087

Rotational constants in cm-1:     0.780860     0.202507     0.160940
Rotational constants in MHz : 23409.594980  6071.004178  4824.865639

                             ****ORCA TERMINATED NORMALLY****
TOTAL RUN TIME: 0 days 0 hours 3 minutes 27 seconds 529 msec
