                         Program Version 5.0.3 -  RELEASE  -
|  1> ! HF-3c
|  2> !TightSCF
|  3> %scf
|  4>  ConvForced true
|  5>  convergence tight
|  6>  MaxIter 500
|  7> end
|  8>
|  9> %tddft
| 10>  nroots 1
| 11> end
| 12>
| 13> # 	14159
| 14> * xyz 0 1
| 15> 		C   -1.173411  -0.347897  -0.116412
| 16> 		O   -2.177085  -0.254019  -0.799551
| 17> 		C    0.042614   0.453130  -0.350176
| 18> 		C    1.153494   0.235368   0.379824
| 19> 		H   -1.288187  -1.053859   0.748390
| 20> 		H   -0.015180   1.033987  -1.123505
| 21> 		H    1.077449  -0.735999   1.193983
| 22> 		H    2.331261   0.674816   0.102392
| 23> *
| 24>
| 25>                          ****END OF INPUT****

CARTESIAN COORDINATES (ANGSTROEM)
---------------------------------
  C     -1.173411   -0.347897   -0.116412
  O     -2.177085   -0.254019   -0.799551
  C      0.042614    0.453130   -0.350176
  C      1.153494    0.235368    0.379824
  H     -1.288187   -1.053859    0.748390
  H     -0.015180    1.033987   -1.123505
  H      1.077449   -0.735999    1.193983
  H      2.331261    0.674816    0.102392

 Total Charge           Charge          ....    0
 Multiplicity           Mult            ....    1
 Number of Electrons    NEL             ....   30
 Basis Dimension        Dim             ....   24

ORBITAL ENERGIES
----------------

  NO   OCC          E(Eh)            E(eV)
   0   2.0000     -20.347651      -553.6877
   1   2.0000     -11.285361      -307.0903
   2   2.0000     -11.195214      -304.6373
   3   2.0000     -11.186233      -304.3929
   4   2.0000      -1.388496       -37.7829
   5   2.0000      -1.074830       -29.2476
   6   2.0000      -0.848299       -23.0834
   7   2.0000      -0.782900       -21.3038
   8   2.0000      -0.655021       -17.8240
   9   2.0000      -0.620970       -16.8975
  10   2.0000      -0.559881       -15.2351
  11   2.0000      -0.533937       -14.5292
  12   2.0000      -0.506023       -13.7696
  13   2.0000      -0.404536       -11.0080
  14   2.0000      -0.386614       -10.5203
  15   0.0000       0.135253         3.6804
  16   0.0000       0.302617         8.2346
  17   0.0000       0.446102        12.1391
  18   0.0000       0.468970        12.7613
  19   0.0000       0.597431        16.2569

MULLIKEN ATOMIC CHARGES
-----------------------
   0 C :    0.162169
   1 O :   -0.358049
   2 C :   -0.221626
   3 C :   -0.163556
   4 H :    0.133556
   5 H :    0.152054
   6 H :    0.139389
   7 H :    0.156063
Sum of atomic charges:    0.0000000

LOEWDIN ATOMIC CHARGES
----------------------
   0 C :    0.143722
   1 O :   -0.267148
   2 C :   -0.166455
   3 C :   -0.092504
   4 H :    0.072962
   5 H :    0.088429
   6 H :    0.102673
   7 H :    0.118320

  Mayer bond orders larger than 0.100000
B(  0-C ,  1-O ) :   1.8946 B(  0-C ,  2-C ) :   1.0335 B(  0-C ,  4-H ) :   0.9292
B(  2-C ,  3-C ) :   1.9295 B(  2-C ,  5-H ) :   0.9583 B(  3-C ,  6-H ) :   0.9540
B(  3-C ,  7-H ) :   0.9518

-----------------------------------------------------------------------------
         ABSORPTION SPECTRUM VIA TRANSITION ELECTRIC DIPOLE MOMENTS
-----------------------------------------------------------------------------
State   Energy    Wavelength  fosc         T2        TX        TY        TZ
        (cm-1)      (nm)                 (au**2)    (au)      (au)      (au)
-----------------------------------------------------------------------------
   1   32466.8    308.0   0.000052650   0.00053   0.01781   0.00497  -0.01385

Dispersion correction           -0.025248738
FINAL SINGLE POINT ENERGY      -189.281823567955

DIPOLE MOMENT
-------------
                                X             Y             Z
Electronic contribution:     -2.88279      -0.04669      -1.07552
Nuclear contribution   :      4.12271      -0.07612       1.71973
                        -----------------------------------------
Total Dipole Moment    :      1.23992      -0.12281       0.64421
                        -----------------------------------------
Magnitude (a.u.)       :      1.40267
Magnitude (Debye)      :      3.56531

Rotational constants in cm-1:     1.532948     0.153541     0.139871
Rotational constants in MHz : 45956.628332  4603.044449  4193.222188

                             ****ORCA TERMINATED NORMALLY****
TOTAL RUN TIME: 0 days 0 hours 0 minutes 16 seconds 85 msec
