                         Program Version 5.0.3 -  RELEASE  -
|  1> ! HF-3c
|  2> !TightSCF
|  3> %scf
|  4>  ConvForced true
|  5>  convergence tight
|  6>  MaxIter 500
|  7> end
|  8>
|  9> %tddft
| 10>  nroots 1
| 11> end
| 12>
| 13> # 	12684
| 14> * xyz 0 1
| 15> 		C   -1.162710  -0.344142   0.011511
| 16> 		O   -1.250816  -1.508981  -0.269509
| 17> 		C    0.027861   0.529429  -0.170711
| 18> 		C    1.224920  -0.029873   0.123354
| 19> 		H   -2.042335   0.278456   0.457392
| 20> 		H   -0.190733   1.580903  -0.240568
| 21> 		H    1.240569  -1.162972   0.112784
| 22> 		H    2.157014   0.587527  -0.011495
| 23> *
| 24>
| 25>                          ****END OF INPUT****

CARTESIAN COORDINATES (ANGSTROEM)
---------------------------------
  C     -1.162710   -0.344142    0.011511
  O     -1.250816   -1.508981   -0.269509
  C      0.027861    0.529429   -0.170711
  C      1.224920   -0.029873    0.123354
  H     -2.042335    0.278456    0.457392
  H     -0.190733    1.580903   -0.240568
  H      1.240569   -1.162972    0.112784
  H      2.157014    0.587527   -0.011495

 Total Charge           Charge          ....    0
 Multiplicity           Mult            ....    1
 Number of Electrons    NEL             ....   30
 Basis Dimension        Dim             ....   24

ORBITAL ENERGIES
----------------

  NO   OCC          E(Eh)            E(eV)
   0   2.0000     -20.365882      -554.1838
   1   2.0000     -11.293966      -307.3244
   2   2.0000     -11.185339      -304.3685
   3   2.0000     -11.181775      -304.2716
   4   2.0000      -1.405214       -38.2378
   5   2.0000      -1.073345       -29.2072
   6   2.0000      -0.878517       -23.9057
   7   2.0000      -0.731099       -19.8942
   8   2.0000      -0.695598       -18.9282
   9   2.0000      -0.604629       -16.4528
  10   2.0000      -0.595584       -16.2067
  11   2.0000      -0.536188       -14.5904
  12   2.0000      -0.527365       -14.3503
  13   2.0000      -0.402977       -10.9656
  14   2.0000      -0.389147       -10.5892
  15   0.0000       0.142053         3.8655
  16   0.0000       0.282207         7.6792
  17   0.0000       0.542989        14.7755
  18   0.0000       0.592687        16.1278
  19   0.0000       0.639437        17.4000

MULLIKEN ATOMIC CHARGES
-----------------------
   0 C :    0.182880
   1 O :   -0.363852
   2 C :   -0.180690
   3 C :   -0.214379
   4 H :    0.127104
   5 H :    0.141435
   6 H :    0.161126
   7 H :    0.146376
Sum of atomic charges:   -0.0000000

LOEWDIN ATOMIC CHARGES
----------------------
   0 C :    0.156545
   1 O :   -0.265559
   2 C :   -0.137577
   3 C :   -0.121742
   4 H :    0.069381
   5 H :    0.089464
   6 H :    0.110831
   7 H :    0.098658

  Mayer bond orders larger than 0.100000
B(  0-C ,  1-O ) :   1.9195 B(  0-C ,  2-C ) :   1.0123 B(  0-C ,  4-H ) :   0.9120
B(  2-C ,  3-C ) :   1.9455 B(  2-C ,  5-H ) :   0.9599 B(  3-C ,  6-H ) :   0.9549
B(  3-C ,  7-H ) :   0.9621

-----------------------------------------------------------------------------
         ABSORPTION SPECTRUM VIA TRANSITION ELECTRIC DIPOLE MOMENTS
-----------------------------------------------------------------------------
State   Energy    Wavelength  fosc         T2        TX        TY        TZ
        (cm-1)      (nm)                 (au**2)    (au)      (au)      (au)
-----------------------------------------------------------------------------
   1   34491.6    289.9   0.000392337   0.00374  -0.06023   0.00551  -0.00929

Dispersion correction           -0.025776679
FINAL SINGLE POINT ENERGY      -189.322547737078

DIPOLE MOMENT
-------------
                                X             Y             Z
Electronic contribution:     -1.90518      -1.67528      -0.34979
Nuclear contribution   :      2.26723       2.59216       0.59160
                        -----------------------------------------
Total Dipole Moment    :      0.36205       0.91689       0.24182
                        -----------------------------------------
Magnitude (a.u.)       :      1.01501
Magnitude (Debye)      :      2.57994

Rotational constants in cm-1:     0.765529     0.203947     0.164832
Rotational constants in MHz : 22949.991498  6114.164228  4941.524531

                             ****ORCA TERMINATED NORMALLY****
TOTAL RUN TIME: 0 days 0 hours 0 minutes 10 seconds 659 msec
