                         Program Version 5.0.3 -  RELEASE  -
|  1> ! B3LYP cc-pVDZ
|  2> !TightSCF
|  3> %scf
|  4>  ConvForced true
|  5>  convergence tight
|  6>  MaxIter 500
|  7> end
|  8>
|  9> %tddft
| 10>  nroots 1
| 11> end
| 12>
| 13> # 	9607
| 14> * xyz 0 1
| 15> 		C   -1.189551  -0.343623   0.001210
| 16> 		O   -1.437523  -1.371970   0.667614
| 17> 		C    0.047943   0.491912   0.222725
| 18> 		C    1.253759   0.091239  -0.154549
| 19> 		H   -2.028014   0.067924  -0.770677
| 20> 		H   -0.163181   1.350448   0.568077
| 21> 		H    1.358156  -1.053353  -0.446975
| 22> 		H    2.139491   0.801937  -0.072241
| 23> *
| 24>
| 25>                          ****END OF INPUT****

CARTESIAN COORDINATES (ANGSTROEM)
---------------------------------
  C     -1.189551   -0.343623    0.001210
  O     -1.437523   -1.371970    0.667614
  C      0.047943    0.491912    0.222725
  C      1.253759    0.091239   -0.154549
  H     -2.028014    0.067924   -0.770677
  H     -0.163181    1.350448    0.568077
  H      1.358156   -1.053353   -0.446975
  H      2.139491    0.801937   -0.072241

 Total Charge           Charge          ....    0
 Multiplicity           Mult            ....    1
 Number of Electrons    NEL             ....   30
 Basis Dimension        Dim             ....   76

ORBITAL ENERGIES
----------------

  NO   OCC          E(Eh)            E(eV)
   0   2.0000     -19.146700      -521.0082
   1   2.0000     -10.292292      -280.0675
   2   2.0000     -10.219557      -278.0883
   3   2.0000     -10.198316      -277.5103
   4   2.0000      -1.029871       -28.0242
   5   2.0000      -0.800614       -21.7858
   6   2.0000      -0.646978       -17.6052
   7   2.0000      -0.555848       -15.1254
   8   2.0000      -0.496822       -13.5192
   9   2.0000      -0.443814       -12.0768
  10   2.0000      -0.434519       -11.8239
  11   2.0000      -0.387063       -10.5325
  12   2.0000      -0.370560       -10.0835
  13   2.0000      -0.290817        -7.9135
  14   2.0000      -0.254432        -6.9235
  15   0.0000      -0.046517        -1.2658
  16   0.0000      -0.005338        -0.1453
  17   0.0000       0.070216         1.9107
  18   0.0000       0.074480         2.0267
  19   0.0000       0.103378         2.8131

MULLIKEN ATOMIC CHARGES
-----------------------
   0 C :    0.114380
   1 O :   -0.208445
   2 C :    0.056580
   3 C :   -0.021071
   4 H :    0.015856
   5 H :   -0.058886
   6 H :    0.054381
   7 H :    0.047205
Sum of atomic charges:   -0.0000000

LOEWDIN ATOMIC CHARGES
----------------------
   0 C :    0.004967
   1 O :   -0.032191
   2 C :   -0.040604
   3 C :   -0.025512
   4 H :    0.009979
   5 H :   -0.011567
   6 H :    0.052229
   7 H :    0.042700

  Mayer bond orders larger than 0.100000
B(  0-C ,  1-O ) :   2.1733 B(  0-C ,  2-C ) :   0.9867 B(  0-C ,  4-H ) :   0.8945
B(  2-C ,  3-C ) :   2.0180 B(  2-C ,  5-H ) :   0.9445 B(  3-C ,  6-H ) :   0.9310
B(  3-C ,  7-H ) :   0.9394

-----------------------------------------------------------------------------
         ABSORPTION SPECTRUM VIA TRANSITION ELECTRIC DIPOLE MOMENTS
-----------------------------------------------------------------------------
State   Energy    Wavelength  fosc         T2        TX        TY        TZ
        (cm-1)      (nm)                 (au**2)    (au)      (au)      (au)
-----------------------------------------------------------------------------
   1   30802.6    324.6   0.000200724   0.00215   0.01738  -0.04291   0.00145

FINAL SINGLE POINT ENERGY      -191.626424486016

DIPOLE MOMENT
-------------
                                X             Y             Z
Electronic contribution:     -2.16095      -1.45512       0.99378
Nuclear contribution   :      2.57093       2.27719      -1.39220
                        -----------------------------------------
Total Dipole Moment    :      0.40998       0.82207      -0.39842
                        -----------------------------------------
Magnitude (a.u.)       :      1.00131
Magnitude (Debye)      :      2.54512

Rotational constants in cm-1:     0.876576     0.174698     0.156446
Rotational constants in MHz : 26279.095630  5237.305069  4690.144553

                             ****ORCA TERMINATED NORMALLY****
TOTAL RUN TIME: 0 days 0 hours 3 minutes 21 seconds 34 msec
