                         Program Version 5.0.3 -  RELEASE  -
|  1> ! B3LYP cc-pVDZ
|  2> !TightSCF
|  3> %scf
|  4>  ConvForced true
|  5>  convergence tight
|  6>  MaxIter 500
|  7> end
|  8>
|  9> %tddft
| 10>  nroots 1
| 11> end
| 12>
| 13> # 	25596
| 14> * xyz 0 1
| 15> 		C   -0.524553  -0.410699  -0.079936
| 16> 		O   -0.626857  -1.658154   0.039582
| 17> 		C    0.621410   0.390895   0.044842
| 18> 		C    1.860870  -0.100177   0.003173
| 19> 		H   -1.450771   0.158908  -0.039619
| 20> 		H    0.364857   1.431681   0.117495
| 21> 		H    2.043313  -1.182398  -0.242710
| 22> 		H    2.631638   0.604002  -0.077102
| 23> *
| 24>
| 25>                          ****END OF INPUT****

CARTESIAN COORDINATES (ANGSTROEM)
---------------------------------
  C     -0.524553   -0.410699   -0.079936
  O     -0.626857   -1.658154    0.039582
  C      0.621410    0.390895    0.044842
  C      1.860870   -0.100177    0.003173
  H     -1.450771    0.158908   -0.039619
  H      0.364857    1.431681    0.117495
  H      2.043313   -1.182398   -0.242710
  H      2.631638    0.604002   -0.077102

 Total Charge           Charge          ....    0
 Multiplicity           Mult            ....    1
 Number of Electrons    NEL             ....   30
 Basis Dimension        Dim             ....   76

ORBITAL ENERGIES
----------------

  NO   OCC          E(Eh)            E(eV)
   0   2.0000     -19.131859      -520.6043
   1   2.0000     -10.263820      -279.2927
   2   2.0000     -10.218898      -278.0703
   3   2.0000     -10.203126      -277.6412
   4   2.0000      -1.015560       -27.6348
   5   2.0000      -0.810665       -22.0593
   6   2.0000      -0.678603       -18.4657
   7   2.0000      -0.538128       -14.6432
   8   2.0000      -0.516561       -14.0563
   9   2.0000      -0.446801       -12.1581
  10   2.0000      -0.417925       -11.3723
  11   2.0000      -0.388404       -10.5690
  12   2.0000      -0.385369       -10.4864
  13   2.0000      -0.289406        -7.8751
  14   2.0000      -0.249892        -6.7999
  15   0.0000      -0.082909        -2.2561
  16   0.0000       0.058971         1.6047
  17   0.0000       0.065283         1.7764
  18   0.0000       0.090791         2.4706
  19   0.0000       0.128430         3.4948

MULLIKEN ATOMIC CHARGES
-----------------------
   0 C :    0.186289
   1 O :   -0.233567
   2 C :   -0.090358
   3 C :    0.101597
   4 H :   -0.029021
   5 H :   -0.013931
   6 H :    0.055010
   7 H :    0.023980
Sum of atomic charges:    0.0000000

LOEWDIN ATOMIC CHARGES
----------------------
   0 C :   -0.025720
   1 O :   -0.049542
   2 C :   -0.076589
   3 C :    0.049279
   4 H :   -0.003498
   5 H :    0.032570
   6 H :    0.049173
   7 H :    0.024327

  Mayer bond orders larger than 0.100000
B(  0-C ,  1-O ) :   2.1307 B(  0-C ,  2-C ) :   1.1430 B(  0-C ,  4-H ) :   0.9226
B(  1-O ,  3-C ) :   0.1176 B(  2-C ,  3-C ) :   1.9234 B(  2-C ,  5-H ) :   0.9429
B(  3-C ,  6-H ) :   0.9348 B(  3-C ,  7-H ) :   0.9348

-----------------------------------------------------------------------------
         ABSORPTION SPECTRUM VIA TRANSITION ELECTRIC DIPOLE MOMENTS
-----------------------------------------------------------------------------
State   Energy    Wavelength  fosc         T2        TX        TY        TZ
        (cm-1)      (nm)                 (au**2)    (au)      (au)      (au)
-----------------------------------------------------------------------------
   1   23827.0    419.7   0.000083376   0.00115   0.00161   0.00246   0.03381

FINAL SINGLE POINT ENERGY      -191.684834417171

DIPOLE MOMENT
-------------
                                X             Y             Z
Electronic contribution:     -1.64958      -1.72847       0.11474
Nuclear contribution   :      2.20856       2.73610      -0.22680
                        -----------------------------------------
Total Dipole Moment    :      0.55898       1.00763      -0.11206
                        -----------------------------------------
Magnitude (a.u.)       :      1.15773
Magnitude (Debye)      :      2.94272

Rotational constants in cm-1:     0.789177     0.205614     0.163771
Rotational constants in MHz : 23658.927850  6164.139315  4909.722049

                             ****ORCA TERMINATED NORMALLY****
TOTAL RUN TIME: 0 days 0 hours 3 minutes 21 seconds 293 msec
