                         Program Version 5.0.3 -  RELEASE  -
|  1> ! HF-3c
|  2> !TightSCF
|  3> %scf
|  4>  ConvForced true
|  5>  convergence tight
|  6>  MaxIter 500
|  7> end
|  8>
|  9> %tddft
| 10>  nroots 1
| 11> end
| 12>
| 13> # 	24737
| 14> * xyz 0 1
| 15> 		C   -0.604398  -0.409699  -0.031055
| 16> 		O   -0.543108  -1.627629   0.000390
| 17> 		C    0.588196   0.428569   0.008908
| 18> 		C    1.868083  -0.128350   0.004729
| 19> 		H   -1.609351  -0.065052   0.228339
| 20> 		H    0.461793   1.546748  -0.058862
| 21> 		H    1.775773  -1.402099   0.084212
| 22> 		H    2.862827   0.280987  -0.062644
| 23> *
| 24>
| 25>                          ****END OF INPUT****

CARTESIAN COORDINATES (ANGSTROEM)
---------------------------------
  C     -0.604398   -0.409699   -0.031055
  O     -0.543108   -1.627629    0.000390
  C      0.588196    0.428569    0.008908
  C      1.868083   -0.128350    0.004729
  H     -1.609351   -0.065052    0.228339
  H      0.461793    1.546748   -0.058862
  H      1.775773   -1.402099    0.084212
  H      2.862827    0.280987   -0.062644

 Total Charge           Charge          ....    0
 Multiplicity           Mult            ....    1
 Number of Electrons    NEL             ....   30
 Basis Dimension        Dim             ....   24

ORBITAL ENERGIES
----------------

  NO   OCC          E(Eh)            E(eV)
   0   2.0000     -20.345180      -553.6205
   1   2.0000     -11.286345      -307.1171
   2   2.0000     -11.185206      -304.3649
   3   2.0000     -11.177893      -304.1659
   4   2.0000      -1.391186       -37.8561
   5   2.0000      -1.046882       -28.4871
   6   2.0000      -0.875593       -23.8261
   7   2.0000      -0.743874       -20.2418
   8   2.0000      -0.682304       -18.5664
   9   2.0000      -0.607279       -16.5249
  10   2.0000      -0.577926       -15.7262
  11   2.0000      -0.529917       -14.4198
  12   2.0000      -0.481627       -13.1057
  13   2.0000      -0.412356       -11.2208
  14   2.0000      -0.368295       -10.0218
  15   0.0000       0.124221         3.3802
  16   0.0000       0.302146         8.2218
  17   0.0000       0.475356        12.9351
  18   0.0000       0.551704        15.0126
  19   0.0000       0.621574        16.9139

MULLIKEN ATOMIC CHARGES
-----------------------
   0 C :    0.139209
   1 O :   -0.359992
   2 C :   -0.183734
   3 C :   -0.187779
   4 H :    0.145170
   5 H :    0.136382
   6 H :    0.162917
   7 H :    0.147828
Sum of atomic charges:   -0.0000000

LOEWDIN ATOMIC CHARGES
----------------------
   0 C :    0.129148
   1 O :   -0.270580
   2 C :   -0.148403
   3 C :   -0.098534
   4 H :    0.080670
   5 H :    0.088863
   6 H :    0.122915
   7 H :    0.095921

  Mayer bond orders larger than 0.100000
B(  0-C ,  1-O ) :   1.8763 B(  0-C ,  2-C ) :   1.0519 B(  0-C ,  4-H ) :   0.9331
B(  2-C ,  3-C ) :   1.9149 B(  2-C ,  5-H ) :   0.9591 B(  3-C ,  6-H ) :   0.9478
B(  3-C ,  7-H ) :   0.9660

-----------------------------------------------------------------------------
         ABSORPTION SPECTRUM VIA TRANSITION ELECTRIC DIPOLE MOMENTS
-----------------------------------------------------------------------------
State   Energy    Wavelength  fosc         T2        TX        TY        TZ
        (cm-1)      (nm)                 (au**2)    (au)      (au)      (au)
-----------------------------------------------------------------------------
   1   30746.7    325.2   0.000258843   0.00277  -0.04407  -0.00813   0.02763

Dispersion correction           -0.025529225
FINAL SINGLE POINT ENERGY      -189.311031530153

DIPOLE MOMENT
-------------
                                X             Y             Z
Electronic contribution:     -1.73808      -1.32873      -0.16146
Nuclear contribution   :      2.11990       2.12807       0.17994
                        -----------------------------------------
Total Dipole Moment    :      0.38182       0.79934       0.01848
                        -----------------------------------------
Magnitude (a.u.)       :      0.88604
Magnitude (Debye)      :      2.25214

Rotational constants in cm-1:     0.716702     0.212933     0.164416
Rotational constants in MHz : 21486.178486  6383.576556  4929.080611

                             ****ORCA TERMINATED NORMALLY****
TOTAL RUN TIME: 0 days 0 hours 0 minutes 10 seconds 113 msec
