                         Program Version 5.0.3 -  RELEASE  -
|  1> ! B3LYP cc-pVDZ
|  2> !TightSCF
|  3> %scf
|  4>  ConvForced true
|  5>  convergence tight
|  6>  MaxIter 500
|  7> end
|  8>
|  9> %tddft
| 10>  nroots 1
| 11> end
| 12>
| 13> # 	19923
| 14> * xyz 0 1
| 15> 		C   -1.192395  -0.283684   0.019881
| 16> 		O   -1.180126  -1.442011  -0.295465
| 17> 		C    0.031741   0.546804  -0.027635
| 18> 		C    1.226056  -0.039595   0.152986
| 19> 		H   -2.155642   0.199455   0.337245
| 20> 		H   -0.080739   1.513213  -0.424320
| 21> 		H    1.147536  -1.018389   0.325274
| 22> 		H    2.221188   0.472681  -0.097825
| 23> *
| 24>
| 25>                          ****END OF INPUT****

CARTESIAN COORDINATES (ANGSTROEM)
---------------------------------
  C     -1.192395   -0.283684    0.019881
  O     -1.180126   -1.442011   -0.295465
  C      0.031741    0.546804   -0.027635
  C      1.226056   -0.039595    0.152986
  H     -2.155642    0.199455    0.337245
  H     -0.080739    1.513213   -0.424320
  H      1.147536   -1.018389    0.325274
  H      2.221188    0.472681   -0.097825

 Total Charge           Charge          ....    0
 Multiplicity           Mult            ....    1
 Number of Electrons    NEL             ....   30
 Basis Dimension        Dim             ....   76

ORBITAL ENERGIES
----------------

  NO   OCC          E(Eh)            E(eV)
   0   2.0000     -19.139878      -520.8226
   1   2.0000     -10.275744      -279.6172
   2   2.0000     -10.204496      -277.6784
   3   2.0000     -10.198743      -277.5219
   4   2.0000      -1.054954       -28.7068
   5   2.0000      -0.795990       -21.6600
   6   2.0000      -0.654309       -17.8047
   7   2.0000      -0.549416       -14.9504
   8   2.0000      -0.510101       -13.8806
   9   2.0000      -0.446554       -12.1514
  10   2.0000      -0.435196       -11.8423
  11   2.0000      -0.394655       -10.7391
  12   2.0000      -0.386165       -10.5081
  13   2.0000      -0.286638        -7.7998
  14   2.0000      -0.255198        -6.9443
  15   0.0000      -0.060951        -1.6585
  16   0.0000       0.037239         1.0133
  17   0.0000       0.073053         1.9879
  18   0.0000       0.097367         2.6495
  19   0.0000       0.122709         3.3391

MULLIKEN ATOMIC CHARGES
-----------------------
   0 C :    0.167115
   1 O :   -0.181606
   2 C :   -0.100354
   3 C :    0.105319
   4 H :   -0.014786
   5 H :   -0.014893
   6 H :   -0.007578
   7 H :    0.046783
Sum of atomic charges:    0.0000000

LOEWDIN ATOMIC CHARGES
----------------------
   0 C :   -0.034453
   1 O :    0.009019
   2 C :   -0.064600
   3 C :    0.028427
   4 H :   -0.004122
   5 H :    0.018090
   6 H :    0.001057
   7 H :    0.046581

  Mayer bond orders larger than 0.100000
B(  0-C ,  1-O ) :   2.1967 B(  0-C ,  2-C ) :   1.0301 B(  0-C ,  4-H ) :   0.9176
B(  2-C ,  3-C ) :   1.9873 B(  2-C ,  5-H ) :   0.9489 B(  3-C ,  6-H ) :   0.9249
B(  3-C ,  7-H ) :   0.9494

-----------------------------------------------------------------------------
         ABSORPTION SPECTRUM VIA TRANSITION ELECTRIC DIPOLE MOMENTS
-----------------------------------------------------------------------------
State   Energy    Wavelength  fosc         T2        TX        TY        TZ
        (cm-1)      (nm)                 (au**2)    (au)      (au)      (au)
-----------------------------------------------------------------------------
   1   29694.6    336.8   0.000679091   0.00753  -0.08267  -0.01989   0.01727

FINAL SINGLE POINT ENERGY      -191.655430893521

DIPOLE MOMENT
-------------
                                X             Y             Z
Electronic contribution:     -1.88196      -1.54919      -0.20232
Nuclear contribution   :      2.18418       2.36438       0.31826
                        -----------------------------------------
Total Dipole Moment    :      0.30222       0.81519       0.11594
                        -----------------------------------------
Magnitude (a.u.)       :      0.87710
Magnitude (Debye)      :      2.22942

Rotational constants in cm-1:     0.765206     0.212675     0.170331
Rotational constants in MHz : 22940.307255  6375.825395  5106.408139

                             ****ORCA TERMINATED NORMALLY****
TOTAL RUN TIME: 0 days 0 hours 3 minutes 22 seconds 664 msec
