                         Program Version 5.0.3 -  RELEASE  -
|  1> ! B3LYP cc-pVDZ
|  2> !TightSCF
|  3> %scf
|  4>  ConvForced true
|  5>  convergence tight
|  6>  MaxIter 500
|  7> end
|  8>
|  9> %tddft
| 10>  nroots 1
| 11> end
| 12>
| 13> # 	17373
| 14> * xyz 0 1
| 15> 		C   -1.200414  -0.345894  -0.022472
| 16> 		O   -1.950559  -0.728490  -0.830373
| 17> 		C    0.053717   0.434363  -0.220419
| 18> 		C    1.273801   0.084261   0.176185
| 19> 		H   -1.467415  -0.638203   1.039010
| 20> 		H   -0.028769   1.276334  -0.932099
| 21> 		H    1.258514  -0.766866   0.951211
| 22> 		H    2.103813   0.723222  -0.198426
| 23> *
| 24>
| 25>                          ****END OF INPUT****

CARTESIAN COORDINATES (ANGSTROEM)
---------------------------------
  C     -1.200414   -0.345894   -0.022472
  O     -1.950559   -0.728490   -0.830373
  C      0.053717    0.434363   -0.220419
  C      1.273801    0.084261    0.176185
  H     -1.467415   -0.638203    1.039010
  H     -0.028769    1.276334   -0.932099
  H      1.258514   -0.766866    0.951211
  H      2.103813    0.723222   -0.198426

 Total Charge           Charge          ....    0
 Multiplicity           Mult            ....    1
 Number of Electrons    NEL             ....   30
 Basis Dimension        Dim             ....   76

ORBITAL ENERGIES
----------------

  NO   OCC          E(Eh)            E(eV)
   0   2.0000     -19.142678      -520.8987
   1   2.0000     -10.277835      -279.6741
   2   2.0000     -10.219024      -278.0738
   3   2.0000     -10.206006      -277.7195
   4   2.0000      -1.075653       -29.2700
   5   2.0000      -0.799418       -21.7533
   6   2.0000      -0.642510       -17.4836
   7   2.0000      -0.556100       -15.1323
   8   2.0000      -0.489118       -13.3096
   9   2.0000      -0.464605       -12.6425
  10   2.0000      -0.436055       -11.8657
  11   2.0000      -0.408148       -11.1063
  12   2.0000      -0.376332       -10.2405
  13   2.0000      -0.293115        -7.9761
  14   2.0000      -0.253021        -6.8851
  15   0.0000      -0.048659        -1.3241
  16   0.0000       0.021468         0.5842
  17   0.0000       0.071884         1.9561
  18   0.0000       0.082510         2.2452
  19   0.0000       0.110939         3.0188

MULLIKEN ATOMIC CHARGES
-----------------------
   0 C :    0.154671
   1 O :   -0.144307
   2 C :   -0.098433
   3 C :    0.027022
   4 H :   -0.035156
   5 H :    0.013682
   6 H :    0.036473
   7 H :    0.046048
Sum of atomic charges:    0.0000000

LOEWDIN ATOMIC CHARGES
----------------------
   0 C :   -0.060197
   1 O :    0.048362
   2 C :   -0.071227
   3 C :   -0.024599
   4 H :   -0.015065
   5 H :    0.034596
   6 H :    0.043479
   7 H :    0.044653

  Mayer bond orders larger than 0.100000
B(  0-C ,  1-O ) :   2.2573 B(  0-C ,  2-C ) :   0.9974 B(  0-C ,  4-H ) :   0.9085
B(  2-C ,  3-C ) :   2.0073 B(  2-C ,  5-H ) :   0.9340 B(  3-C ,  6-H ) :   0.9331
B(  3-C ,  7-H ) :   0.9305

-----------------------------------------------------------------------------
         ABSORPTION SPECTRUM VIA TRANSITION ELECTRIC DIPOLE MOMENTS
-----------------------------------------------------------------------------
State   Energy    Wavelength  fosc         T2        TX        TY        TZ
        (cm-1)      (nm)                 (au**2)    (au)      (au)      (au)
-----------------------------------------------------------------------------
   1   31983.0    312.7   0.000347338   0.00358  -0.05708   0.00632  -0.01664

FINAL SINGLE POINT ENERGY      -191.643771089193

DIPOLE MOMENT
-------------
                                X             Y             Z
Electronic contribution:     -2.84117      -0.77552      -1.24521
Nuclear contribution   :      3.59003       1.15050       1.68263
                        -----------------------------------------
Total Dipole Moment    :      0.74886       0.37497       0.43743
                        -----------------------------------------
Magnitude (a.u.)       :      0.94485
Magnitude (Debye)      :      2.40162

Rotational constants in cm-1:     1.325173     0.154501     0.147778
Rotational constants in MHz : 39727.695241  4631.828017  4430.264668

                             ****ORCA TERMINATED NORMALLY****
TOTAL RUN TIME: 0 days 0 hours 3 minutes 23 seconds 604 msec
