                         Program Version 5.0.3 -  RELEASE  -
|  1> ! HF-3c
|  2> !TightSCF
|  3> %scf
|  4>  ConvForced true
|  5>  convergence tight
|  6>  MaxIter 500
|  7> end
|  8>
|  9> %tddft
| 10>  nroots 1
| 11> end
| 12>
| 13> # 	13690
| 14> * xyz 0 1
| 15> 		C   -1.196230  -0.332183   0.051829
| 16> 		O   -1.817031  -0.870008   0.877886
| 17> 		C   -0.063026   0.499925   0.193041
| 18> 		C    1.229212   0.014820  -0.187407
| 19> 		H   -1.488578  -0.527081  -0.891717
| 20> 		H   -0.097962   1.567615   0.692673
| 21> 		H    1.191379  -0.912944  -0.662362
| 22> 		H    2.192375   0.567125  -0.075242
| 23> *
| 24>
| 25>                          ****END OF INPUT****

CARTESIAN COORDINATES (ANGSTROEM)
---------------------------------
  C     -1.196230   -0.332183    0.051829
  O     -1.817031   -0.870008    0.877886
  C     -0.063026    0.499925    0.193041
  C      1.229212    0.014820   -0.187407
  H     -1.488578   -0.527081   -0.891717
  H     -0.097962    1.567615    0.692673
  H      1.191379   -0.912944   -0.662362
  H      2.192375    0.567125   -0.075242

 Total Charge           Charge          ....    0
 Multiplicity           Mult            ....    1
 Number of Electrons    NEL             ....   30
 Basis Dimension        Dim             ....   24

ORBITAL ENERGIES
----------------

  NO   OCC          E(Eh)            E(eV)
   0   2.0000     -20.390126      -554.8435
   1   2.0000     -11.317979      -307.9779
   2   2.0000     -11.186541      -304.4013
   3   2.0000     -11.179029      -304.1969
   4   2.0000      -1.447374       -39.3851
   5   2.0000      -1.067504       -29.0483
   6   2.0000      -0.895650       -24.3719
   7   2.0000      -0.789019       -21.4703
   8   2.0000      -0.684839       -18.6354
   9   2.0000      -0.643585       -17.5129
  10   2.0000      -0.607453       -16.5296
  11   2.0000      -0.563608       -15.3365
  12   2.0000      -0.508152       -13.8275
  13   2.0000      -0.425001       -11.5649
  14   2.0000      -0.373018       -10.1503
  15   0.0000       0.155457         4.2302
  16   0.0000       0.223379         6.0784
  17   0.0000       0.575126        15.6500
  18   0.0000       0.610007        16.5991
  19   0.0000       0.679869        18.5002

MULLIKEN ATOMIC CHARGES
-----------------------
   0 C :    0.145458
   1 O :   -0.338141
   2 C :   -0.151511
   3 C :   -0.233130
   4 H :    0.139488
   5 H :    0.157346
   6 H :    0.132152
   7 H :    0.148339
Sum of atomic charges:   -0.0000000

LOEWDIN ATOMIC CHARGES
----------------------
   0 C :    0.132594
   1 O :   -0.230635
   2 C :   -0.118850
   3 C :   -0.140398
   4 H :    0.064488
   5 H :    0.111497
   6 H :    0.081120
   7 H :    0.100184

  Mayer bond orders larger than 0.100000
B(  0-C ,  1-O ) :   1.9232 B(  0-C ,  2-C ) :   1.0218 B(  0-C ,  4-H ) :   0.9228
B(  2-C ,  3-C ) :   1.9617 B(  2-C ,  5-H ) :   0.9461 B(  3-C ,  6-H ) :   0.9716
B(  3-C ,  7-H ) :   0.9662

-----------------------------------------------------------------------------
         ABSORPTION SPECTRUM VIA TRANSITION ELECTRIC DIPOLE MOMENTS
-----------------------------------------------------------------------------
State   Energy    Wavelength  fosc         T2        TX        TY        TZ
        (cm-1)      (nm)                 (au**2)    (au)      (au)      (au)
-----------------------------------------------------------------------------
   1   35631.3    280.7   0.000011486   0.00011   0.00383  -0.00947  -0.00137

Dispersion correction           -0.025286975
FINAL SINGLE POINT ENERGY      -189.275502255415

DIPOLE MOMENT
-------------
                                X             Y             Z
Electronic contribution:     -2.82478      -0.87949       1.21792
Nuclear contribution   :      3.51529       1.37986      -1.79253
                        -----------------------------------------
Total Dipole Moment    :      0.69051       0.50037      -0.57461
                        -----------------------------------------
Magnitude (a.u.)       :      1.02828
Magnitude (Debye)      :      2.61367

Rotational constants in cm-1:     1.125628     0.163478     0.156567
Rotational constants in MHz : 33745.471574  4900.951068  4693.773888

                             ****ORCA TERMINATED NORMALLY****
TOTAL RUN TIME: 0 days 0 hours 0 minutes 8 seconds 736 msec
