                         Program Version 5.0.3 -  RELEASE  -
|  1> ! HF-3c
|  2> !TightSCF
|  3> %scf
|  4>  ConvForced true
|  5>  convergence tight
|  6>  MaxIter 500
|  7> end
|  8>
|  9> %tddft
| 10>  nroots 1
| 11> end
| 12>
| 13> # 	31960
| 14> * xyz 0 1
| 15> 		C   -0.505048  -0.432511   0.020508
| 16> 		O   -0.645002  -1.653448  -0.018721
| 17> 		C    0.635409   0.391053  -0.038443
| 18> 		C    1.862677  -0.067042   0.021118
| 19> 		H   -1.577911  -0.008159   0.282195
| 20> 		H    0.258023   1.495753  -0.144183
| 21> 		H    1.911208  -1.162625   0.012474
| 22> 		H    2.845859   0.440345   0.103371
| 23> *
| 24>
| 25>                          ****END OF INPUT****

CARTESIAN COORDINATES (ANGSTROEM)
---------------------------------
  C     -0.505048   -0.432511    0.020508
  O     -0.645002   -1.653448   -0.018721
  C      0.635409    0.391053   -0.038443
  C      1.862677   -0.067042    0.021118
  H     -1.577911   -0.008159    0.282195
  H      0.258023    1.495753   -0.144183
  H      1.911208   -1.162625    0.012474
  H      2.845859    0.440345    0.103371

 Total Charge           Charge          ....    0
 Multiplicity           Mult            ....    1
 Number of Electrons    NEL             ....   30
 Basis Dimension        Dim             ....   24

ORBITAL ENERGIES
----------------

  NO   OCC          E(Eh)            E(eV)
   0   2.0000     -20.340576      -553.4952
   1   2.0000     -11.278347      -306.8994
   2   2.0000     -11.202647      -304.8395
   3   2.0000     -11.200635      -304.7848
   4   2.0000      -1.378617       -37.5141
   5   2.0000      -1.095554       -29.8115
   6   2.0000      -0.898372       -24.4460
   7   2.0000      -0.726046       -19.7567
   8   2.0000      -0.692683       -18.8489
   9   2.0000      -0.628699       -17.1078
  10   2.0000      -0.582001       -15.8370
  11   2.0000      -0.538353       -14.6493
  12   2.0000      -0.501976       -13.6595
  13   2.0000      -0.399620       -10.8742
  14   2.0000      -0.395296       -10.7565
  15   0.0000       0.126217         3.4345
  16   0.0000       0.321684         8.7535
  17   0.0000       0.484979        13.1970
  18   0.0000       0.601227        16.3602
  19   0.0000       0.639990        17.4150

MULLIKEN ATOMIC CHARGES
-----------------------
   0 C :    0.149220
   1 O :   -0.356639
   2 C :   -0.181789
   3 C :   -0.212189
   4 H :    0.134115
   5 H :    0.150495
   6 H :    0.159507
   7 H :    0.157281
Sum of atomic charges:   -0.0000000

LOEWDIN ATOMIC CHARGES
----------------------
   0 C :    0.129640
   1 O :   -0.271490
   2 C :   -0.138740
   3 C :   -0.112090
   4 H :    0.077741
   5 H :    0.103454
   6 H :    0.105700
   7 H :    0.105785

  Mayer bond orders larger than 0.100000
B(  0-C ,  1-O ) :   1.8764 B(  0-C ,  2-C ) :   1.0629 B(  0-C ,  4-H ) :   0.9287
B(  2-C ,  3-C ) :   1.9300 B(  2-C ,  5-H ) :   0.9471 B(  3-C ,  6-H ) :   0.9538
B(  3-C ,  7-H ) :   0.9609

-----------------------------------------------------------------------------
         ABSORPTION SPECTRUM VIA TRANSITION ELECTRIC DIPOLE MOMENTS
-----------------------------------------------------------------------------
State   Energy    Wavelength  fosc         T2        TX        TY        TZ
        (cm-1)      (nm)                 (au**2)    (au)      (au)      (au)
-----------------------------------------------------------------------------
   1   29158.2    343.0   0.000086974   0.00098   0.02124  -0.00134   0.02301

Dispersion correction           -0.025641947
FINAL SINGLE POINT ENERGY      -189.327335752374

DIPOLE MOMENT
-------------
                                X             Y             Z
Electronic contribution:     -1.61067      -1.55044      -0.17544
Nuclear contribution   :      2.06712       2.50695       0.23825
                        -----------------------------------------
Total Dipole Moment    :      0.45645       0.95651       0.06281
                        -----------------------------------------
Magnitude (a.u.)       :      1.06170
Magnitude (Debye)      :      2.69863

Rotational constants in cm-1:     0.824216     0.200689     0.161843
Rotational constants in MHz : 24709.378691  6016.490379  4851.931499

                             ****ORCA TERMINATED NORMALLY****
TOTAL RUN TIME: 0 days 0 hours 0 minutes 13 seconds 368 msec
