                         Program Version 5.0.3 -  RELEASE  -
|  1> ! B3LYP cc-pVDZ
|  2> !TightSCF
|  3> %scf
|  4>  ConvForced true
|  5>  convergence tight
|  6>  MaxIter 500
|  7> end
|  8>
|  9> %tddft
| 10>  nroots 1
| 11> end
| 12>
| 13> # 	7874
| 14> * xyz 0 1
| 15> 		C   -1.191889  -0.268676  -0.036484
| 16> 		O   -1.962900  -0.630611  -0.935848
| 17> 		C    0.120126   0.456529  -0.205124
| 18> 		C    1.233486   0.072789   0.231058
| 19> 		H   -1.416289  -0.752312   0.961731
| 20> 		H   -0.013299   1.237161  -0.918848
| 21> 		H    1.193866  -0.616560   0.941701
| 22> 		H    2.026902   0.549594  -0.042600
| 23> *
| 24>
| 25>                          ****END OF INPUT****

CARTESIAN COORDINATES (ANGSTROEM)
---------------------------------
  C     -1.191889   -0.268676   -0.036484
  O     -1.962900   -0.630611   -0.935848
  C      0.120126    0.456529   -0.205124
  C      1.233486    0.072789    0.231058
  H     -1.416289   -0.752312    0.961731
  H     -0.013299    1.237161   -0.918848
  H      1.193866   -0.616560    0.941701
  H      2.026902    0.549594   -0.042600

 Total Charge           Charge          ....    0
 Multiplicity           Mult            ....    1
 Number of Electrons    NEL             ....   30
 Basis Dimension        Dim             ....   76

ORBITAL ENERGIES
----------------

  NO   OCC          E(Eh)            E(eV)
   0   2.0000     -19.143599      -520.9238
   1   2.0000     -10.282047      -279.7887
   2   2.0000     -10.200153      -277.5603
   3   2.0000     -10.184432      -277.1325
   4   2.0000      -1.033995       -28.1364
   5   2.0000      -0.826061       -22.4783
   6   2.0000      -0.658284       -17.9128
   7   2.0000      -0.571397       -15.5485
   8   2.0000      -0.506187       -13.7741
   9   2.0000      -0.476748       -12.9730
  10   2.0000      -0.428802       -11.6683
  11   2.0000      -0.402279       -10.9466
  12   2.0000      -0.374836       -10.1998
  13   2.0000      -0.305186        -8.3045
  14   2.0000      -0.253188        -6.8896
  15   0.0000      -0.055534        -1.5111
  16   0.0000       0.027449         0.7469
  17   0.0000       0.087783         2.3887
  18   0.0000       0.091879         2.5002
  19   0.0000       0.122763         3.3406

MULLIKEN ATOMIC CHARGES
-----------------------
   0 C :    0.142357
   1 O :   -0.205757
   2 C :   -0.121165
   3 C :    0.268415
   4 H :   -0.016017
   5 H :   -0.011858
   6 H :   -0.031210
   7 H :   -0.024765
Sum of atomic charges:   -0.0000000

LOEWDIN ATOMIC CHARGES
----------------------
   0 C :   -0.002446
   1 O :   -0.022460
   2 C :   -0.044529
   3 C :    0.027096
   4 H :   -0.005912
   5 H :    0.028122
   6 H :    0.012562
   7 H :    0.007568

  Mayer bond orders larger than 0.100000
B(  0-C ,  1-O ) :   2.1680 B(  0-C ,  2-C ) :   1.0145 B(  0-C ,  4-H ) :   0.9188
B(  2-C ,  3-C ) :   2.0311 B(  2-C ,  5-H ) :   0.9398 B(  3-C ,  6-H ) :   0.9135
B(  3-C ,  7-H ) :   0.9139

-----------------------------------------------------------------------------
         ABSORPTION SPECTRUM VIA TRANSITION ELECTRIC DIPOLE MOMENTS
-----------------------------------------------------------------------------
State   Energy    Wavelength  fosc         T2        TX        TY        TZ
        (cm-1)      (nm)                 (au**2)    (au)      (au)      (au)
-----------------------------------------------------------------------------
   1   29320.6    341.1   0.000316955   0.00356  -0.04176   0.03005  -0.03020

FINAL SINGLE POINT ENERGY      -191.630666051438

DIPOLE MOMENT
-------------
                                X             Y             Z
Electronic contribution:     -2.66182      -0.47880      -1.23613
Nuclear contribution   :      3.50993       0.82203       1.82077
                        -----------------------------------------
Total Dipole Moment    :      0.84811       0.34323       0.58465
                        -----------------------------------------
Magnitude (a.u.)       :      1.08577
Magnitude (Debye)      :      2.75981

Rotational constants in cm-1:     1.386033     0.155167     0.148325
Rotational constants in MHz : 41552.236896  4651.775207  4446.673380

                             ****ORCA TERMINATED NORMALLY****
TOTAL RUN TIME: 0 days 0 hours 2 minutes 43 seconds 73 msec
