                         Program Version 5.0.3 -  RELEASE  -
|  1> ! HF-3c
|  2> !TightSCF
|  3> %scf
|  4>  ConvForced true
|  5>  convergence tight
|  6>  MaxIter 500
|  7> end
|  8>
|  9> %tddft
| 10>  nroots 1
| 11> end
| 12>
| 13> # 	23483
| 14> * xyz 0 1
| 15> 		C   -0.596221  -0.469362   0.028407
| 16> 		O   -0.628817  -1.622451  -0.032801
| 17> 		C    0.624806   0.370194  -0.029982
| 18> 		C    1.910802  -0.062136   0.022426
| 19> 		H   -1.586848   0.091535   0.288153
| 20> 		H    0.415040   1.375142  -0.148147
| 21> 		H    2.137460  -1.143087   0.246531
| 22> 		H    2.841525   0.598874  -0.136474
| 23> *
| 24>
| 25>                          ****END OF INPUT****

CARTESIAN COORDINATES (ANGSTROEM)
---------------------------------
  C     -0.596221   -0.469362    0.028407
  O     -0.628817   -1.622451   -0.032801
  C      0.624806    0.370194   -0.029982
  C      1.910802   -0.062136    0.022426
  H     -1.586848    0.091535    0.288153
  H      0.415040    1.375142   -0.148147
  H      2.137460   -1.143087    0.246531
  H      2.841525    0.598874   -0.136474

 Total Charge           Charge          ....    0
 Multiplicity           Mult            ....    1
 Number of Electrons    NEL             ....   30
 Basis Dimension        Dim             ....   24

ORBITAL ENERGIES
----------------

  NO   OCC          E(Eh)            E(eV)
   0   2.0000     -20.378257      -554.5206
   1   2.0000     -11.307190      -307.6843
   2   2.0000     -11.192857      -304.5731
   3   2.0000     -11.181294      -304.2585
   4   2.0000      -1.442313       -39.2473
   5   2.0000      -1.064658       -28.9708
   6   2.0000      -0.880756       -23.9666
   7   2.0000      -0.740976       -20.1630
   8   2.0000      -0.704280       -19.1644
   9   2.0000      -0.618119       -16.8199
  10   2.0000      -0.600102       -16.3296
  11   2.0000      -0.558852       -15.2071
  12   2.0000      -0.527408       -14.3515
  13   2.0000      -0.403813       -10.9883
  14   2.0000      -0.388809       -10.5800
  15   0.0000       0.138790         3.7767
  16   0.0000       0.316063         8.6005
  17   0.0000       0.503458        13.6998
  18   0.0000       0.608501        16.5582
  19   0.0000       0.642422        17.4812

MULLIKEN ATOMIC CHARGES
-----------------------
   0 C :    0.188797
   1 O :   -0.365017
   2 C :   -0.194600
   3 C :   -0.194358
   4 H :    0.128460
   5 H :    0.136585
   6 H :    0.151265
   7 H :    0.148868
Sum of atomic charges:    0.0000000

LOEWDIN ATOMIC CHARGES
----------------------
   0 C :    0.148807
   1 O :   -0.249993
   2 C :   -0.152264
   3 C :   -0.101418
   4 H :    0.068898
   5 H :    0.082313
   6 H :    0.101197
   7 H :    0.102460

  Mayer bond orders larger than 0.100000
B(  0-C ,  1-O ) :   1.9169 B(  0-C ,  2-C ) :   1.0115 B(  0-C ,  4-H ) :   0.9111
B(  2-C ,  3-C ) :   1.9464 B(  2-C ,  5-H ) :   0.9626 B(  3-C ,  6-H ) :   0.9609
B(  3-C ,  7-H ) :   0.9620

-----------------------------------------------------------------------------
         ABSORPTION SPECTRUM VIA TRANSITION ELECTRIC DIPOLE MOMENTS
-----------------------------------------------------------------------------
State   Energy    Wavelength  fosc         T2        TX        TY        TZ
        (cm-1)      (nm)                 (au**2)    (au)      (au)      (au)
-----------------------------------------------------------------------------
   1   35142.7    284.6   0.000038185   0.00036   0.01623   0.00117  -0.00964

Dispersion correction           -0.025094592
FINAL SINGLE POINT ENERGY      -189.316851267229

DIPOLE MOMENT
-------------
                                X             Y             Z
Electronic contribution:     -1.99843      -1.78127      -0.15847
Nuclear contribution   :      2.41532       2.65350       0.23562
                        -----------------------------------------
Total Dipole Moment    :      0.41689       0.87223       0.07714
                        -----------------------------------------
Magnitude (a.u.)       :      0.96981
Magnitude (Debye)      :      2.46506

Rotational constants in cm-1:     0.829162     0.194656     0.158326
Rotational constants in MHz : 24857.664931  5835.650411  4746.507866

                             ****ORCA TERMINATED NORMALLY****
TOTAL RUN TIME: 0 days 0 hours 0 minutes 11 seconds 547 msec
