                         Program Version 5.0.3 -  RELEASE  -
|  1> ! HF-3c
|  2> !TightSCF
|  3> %scf
|  4>  ConvForced true
|  5>  convergence tight
|  6>  MaxIter 500
|  7> end
|  8>
|  9> %tddft
| 10>  nroots 1
| 11> end
| 12>
| 13> # 	6591
| 14> * xyz 0 1
| 15> 		C   -1.216021  -0.372314   0.028132
| 16> 		O   -1.595215  -1.236688   0.708453
| 17> 		C    0.006937   0.423664   0.203949
| 18> 		C    1.231730   0.059265  -0.161994
| 19> 		H   -1.798355  -0.046447  -0.838187
| 20> 		H   -0.126474   1.349228   0.628725
| 21> 		H    1.356044  -0.855923  -0.587508
| 22> 		H    2.112763   0.708338   0.010996
| 23> *
| 24>
| 25>                          ****END OF INPUT****

CARTESIAN COORDINATES (ANGSTROEM)
---------------------------------
  C     -1.216021   -0.372314    0.028132
  O     -1.595215   -1.236688    0.708453
  C      0.006937    0.423664    0.203949
  C      1.231730    0.059265   -0.161994
  H     -1.798355   -0.046447   -0.838187
  H     -0.126474    1.349228    0.628725
  H      1.356044   -0.855923   -0.587508
  H      2.112763    0.708338    0.010996

 Total Charge           Charge          ....    0
 Multiplicity           Mult            ....    1
 Number of Electrons    NEL             ....   30
 Basis Dimension        Dim             ....   24

ORBITAL ENERGIES
----------------

  NO   OCC          E(Eh)            E(eV)
   0   2.0000     -20.398039      -555.0588
   1   2.0000     -11.319000      -308.0056
   2   2.0000     -11.193651      -304.5947
   3   2.0000     -11.186872      -304.4103
   4   2.0000      -1.448746       -39.4224
   5   2.0000      -1.090604       -29.6768
   6   2.0000      -0.901077       -24.5196
   7   2.0000      -0.777986       -21.1701
   8   2.0000      -0.711874       -19.3711
   9   2.0000      -0.643179       -17.5018
  10   2.0000      -0.626854       -17.0576
  11   2.0000      -0.569109       -15.4862
  12   2.0000      -0.528892       -14.3919
  13   2.0000      -0.421504       -11.4697
  14   2.0000      -0.404893       -11.0177
  15   0.0000       0.191106         5.2003
  16   0.0000       0.220676         6.0049
  17   0.0000       0.574214        15.6251
  18   0.0000       0.665087        18.0979
  19   0.0000       0.716357        19.4931

MULLIKEN ATOMIC CHARGES
-----------------------
   0 C :    0.184551
   1 O :   -0.344016
   2 C :   -0.174225
   3 C :   -0.242667
   4 H :    0.135993
   5 H :    0.150000
   6 H :    0.140292
   7 H :    0.150072
Sum of atomic charges:    0.0000000

LOEWDIN ATOMIC CHARGES
----------------------
   0 C :    0.155724
   1 O :   -0.231915
   2 C :   -0.125095
   3 C :   -0.146885
   4 H :    0.069228
   5 H :    0.093280
   6 H :    0.085018
   7 H :    0.100646

  Mayer bond orders larger than 0.100000
B(  0-C ,  1-O ) :   1.9542 B(  0-C ,  2-C ) :   0.9855 B(  0-C ,  4-H ) :   0.9120
B(  2-C ,  3-C ) :   1.9943 B(  2-C ,  5-H ) :   0.9516 B(  3-C ,  6-H ) :   0.9681
B(  3-C ,  7-H ) :   0.9627

-----------------------------------------------------------------------------
         ABSORPTION SPECTRUM VIA TRANSITION ELECTRIC DIPOLE MOMENTS
-----------------------------------------------------------------------------
State   Energy    Wavelength  fosc         T2        TX        TY        TZ
        (cm-1)      (nm)                 (au**2)    (au)      (au)      (au)
-----------------------------------------------------------------------------
   1   37360.4    267.7   0.000084127   0.00074   0.02689   0.00280  -0.00320

Dispersion correction           -0.025504988
FINAL SINGLE POINT ENERGY      -189.305307972761

DIPOLE MOMENT
-------------
                                X             Y             Z
Electronic contribution:     -2.58214      -1.51648       0.97472
Nuclear contribution   :      3.01713       2.22756      -1.49191
                        -----------------------------------------
Total Dipole Moment    :      0.43499       0.71108      -0.51720
                        -----------------------------------------
Magnitude (a.u.)       :      0.98099
Magnitude (Debye)      :      2.49349

Rotational constants in cm-1:     1.061658     0.170498     0.158993
Rotational constants in MHz : 31827.717265  5111.414154  4766.503564

                             ****ORCA TERMINATED NORMALLY****
TOTAL RUN TIME: 0 days 0 hours 0 minutes 16 seconds 110 msec
