                         Program Version 5.0.3 -  RELEASE  -
|  1> ! HF-3c
|  2> !TightSCF
|  3> %scf
|  4>  ConvForced true
|  5>  convergence tight
|  6>  MaxIter 500
|  7> end
|  8>
|  9> %tddft
| 10>  nroots 1
| 11> end
| 12>
| 13> # 	30990
| 14> * xyz 0 1
| 15> 		C   -0.564114  -0.433204  -0.032498
| 16> 		O   -0.605964  -1.643191   0.013473
| 17> 		C    0.578675   0.409912   0.074285
| 18> 		C    1.884157  -0.095441  -0.023041
| 19> 		H   -1.341561  -0.037112  -0.187676
| 20> 		H    0.473376   1.540464  -0.109972
| 21> 		H    1.890766  -1.213718  -0.027615
| 22> 		H    2.925167   0.423370  -0.119521
| 23> *
| 24>
| 25>                          ****END OF INPUT****

CARTESIAN COORDINATES (ANGSTROEM)
---------------------------------
  C     -0.564114   -0.433204   -0.032498
  O     -0.605964   -1.643191    0.013473
  C      0.578675    0.409912    0.074285
  C      1.884157   -0.095441   -0.023041
  H     -1.341561   -0.037112   -0.187676
  H      0.473376    1.540464   -0.109972
  H      1.890766   -1.213718   -0.027615
  H      2.925167    0.423370   -0.119521

 Total Charge           Charge          ....    0
 Multiplicity           Mult            ....    1
 Number of Electrons    NEL             ....   30
 Basis Dimension        Dim             ....   24

ORBITAL ENERGIES
----------------

  NO   OCC          E(Eh)            E(eV)
   0   2.0000     -20.363411      -554.1166
   1   2.0000     -11.306200      -307.6573
   2   2.0000     -11.194249      -304.6110
   3   2.0000     -11.181858      -304.2738
   4   2.0000      -1.406104       -38.2620
   5   2.0000      -1.065598       -28.9964
   6   2.0000      -0.920780       -25.0557
   7   2.0000      -0.777081       -21.1455
   8   2.0000      -0.696865       -18.9627
   9   2.0000      -0.610915       -16.6238
  10   2.0000      -0.589878       -16.0514
  11   2.0000      -0.547932       -14.9100
  12   2.0000      -0.509788       -13.8720
  13   2.0000      -0.429664       -11.6918
  14   2.0000      -0.372052       -10.1241
  15   0.0000       0.112759         3.0683
  16   0.0000       0.300328         8.1723
  17   0.0000       0.514938        14.0122
  18   0.0000       0.596493        16.2314
  19   0.0000       0.623141        16.9565

MULLIKEN ATOMIC CHARGES
-----------------------
   0 C :    0.107227
   1 O :   -0.339729
   2 C :   -0.174656
   3 C :   -0.183375
   4 H :    0.140870
   5 H :    0.142511
   6 H :    0.151638
   7 H :    0.155513
Sum of atomic charges:   -0.0000000

LOEWDIN ATOMIC CHARGES
----------------------
   0 C :    0.116242
   1 O :   -0.250113
   2 C :   -0.144471
   3 C :   -0.086153
   4 H :    0.058911
   5 H :    0.096021
   6 H :    0.100377
   7 H :    0.109187

  Mayer bond orders larger than 0.100000
B(  0-C ,  1-O ) :   1.8687 B(  0-C ,  2-C ) :   1.0696 B(  0-C ,  4-H ) :   0.9455
B(  2-C ,  3-C ) :   1.8931 B(  2-C ,  5-H ) :   0.9587 B(  3-C ,  6-H ) :   0.9604
B(  3-C ,  7-H ) :   0.9625

-----------------------------------------------------------------------------
         ABSORPTION SPECTRUM VIA TRANSITION ELECTRIC DIPOLE MOMENTS
-----------------------------------------------------------------------------
State   Energy    Wavelength  fosc         T2        TX        TY        TZ
        (cm-1)      (nm)                 (au**2)    (au)      (au)      (au)
-----------------------------------------------------------------------------
   1   31181.0    320.7   0.000145687   0.00154  -0.03857  -0.00389   0.00594

Dispersion correction           -0.025708498
FINAL SINGLE POINT ENERGY      -189.269617037248

DIPOLE MOMENT
-------------
                                X             Y             Z
Electronic contribution:     -1.93591      -1.57156       0.28160
Nuclear contribution   :      2.54628       2.45880      -0.41657
                        -----------------------------------------
Total Dipole Moment    :      0.61037       0.88724      -0.13498
                        -----------------------------------------
Magnitude (a.u.)       :      1.08534
Magnitude (Debye)      :      2.75872

Rotational constants in cm-1:     0.780844     0.203669     0.162003
Rotational constants in MHz : 23409.101439  6105.846473  4856.739004

                             ****ORCA TERMINATED NORMALLY****
TOTAL RUN TIME: 0 days 0 hours 0 minutes 12 seconds 996 msec
