                         Program Version 5.0.3 -  RELEASE  -
|  1> ! HF-3c
|  2> !TightSCF
|  3> %scf
|  4>  ConvForced true
|  5>  convergence tight
|  6>  MaxIter 500
|  7> end
|  8>
|  9> %tddft
| 10>  nroots 1
| 11> end
| 12>
| 13> # 	11126
| 14> * xyz 0 1
| 15> 		C   -1.200447  -0.322128  -0.005444
| 16> 		O   -1.440145  -1.293105   0.651436
| 17> 		C    0.039031   0.482000   0.092069
| 18> 		C    1.185080   0.013481  -0.147192
| 19> 		H   -1.824860  -0.021698  -0.798219
| 20> 		H   -0.085368   1.513525   0.655886
| 21> 		H    1.257545  -0.988030  -0.418976
| 22> 		H    2.100614   0.643691  -0.040816
| 23> *
| 24>
| 25>                          ****END OF INPUT****

CARTESIAN COORDINATES (ANGSTROEM)
---------------------------------
  C     -1.200447   -0.322128   -0.005444
  O     -1.440145   -1.293105    0.651436
  C      0.039031    0.482000    0.092069
  C      1.185080    0.013481   -0.147192
  H     -1.824860   -0.021698   -0.798219
  H     -0.085368    1.513525    0.655886
  H      1.257545   -0.988030   -0.418976
  H      2.100614    0.643691   -0.040816

 Total Charge           Charge          ....    0
 Multiplicity           Mult            ....    1
 Number of Electrons    NEL             ....   30
 Basis Dimension        Dim             ....   24

ORBITAL ENERGIES
----------------

  NO   OCC          E(Eh)            E(eV)
   0   2.0000     -20.385594      -554.7202
   1   2.0000     -11.306634      -307.6692
   2   2.0000     -11.191719      -304.5422
   3   2.0000     -11.183992      -304.3319
   4   2.0000      -1.421440       -38.6793
   5   2.0000      -1.101642       -29.9772
   6   2.0000      -0.897689       -24.4274
   7   2.0000      -0.760337       -20.6898
   8   2.0000      -0.700827       -19.0705
   9   2.0000      -0.633425       -17.2364
  10   2.0000      -0.619001       -16.8439
  11   2.0000      -0.547700       -14.9037
  12   2.0000      -0.507262       -13.8033
  13   2.0000      -0.424918       -11.5626
  14   2.0000      -0.413573       -11.2539
  15   0.0000       0.181673         4.9436
  16   0.0000       0.246028         6.6947
  17   0.0000       0.549998        14.9662
  18   0.0000       0.595035        16.1917
  19   0.0000       0.670353        18.2412

MULLIKEN ATOMIC CHARGES
-----------------------
   0 C :    0.166553
   1 O :   -0.339011
   2 C :   -0.159091
   3 C :   -0.257114
   4 H :    0.139143
   5 H :    0.153416
   6 H :    0.146179
   7 H :    0.149925
Sum of atomic charges:    0.0000000

LOEWDIN ATOMIC CHARGES
----------------------
   0 C :    0.150222
   1 O :   -0.238949
   2 C :   -0.119852
   3 C :   -0.162452
   4 H :    0.070119
   5 H :    0.108020
   6 H :    0.091693
   7 H :    0.101199

  Mayer bond orders larger than 0.100000
B(  0-C ,  1-O ) :   1.9470 B(  0-C ,  2-C ) :   0.9857 B(  0-C ,  4-H ) :   0.9238
B(  2-C ,  3-C ) :   2.0089 B(  2-C ,  5-H ) :   0.9397 B(  3-C ,  6-H ) :   0.9602
B(  3-C ,  7-H ) :   0.9573

-----------------------------------------------------------------------------
         ABSORPTION SPECTRUM VIA TRANSITION ELECTRIC DIPOLE MOMENTS
-----------------------------------------------------------------------------
State   Energy    Wavelength  fosc         T2        TX        TY        TZ
        (cm-1)      (nm)                 (au**2)    (au)      (au)      (au)
-----------------------------------------------------------------------------
   1   34887.9    286.6   0.000044770   0.00042   0.01682  -0.01163  -0.00209

Dispersion correction           -0.025781244
FINAL SINGLE POINT ENERGY      -189.309418810517

DIPOLE MOMENT
-------------
                                X             Y             Z
Electronic contribution:     -2.43100      -1.44070       0.74220
Nuclear contribution   :      2.76828       2.23003      -1.16597
                        -----------------------------------------
Total Dipole Moment    :      0.33728       0.78933      -0.42377
                        -----------------------------------------
Magnitude (a.u.)       :      0.95728
Magnitude (Debye)      :      2.43321

Rotational constants in cm-1:     0.918370     0.187282     0.166861
Rotational constants in MHz : 27532.037309  5614.572197  5002.365260

                             ****ORCA TERMINATED NORMALLY****
TOTAL RUN TIME: 0 days 0 hours 0 minutes 16 seconds 48 msec
