                         Program Version 5.0.3 -  RELEASE  -
|  1> ! B3LYP cc-pVDZ
|  2> !TightSCF
|  3> %scf
|  4>  ConvForced true
|  5>  convergence tight
|  6>  MaxIter 500
|  7> end
|  8>
|  9> %tddft
| 10>  nroots 1
| 11> end
| 12>
| 13> # 	17916
| 14> * xyz 0 1
| 15> 		C   -1.231126  -0.308058  -0.100559
| 16> 		O   -1.997941  -0.457838  -0.934998
| 17> 		C    0.022945   0.497365  -0.260121
| 18> 		C    1.145939   0.156068   0.364990
| 19> 		H   -1.411573  -0.881523   1.005472
| 20> 		H    0.065944   1.194141  -1.008584
| 21> 		H    1.158898  -0.769512   0.940092
| 22> 		H    2.246107   0.588392   0.033254
| 23> *
| 24>
| 25>                          ****END OF INPUT****

CARTESIAN COORDINATES (ANGSTROEM)
---------------------------------
  C     -1.231126   -0.308058   -0.100559
  O     -1.997941   -0.457838   -0.934998
  C      0.022945    0.497365   -0.260121
  C      1.145939    0.156068    0.364990
  H     -1.411573   -0.881523    1.005472
  H      0.065944    1.194141   -1.008584
  H      1.158898   -0.769512    0.940092
  H      2.246107    0.588392    0.033254

 Total Charge           Charge          ....    0
 Multiplicity           Mult            ....    1
 Number of Electrons    NEL             ....   30
 Basis Dimension        Dim             ....   76

ORBITAL ENERGIES
----------------

  NO   OCC          E(Eh)            E(eV)
   0   2.0000     -19.146339      -520.9984
   1   2.0000     -10.285291      -279.8770
   2   2.0000     -10.223571      -278.1975
   3   2.0000     -10.202694      -277.6294
   4   2.0000      -1.093151       -29.7461
   5   2.0000      -0.800914       -21.7940
   6   2.0000      -0.628719       -17.1083
   7   2.0000      -0.563535       -15.3346
   8   2.0000      -0.481848       -13.1118
   9   2.0000      -0.469196       -12.7675
  10   2.0000      -0.433895       -11.8069
  11   2.0000      -0.414277       -11.2730
  12   2.0000      -0.385289       -10.4843
  13   2.0000      -0.295656        -8.0452
  14   2.0000      -0.255818        -6.9612
  15   0.0000      -0.052212        -1.4208
  16   0.0000       0.033089         0.9004
  17   0.0000       0.067707         1.8424
  18   0.0000       0.076565         2.0834
  19   0.0000       0.113183         3.0799

MULLIKEN ATOMIC CHARGES
-----------------------
   0 C :    0.111731
   1 O :   -0.118007
   2 C :   -0.007510
   3 C :   -0.022496
   4 H :   -0.035196
   5 H :   -0.020966
   6 H :    0.029764
   7 H :    0.062681
Sum of atomic charges:    0.0000000

LOEWDIN ATOMIC CHARGES
----------------------
   0 C :   -0.080270
   1 O :    0.071067
   2 C :   -0.056592
   3 C :   -0.015591
   4 H :   -0.016961
   5 H :    0.015489
   6 H :    0.026210
   7 H :    0.056647

  Mayer bond orders larger than 0.100000
B(  0-C ,  1-O ) :   2.2607 B(  0-C ,  2-C ) :   1.0108 B(  0-C ,  4-H ) :   0.8727
B(  2-C ,  3-C ) :   1.9529 B(  2-C ,  5-H ) :   0.9480 B(  3-C ,  6-H ) :   0.9397
B(  3-C ,  7-H ) :   0.9394

-----------------------------------------------------------------------------
         ABSORPTION SPECTRUM VIA TRANSITION ELECTRIC DIPOLE MOMENTS
-----------------------------------------------------------------------------
State   Energy    Wavelength  fosc         T2        TX        TY        TZ
        (cm-1)      (nm)                 (au**2)    (au)      (au)      (au)
-----------------------------------------------------------------------------
   1   32590.7    306.8   0.000628573   0.00635  -0.07892   0.00443  -0.01004

FINAL SINGLE POINT ENERGY      -191.629463137783

DIPOLE MOMENT
-------------
                                X             Y             Z
Electronic contribution:     -3.16303      -0.14572      -1.50162
Nuclear contribution   :      3.96130       0.32116       1.83247
                        -----------------------------------------
Total Dipole Moment    :      0.79827       0.17544       0.33084
                        -----------------------------------------
Magnitude (a.u.)       :      0.88174
Magnitude (Debye)      :      2.24120

Rotational constants in cm-1:     1.382482     0.159058     0.147295
Rotational constants in MHz : 41445.760673  4768.452603  4415.780804

                             ****ORCA TERMINATED NORMALLY****
TOTAL RUN TIME: 0 days 0 hours 3 minutes 8 seconds 902 msec
