                         Program Version 5.0.3 -  RELEASE  -
|  1> ! B3LYP cc-pVDZ
|  2> !TightSCF
|  3> %scf
|  4>  ConvForced true
|  5>  convergence tight
|  6>  MaxIter 500
|  7> end
|  8>
|  9> %tddft
| 10>  nroots 1
| 11> end
| 12>
| 13> # 	12187
| 14> * xyz 0 1
| 15> 		C   -1.144652  -0.308243   0.074582
| 16> 		O   -1.390532  -1.343182   0.641750
| 17> 		C    0.000310   0.584609   0.230720
| 18> 		C    1.197796   0.026272  -0.216598
| 19> 		H   -1.826927   0.170476  -0.869682
| 20> 		H   -0.025300   1.424435   0.771820
| 21> 		H    0.965169  -1.122063  -0.441000
| 22> 		H    2.191016   0.502127  -0.103754
| 23> *
| 24>
| 25>                          ****END OF INPUT****

CARTESIAN COORDINATES (ANGSTROEM)
---------------------------------
  C     -1.144652   -0.308243    0.074582
  O     -1.390532   -1.343182    0.641750
  C      0.000310    0.584609    0.230720
  C      1.197796    0.026272   -0.216598
  H     -1.826927    0.170476   -0.869682
  H     -0.025300    1.424435    0.771820
  H      0.965169   -1.122063   -0.441000
  H      2.191016    0.502127   -0.103754

 Total Charge           Charge          ....    0
 Multiplicity           Mult            ....    1
 Number of Electrons    NEL             ....   30
 Basis Dimension        Dim             ....   76

ORBITAL ENERGIES
----------------

  NO   OCC          E(Eh)            E(eV)
   0   2.0000     -19.157600      -521.3048
   1   2.0000     -10.295693      -280.1600
   2   2.0000     -10.223112      -278.1850
   3   2.0000     -10.207016      -277.7470
   4   2.0000      -1.062292       -28.9064
   5   2.0000      -0.798451       -21.7270
   6   2.0000      -0.643405       -17.5079
   7   2.0000      -0.557473       -15.1696
   8   2.0000      -0.496024       -13.4975
   9   2.0000      -0.455713       -12.4006
  10   2.0000      -0.438337       -11.9278
  11   2.0000      -0.387658       -10.5487
  12   2.0000      -0.384477       -10.4622
  13   2.0000      -0.277112        -7.5406
  14   2.0000      -0.261204        -7.1077
  15   0.0000      -0.043515        -1.1841
  16   0.0000      -0.020330        -0.5532
  17   0.0000       0.070292         1.9127
  18   0.0000       0.077271         2.1026
  19   0.0000       0.102681         2.7941

MULLIKEN ATOMIC CHARGES
-----------------------
   0 C :    0.133837
   1 O :   -0.163248
   2 C :   -0.006606
   3 C :   -0.033450
   4 H :   -0.011918
   5 H :   -0.020026
   6 H :    0.055375
   7 H :    0.046036
Sum of atomic charges:   -0.0000000

LOEWDIN ATOMIC CHARGES
----------------------
   0 C :   -0.032962
   1 O :    0.020389
   2 C :   -0.044596
   3 C :   -0.028530
   4 H :   -0.005139
   5 H :    0.005780
   6 H :    0.052739
   7 H :    0.032319

  Mayer bond orders larger than 0.100000
B(  0-C ,  1-O ) :   2.2315 B(  0-C ,  2-C ) :   0.9978 B(  0-C ,  4-H ) :   0.8673
B(  2-C ,  3-C ) :   1.9722 B(  2-C ,  5-H ) :   0.9577 B(  3-C ,  6-H ) :   0.9351
B(  3-C ,  7-H ) :   0.9499

-----------------------------------------------------------------------------
         ABSORPTION SPECTRUM VIA TRANSITION ELECTRIC DIPOLE MOMENTS
-----------------------------------------------------------------------------
State   Energy    Wavelength  fosc         T2        TX        TY        TZ
        (cm-1)      (nm)                 (au**2)    (au)      (au)      (au)
-----------------------------------------------------------------------------
   1   33680.8    296.9   0.000707924   0.00692   0.07436  -0.03150  -0.01995

FINAL SINGLE POINT ENERGY      -191.608157988062

DIPOLE MOMENT
-------------
                                X             Y             Z
Electronic contribution:     -2.10321      -1.27952       1.14113
Nuclear contribution   :      2.56631       2.02862      -1.31143
                        -----------------------------------------
Total Dipole Moment    :      0.46310       0.74910      -0.17030
                        -----------------------------------------
Magnitude (a.u.)       :      0.89700
Magnitude (Debye)      :      2.27998

Rotational constants in cm-1:     0.810589     0.189131     0.166016
Rotational constants in MHz : 24300.849941  5670.013072  4977.029248

                             ****ORCA TERMINATED NORMALLY****
TOTAL RUN TIME: 0 days 0 hours 3 minutes 21 seconds 313 msec
