                         Program Version 5.0.3 -  RELEASE  -
|  1> ! HF-3c
|  2> !TightSCF
|  3> %scf
|  4>  ConvForced true
|  5>  convergence tight
|  6>  MaxIter 500
|  7> end
|  8>
|  9> %tddft
| 10>  nroots 1
| 11> end
| 12>
| 13> # 	26361
| 14> * xyz 0 1
| 15> 		C   -0.630907  -0.439146  -0.031924
| 16> 		O   -0.519619  -1.590534   0.044484
| 17> 		C    0.618342   0.445495  -0.001384
| 18> 		C    1.804976  -0.159580  -0.009752
| 19> 		H   -1.635872  -0.029312  -0.408083
| 20> 		H    0.550678   1.423091   0.479839
| 21> 		H    1.920748  -1.347724  -0.253659
| 22> 		H    2.986277   0.265185   0.021053
| 23> *
| 24>
| 25>                          ****END OF INPUT****

CARTESIAN COORDINATES (ANGSTROEM)
---------------------------------
  C     -0.630907   -0.439146   -0.031924
  O     -0.519619   -1.590534    0.044484
  C      0.618342    0.445495   -0.001384
  C      1.804976   -0.159580   -0.009752
  H     -1.635872   -0.029312   -0.408083
  H      0.550678    1.423091    0.479839
  H      1.920748   -1.347724   -0.253659
  H      2.986277    0.265185    0.021053

 Total Charge           Charge          ....    0
 Multiplicity           Mult            ....    1
 Number of Electrons    NEL             ....   30
 Basis Dimension        Dim             ....   24

ORBITAL ENERGIES
----------------

  NO   OCC          E(Eh)            E(eV)
   0   2.0000     -20.372756      -554.3709
   1   2.0000     -11.302112      -307.5461
   2   2.0000     -11.177754      -304.1621
   3   2.0000     -11.169181      -303.9289
   4   2.0000      -1.439814       -39.1793
   5   2.0000      -1.051773       -28.6202
   6   2.0000      -0.847060       -23.0497
   7   2.0000      -0.730485       -19.8775
   8   2.0000      -0.690783       -18.7972
   9   2.0000      -0.606238       -16.4966
  10   2.0000      -0.588893       -16.0246
  11   2.0000      -0.542617       -14.7654
  12   2.0000      -0.480568       -13.0769
  13   2.0000      -0.402306       -10.9473
  14   2.0000      -0.384241       -10.4557
  15   0.0000       0.159267         4.3339
  16   0.0000       0.290241         7.8979
  17   0.0000       0.445575        12.1247
  18   0.0000       0.540612        14.7108
  19   0.0000       0.605150        16.4670

MULLIKEN ATOMIC CHARGES
-----------------------
   0 C :    0.185353
   1 O :   -0.368037
   2 C :   -0.207453
   3 C :   -0.176003
   4 H :    0.136752
   5 H :    0.140610
   6 H :    0.144314
   7 H :    0.144464
Sum of atomic charges:    0.0000000

LOEWDIN ATOMIC CHARGES
----------------------
   0 C :    0.148878
   1 O :   -0.254854
   2 C :   -0.170911
   3 C :   -0.096940
   4 H :    0.075573
   5 H :    0.091235
   6 H :    0.101307
   7 H :    0.105712

  Mayer bond orders larger than 0.100000
B(  0-C ,  1-O ) :   1.9288 B(  0-C ,  2-C ) :   0.9808 B(  0-C ,  4-H ) :   0.9147
B(  2-C ,  3-C ) :   1.9628 B(  2-C ,  5-H ) :   0.9567 B(  3-C ,  6-H ) :   0.9541
B(  3-C ,  7-H ) :   0.9575

-----------------------------------------------------------------------------
         ABSORPTION SPECTRUM VIA TRANSITION ELECTRIC DIPOLE MOMENTS
-----------------------------------------------------------------------------
State   Energy    Wavelength  fosc         T2        TX        TY        TZ
        (cm-1)      (nm)                 (au**2)    (au)      (au)      (au)
-----------------------------------------------------------------------------
   1   36059.6    277.3   0.002282864   0.02084   0.14197   0.01034   0.02405

Dispersion correction           -0.025291491
FINAL SINGLE POINT ENERGY      -189.276811023889

DIPOLE MOMENT
-------------
                                X             Y             Z
Electronic contribution:     -2.07337      -1.34895       0.11482
Nuclear contribution   :      2.43092       2.08110      -0.15242
                        -----------------------------------------
Total Dipole Moment    :      0.35755       0.73215      -0.03761
                        -----------------------------------------
Magnitude (a.u.)       :      0.81566
Magnitude (Debye)      :      2.07325

Rotational constants in cm-1:     0.726383     0.217242     0.168937
Rotational constants in MHz : 21776.420859  6512.756545  5064.612111

                             ****ORCA TERMINATED NORMALLY****
TOTAL RUN TIME: 0 days 0 hours 0 minutes 15 seconds 818 msec
