                         Program Version 5.0.3 -  RELEASE  -
|  1> ! HF-3c
|  2> !TightSCF
|  3> %scf
|  4>  ConvForced true
|  5>  convergence tight
|  6>  MaxIter 500
|  7> end
|  8>
|  9> %tddft
| 10>  nroots 1
| 11> end
| 12>
| 13> # 	1971
| 14> * xyz 0 1
| 15> 		C   -1.133249  -0.291246  -0.033143
| 16> 		O   -1.699977  -1.126443   0.805454
| 17> 		C    0.031928   0.470229   0.219733
| 18> 		C    1.192090   0.000483  -0.169939
| 19> 		H   -1.668018  -0.045738  -1.056230
| 20> 		H   -0.101044   1.294317   0.917308
| 21> 		H    1.209401  -0.866485  -0.713644
| 22> 		H    2.161974   0.591500   0.077460
| 23> *
| 24>
| 25>                          ****END OF INPUT****

CARTESIAN COORDINATES (ANGSTROEM)
---------------------------------
  C     -1.133249   -0.291246   -0.033143
  O     -1.699977   -1.126443    0.805454
  C      0.031928    0.470229    0.219733
  C      1.192090    0.000483   -0.169939
  H     -1.668018   -0.045738   -1.056230
  H     -0.101044    1.294317    0.917308
  H      1.209401   -0.866485   -0.713644
  H      2.161974    0.591500    0.077460

 Total Charge           Charge          ....    0
 Multiplicity           Mult            ....    1
 Number of Electrons    NEL             ....   30
 Basis Dimension        Dim             ....   24

ORBITAL ENERGIES
----------------

  NO   OCC          E(Eh)            E(eV)
   0   2.0000     -20.343800      -553.5829
   1   2.0000     -11.276726      -306.8553
   2   2.0000     -11.199844      -304.7632
   3   2.0000     -11.190796      -304.5170
   4   2.0000      -1.332139       -36.2493
   5   2.0000      -1.105511       -30.0825
   6   2.0000      -0.894237       -24.3334
   7   2.0000      -0.760163       -20.6851
   8   2.0000      -0.669512       -18.2183
   9   2.0000      -0.629022       -17.1166
  10   2.0000      -0.588888       -16.0245
  11   2.0000      -0.544369       -14.8130
  12   2.0000      -0.454146       -12.3579
  13   2.0000      -0.415858       -11.3161
  14   2.0000      -0.404798       -11.0151
  15   0.0000       0.160387         4.3644
  16   0.0000       0.210285         5.7221
  17   0.0000       0.546500        14.8710
  18   0.0000       0.578340        15.7374
  19   0.0000       0.657324        17.8867

MULLIKEN ATOMIC CHARGES
-----------------------
   0 C :    0.149351
   1 O :   -0.329918
   2 C :   -0.185954
   3 C :   -0.232520
   4 H :    0.141064
   5 H :    0.163089
   6 H :    0.141887
   7 H :    0.153001
Sum of atomic charges:   -0.0000000

LOEWDIN ATOMIC CHARGES
----------------------
   0 C :    0.148833
   1 O :   -0.265463
   2 C :   -0.131071
   3 C :   -0.141101
   4 H :    0.086209
   5 H :    0.108815
   6 H :    0.086830
   7 H :    0.106948

  Mayer bond orders larger than 0.100000
B(  0-C ,  1-O ) :   1.9266 B(  0-C ,  2-C ) :   1.0286 B(  0-C ,  4-H ) :   0.9181
B(  2-C ,  3-C ) :   1.9790 B(  2-C ,  5-H ) :   0.9399 B(  3-C ,  6-H ) :   0.9665
B(  3-C ,  7-H ) :   0.9588

-----------------------------------------------------------------------------
         ABSORPTION SPECTRUM VIA TRANSITION ELECTRIC DIPOLE MOMENTS
-----------------------------------------------------------------------------
State   Energy    Wavelength  fosc         T2        TX        TY        TZ
        (cm-1)      (nm)                 (au**2)    (au)      (au)      (au)
-----------------------------------------------------------------------------
   1   29244.8    341.9   0.000052655   0.00059   0.02235  -0.00467   0.00845

Dispersion correction           -0.025513347
FINAL SINGLE POINT ENERGY      -189.316237189049

DIPOLE MOMENT
-------------
                                X             Y             Z
Electronic contribution:     -2.50347      -1.18084       0.94748
Nuclear contribution   :      3.12401       1.89701      -1.54218
                        -----------------------------------------
Total Dipole Moment    :      0.62054       0.71617      -0.59470
                        -----------------------------------------
Magnitude (a.u.)       :      1.11877
Magnitude (Debye)      :      2.84368

Rotational constants in cm-1:     0.975453     0.168069     0.161518
Rotational constants in MHz : 29243.359798  5038.595939  4842.173149

                             ****ORCA TERMINATED NORMALLY****
TOTAL RUN TIME: 0 days 0 hours 0 minutes 16 seconds 102 msec
