                         Program Version 5.0.3 -  RELEASE  -
|  1> ! B3LYP cc-pVDZ
|  2> !TightSCF
|  3> %scf
|  4>  ConvForced true
|  5>  convergence tight
|  6>  MaxIter 500
|  7> end
|  8>
|  9> %tddft
| 10>  nroots 1
| 11> end
| 12>
| 13> # 	1008
| 14> * xyz 0 1
| 15> 		C   -1.241539  -0.426890  -0.040059
| 16> 		O   -1.515191  -1.353811  -0.689318
| 17> 		C   -0.020970   0.453339  -0.211675
| 18> 		C    1.183664   0.048676   0.085505
| 19> 		H   -1.880037  -0.051679   0.864469
| 20> 		H   -0.192810   1.477745  -0.296931
| 21> 		H    1.589402  -0.941494   0.284164
| 22> 		H    2.084765   0.762221   0.053863
| 23> *
| 24>
| 25>                          ****END OF INPUT****

CARTESIAN COORDINATES (ANGSTROEM)
---------------------------------
  C     -1.241539   -0.426890   -0.040059
  O     -1.515191   -1.353811   -0.689318
  C     -0.020970    0.453339   -0.211675
  C      1.183664    0.048676    0.085505
  H     -1.880037   -0.051679    0.864469
  H     -0.192810    1.477745   -0.296931
  H      1.589402   -0.941494    0.284164
  H      2.084765    0.762221    0.053863

 Total Charge           Charge          ....    0
 Multiplicity           Mult            ....    1
 Number of Electrons    NEL             ....   30
 Basis Dimension        Dim             ....   76

ORBITAL ENERGIES
----------------

  NO   OCC          E(Eh)            E(eV)
   0   2.0000     -19.148382      -521.0540
   1   2.0000     -10.284365      -279.8518
   2   2.0000     -10.207492      -277.7600
   3   2.0000     -10.199147      -277.5329
   4   2.0000      -1.079670       -29.3793
   5   2.0000      -0.798427       -21.7263
   6   2.0000      -0.645766       -17.5722
   7   2.0000      -0.552029       -15.0215
   8   2.0000      -0.498738       -13.5713
   9   2.0000      -0.460920       -12.5423
  10   2.0000      -0.453586       -12.3427
  11   2.0000      -0.397627       -10.8200
  12   2.0000      -0.375342       -10.2136
  13   2.0000      -0.292775        -7.9668
  14   2.0000      -0.255224        -6.9450
  15   0.0000      -0.032249        -0.8775
  16   0.0000       0.009897         0.2693
  17   0.0000       0.072610         1.9758
  18   0.0000       0.090669         2.4672
  19   0.0000       0.107493         2.9250

MULLIKEN ATOMIC CHARGES
-----------------------
   0 C :    0.145741
   1 O :   -0.135204
   2 C :   -0.033685
   3 C :   -0.007498
   4 H :   -0.018134
   5 H :   -0.007987
   6 H :    0.024919
   7 H :    0.031847
Sum of atomic charges:    0.0000000

LOEWDIN ATOMIC CHARGES
----------------------
   0 C :   -0.050311
   1 O :    0.055104
   2 C :   -0.064653
   3 C :   -0.023337
   4 H :   -0.008133
   5 H :    0.025086
   6 H :    0.026681
   7 H :    0.039563

  Mayer bond orders larger than 0.100000
B(  0-C ,  1-O ) :   2.2851 B(  0-C ,  2-C ) :   0.9727 B(  0-C ,  4-H ) :   0.8851
B(  2-C ,  3-C ) :   2.0376 B(  2-C ,  5-H ) :   0.9221 B(  3-C ,  6-H ) :   0.9570
B(  3-C ,  7-H ) :   0.9443

-----------------------------------------------------------------------------
         ABSORPTION SPECTRUM VIA TRANSITION ELECTRIC DIPOLE MOMENTS
-----------------------------------------------------------------------------
State   Energy    Wavelength  fosc         T2        TX        TY        TZ
        (cm-1)      (nm)                 (au**2)    (au)      (au)      (au)
-----------------------------------------------------------------------------
   1   35044.0    285.4   0.000718206   0.00675  -0.08176   0.00581  -0.00537

FINAL SINGLE POINT ENERGY      -191.628229588559

DIPOLE MOMENT
-------------
                                X             Y             Z
Electronic contribution:     -2.63771      -1.79736      -1.23595
Nuclear contribution   :      3.06411       2.46012       1.65332
                        -----------------------------------------
Total Dipole Moment    :      0.42641       0.66276       0.41737
                        -----------------------------------------
Magnitude (a.u.)       :      0.89178
Magnitude (Debye)      :      2.26672

Rotational constants in cm-1:     0.943994     0.176120     0.157927
Rotational constants in MHz : 28300.217051  5279.951446  4734.528537

                             ****ORCA TERMINATED NORMALLY****
TOTAL RUN TIME: 0 days 0 hours 3 minutes 19 seconds 229 msec
