                         Program Version 5.0.3 -  RELEASE  -
|  1> ! B3LYP cc-pVDZ
|  2> !TightSCF
|  3> %scf
|  4>  ConvForced true
|  5>  convergence tight
|  6>  MaxIter 500
|  7> end
|  8>
|  9> %tddft
| 10>  nroots 1
| 11> end
| 12>
| 13> # 	31182
| 14> * xyz 0 1
| 15> 		C   -0.580668  -0.432595   0.038378
| 16> 		O   -0.553415  -1.616193  -0.036171
| 17> 		C    0.599876   0.402658  -0.006975
| 18> 		C    1.819324  -0.131723   0.021025
| 19> 		H   -1.564662   0.238344   0.124281
| 20> 		H    0.508713   1.534464  -0.189617
| 21> 		H    1.990272  -1.293245   0.255012
| 22> 		H    2.894222   0.379880  -0.269061
| 23> *
| 24>
| 25>                          ****END OF INPUT****

CARTESIAN COORDINATES (ANGSTROEM)
---------------------------------
  C     -0.580668   -0.432595    0.038378
  O     -0.553415   -1.616193   -0.036171
  C      0.599876    0.402658   -0.006975
  C      1.819324   -0.131723    0.021025
  H     -1.564662    0.238344    0.124281
  H      0.508713    1.534464   -0.189617
  H      1.990272   -1.293245    0.255012
  H      2.894222    0.379880   -0.269061

 Total Charge           Charge          ....    0
 Multiplicity           Mult            ....    1
 Number of Electrons    NEL             ....   30
 Basis Dimension        Dim             ....   76

ORBITAL ENERGIES
----------------

  NO   OCC          E(Eh)            E(eV)
   0   2.0000     -19.142427      -520.8919
   1   2.0000     -10.280179      -279.7379
   2   2.0000     -10.233143      -278.4580
   3   2.0000     -10.207890      -277.7708
   4   2.0000      -1.063931       -28.9510
   5   2.0000      -0.794138       -21.6096
   6   2.0000      -0.647993       -17.6328
   7   2.0000      -0.524759       -14.2794
   8   2.0000      -0.498948       -13.5771
   9   2.0000      -0.452264       -12.3067
  10   2.0000      -0.421560       -11.4712
  11   2.0000      -0.405316       -11.0292
  12   2.0000      -0.360280        -9.8037
  13   2.0000      -0.288826        -7.8593
  14   2.0000      -0.259314        -7.0563
  15   0.0000      -0.069753        -1.8981
  16   0.0000       0.049886         1.3575
  17   0.0000       0.065738         1.7888
  18   0.0000       0.069512         1.8915
  19   0.0000       0.111467         3.0332

MULLIKEN ATOMIC CHARGES
-----------------------
   0 C :    0.166358
   1 O :   -0.161727
   2 C :   -0.094972
   3 C :   -0.032657
   4 H :   -0.022606
   5 H :    0.016004
   6 H :    0.066073
   7 H :    0.063526
Sum of atomic charges:   -0.0000000

LOEWDIN ATOMIC CHARGES
----------------------
   0 C :   -0.063905
   1 O :    0.026070
   2 C :   -0.107052
   3 C :    0.004781
   4 H :   -0.005864
   5 H :    0.043287
   6 H :    0.049916
   7 H :    0.052766

  Mayer bond orders larger than 0.100000
B(  0-C ,  1-O ) :   2.2274 B(  0-C ,  2-C ) :   1.0518 B(  0-C ,  4-H ) :   0.8948
B(  2-C ,  3-C ) :   1.9314 B(  2-C ,  5-H ) :   0.9364 B(  3-C ,  6-H ) :   0.9302
B(  3-C ,  7-H ) :   0.9428

-----------------------------------------------------------------------------
         ABSORPTION SPECTRUM VIA TRANSITION ELECTRIC DIPOLE MOMENTS
-----------------------------------------------------------------------------
State   Energy    Wavelength  fosc         T2        TX        TY        TZ
        (cm-1)      (nm)                 (au**2)    (au)      (au)      (au)
-----------------------------------------------------------------------------
   1   28975.1    345.1   0.000262100   0.00298  -0.03494   0.00259   0.04184

FINAL SINGLE POINT ENERGY      -191.652770388104

DIPOLE MOMENT
-------------
                                X             Y             Z
Electronic contribution:     -1.98138      -1.79774       0.07173
Nuclear contribution   :      2.43537       2.59229      -0.07306
                        -----------------------------------------
Total Dipole Moment    :      0.45400       0.79455      -0.00133
                        -----------------------------------------
Magnitude (a.u.)       :      0.91511
Magnitude (Debye)      :      2.32603

Rotational constants in cm-1:     0.736487     0.215895     0.167734
Rotational constants in MHz : 22079.337380  6472.371356  5028.528663

                             ****ORCA TERMINATED NORMALLY****
TOTAL RUN TIME: 0 days 0 hours 3 minutes 5 seconds 599 msec
