                         Program Version 5.0.3 -  RELEASE  -
|  1> ! HF-3c
|  2> !TightSCF
|  3> %scf
|  4>  ConvForced true
|  5>  convergence tight
|  6>  MaxIter 500
|  7> end
|  8>
|  9> %tddft
| 10>  nroots 1
| 11> end
| 12>
| 13> # 	29557
| 14> * xyz 0 1
| 15> 		C   -0.593499  -0.433729   0.063108
| 16> 		O   -0.574139  -1.604857  -0.032407
| 17> 		C    0.655764   0.385338  -0.083588
| 18> 		C    1.806667  -0.140372   0.025550
| 19> 		H   -1.450136   0.099738   0.243504
| 20> 		H    0.451890   1.513135  -0.031717
| 21> 		H    2.066237  -1.194543   0.102568
| 22> 		H    2.746406   0.578488   0.139859
| 23> *
| 24>
| 25>                          ****END OF INPUT****

CARTESIAN COORDINATES (ANGSTROEM)
---------------------------------
  C     -0.593499   -0.433729    0.063108
  O     -0.574139   -1.604857   -0.032407
  C      0.655764    0.385338   -0.083588
  C      1.806667   -0.140372    0.025550
  H     -1.450136    0.099738    0.243504
  H      0.451890    1.513135   -0.031717
  H      2.066237   -1.194543    0.102568
  H      2.746406    0.578488    0.139859

 Total Charge           Charge          ....    0
 Multiplicity           Mult            ....    1
 Number of Electrons    NEL             ....   30
 Basis Dimension        Dim             ....   24

ORBITAL ENERGIES
----------------

  NO   OCC          E(Eh)            E(eV)
   0   2.0000     -20.378161      -554.5180
   1   2.0000     -11.305466      -307.6374
   2   2.0000     -11.187398      -304.4246
   3   2.0000     -11.184081      -304.3343
   4   2.0000      -1.431827       -38.9620
   5   2.0000      -1.085628       -29.5414
   6   2.0000      -0.893268       -24.3071
   7   2.0000      -0.753389       -20.5008
   8   2.0000      -0.703003       -19.1297
   9   2.0000      -0.626005       -17.0345
  10   2.0000      -0.593104       -16.1392
  11   2.0000      -0.558053       -15.1854
  12   2.0000      -0.516932       -14.0664
  13   2.0000      -0.412966       -11.2374
  14   2.0000      -0.406350       -11.0573
  15   0.0000       0.153433         4.1751
  16   0.0000       0.320752         8.7281
  17   0.0000       0.489707        13.3256
  18   0.0000       0.615600        16.7513
  19   0.0000       0.632159        17.2019

MULLIKEN ATOMIC CHARGES
-----------------------
   0 C :    0.168660
   1 O :   -0.353199
   2 C :   -0.176775
   3 C :   -0.217539
   4 H :    0.136697
   5 H :    0.141562
   6 H :    0.157378
   7 H :    0.143216
Sum of atomic charges:   -0.0000000

LOEWDIN ATOMIC CHARGES
----------------------
   0 C :    0.147608
   1 O :   -0.246535
   2 C :   -0.138724
   3 C :   -0.126021
   4 H :    0.065440
   5 H :    0.094635
   6 H :    0.103129
   7 H :    0.100467

  Mayer bond orders larger than 0.100000
B(  0-C ,  1-O ) :   1.9229 B(  0-C ,  2-C ) :   0.9950 B(  0-C ,  4-H ) :   0.9293
B(  2-C ,  3-C ) :   1.9774 B(  2-C ,  5-H ) :   0.9534 B(  3-C ,  6-H ) :   0.9564
B(  3-C ,  7-H ) :   0.9560

-----------------------------------------------------------------------------
         ABSORPTION SPECTRUM VIA TRANSITION ELECTRIC DIPOLE MOMENTS
-----------------------------------------------------------------------------
State   Energy    Wavelength  fosc         T2        TX        TY        TZ
        (cm-1)      (nm)                 (au**2)    (au)      (au)      (au)
-----------------------------------------------------------------------------
   1   34735.0    287.9   0.000040529   0.00038   0.01885   0.00485  -0.00226

Dispersion correction           -0.025883468
FINAL SINGLE POINT ENERGY      -189.313966535141

DIPOLE MOMENT
-------------
                                X             Y             Z
Electronic contribution:     -2.11586      -1.80607      -0.26667
Nuclear contribution   :      2.42050       2.72172       0.42564
                        -----------------------------------------
Total Dipole Moment    :      0.30464       0.91565       0.15896
                        -----------------------------------------
Magnitude (a.u.)       :      0.97801
Magnitude (Debye)      :      2.48590

Rotational constants in cm-1:     0.796993     0.213752     0.169386
Rotational constants in MHz : 23893.245475  6408.111515  5078.058172

                             ****ORCA TERMINATED NORMALLY****
TOTAL RUN TIME: 0 days 0 hours 0 minutes 10 seconds 986 msec
