                         Program Version 5.0.3 -  RELEASE  -
|  1> ! B3LYP cc-pVDZ
|  2> !TightSCF
|  3> %scf
|  4>  ConvForced true
|  5>  convergence tight
|  6>  MaxIter 500
|  7> end
|  8>
|  9> %tddft
| 10>  nroots 1
| 11> end
| 12>
| 13> # 	20857
| 14> * xyz 0 1
| 15> 		C   -0.571282  -0.427021  -0.002444
| 16> 		O   -0.567290  -1.603388   0.012729
| 17> 		C    0.619098   0.408237  -0.010035
| 18> 		C    1.836710  -0.142016  -0.031718
| 19> 		H   -1.590032   0.038199  -0.015660
| 20> 		H    0.490467   1.441438   0.069586
| 21> 		H    1.968875  -1.296895  -0.052092
| 22> 		H    2.634366   0.432272   0.345487
| 23> *
| 24>
| 25>                          ****END OF INPUT****

CARTESIAN COORDINATES (ANGSTROEM)
---------------------------------
  C     -0.571282   -0.427021   -0.002444
  O     -0.567290   -1.603388    0.012729
  C      0.619098    0.408237   -0.010035
  C      1.836710   -0.142016   -0.031718
  H     -1.590032    0.038199   -0.015660
  H      0.490467    1.441438    0.069586
  H      1.968875   -1.296895   -0.052092
  H      2.634366    0.432272    0.345487

 Total Charge           Charge          ....    0
 Multiplicity           Mult            ....    1
 Number of Electrons    NEL             ....   30
 Basis Dimension        Dim             ....   76

ORBITAL ENERGIES
----------------

  NO   OCC          E(Eh)            E(eV)
   0   2.0000     -19.132238      -520.6147
   1   2.0000     -10.266761      -279.3728
   2   2.0000     -10.213479      -277.9229
   3   2.0000     -10.198655      -277.5195
   4   2.0000      -1.063576       -28.9414
   5   2.0000      -0.798686       -21.7333
   6   2.0000      -0.655263       -17.8306
   7   2.0000      -0.539261       -14.6740
   8   2.0000      -0.517455       -14.0807
   9   2.0000      -0.447100       -12.1662
  10   2.0000      -0.427749       -11.6397
  11   2.0000      -0.407002       -11.0751
  12   2.0000      -0.382480       -10.4078
  13   2.0000      -0.286955        -7.8084
  14   2.0000      -0.251418        -6.8414
  15   0.0000      -0.069475        -1.8905
  16   0.0000       0.067907         1.8478
  17   0.0000       0.075458         2.0533
  18   0.0000       0.088743         2.4148
  19   0.0000       0.123228         3.3532

MULLIKEN ATOMIC CHARGES
-----------------------
   0 C :    0.168472
   1 O :   -0.164101
   2 C :   -0.078057
   3 C :    0.054557
   4 H :   -0.037911
   5 H :   -0.028078
   6 H :    0.057648
   7 H :    0.027470
Sum of atomic charges:    0.0000000

LOEWDIN ATOMIC CHARGES
----------------------
   0 C :   -0.063476
   1 O :    0.026567
   2 C :   -0.072218
   3 C :    0.027498
   4 H :   -0.009689
   5 H :    0.018301
   6 H :    0.049482
   7 H :    0.023536

  Mayer bond orders larger than 0.100000
B(  0-C ,  1-O ) :   2.2250 B(  0-C ,  2-C ) :   1.0550 B(  0-C ,  4-H ) :   0.9206
B(  2-C ,  3-C ) :   1.9604 B(  2-C ,  5-H ) :   0.9476 B(  3-C ,  6-H ) :   0.9324
B(  3-C ,  7-H ) :   0.9392

-----------------------------------------------------------------------------
         ABSORPTION SPECTRUM VIA TRANSITION ELECTRIC DIPOLE MOMENTS
-----------------------------------------------------------------------------
State   Energy    Wavelength  fosc         T2        TX        TY        TZ
        (cm-1)      (nm)                 (au**2)    (au)      (au)      (au)
-----------------------------------------------------------------------------
   1   27459.0    364.2   0.000134369   0.00161   0.00855   0.00987   0.03795

FINAL SINGLE POINT ENERGY      -191.668597718003

DIPOLE MOMENT
-------------
                                X             Y             Z
Electronic contribution:     -1.74322      -1.52910      -0.24189
Nuclear contribution   :      2.13018       2.36526       0.32450
                        -----------------------------------------
Total Dipole Moment    :      0.38696       0.83616       0.08261
                        -----------------------------------------
Magnitude (a.u.)       :      0.92506
Magnitude (Debye)      :      2.35130

Rotational constants in cm-1:     0.776158     0.216622     0.169847
Rotational constants in MHz : 23268.621136  6494.161228  5091.895469

                             ****ORCA TERMINATED NORMALLY****
TOTAL RUN TIME: 0 days 0 hours 3 minutes 23 seconds 45 msec
