                         Program Version 5.0.3 -  RELEASE  -
|  1> ! HF-3c
|  2> !TightSCF
|  3> %scf
|  4>  ConvForced true
|  5>  convergence tight
|  6>  MaxIter 500
|  7> end
|  8>
|  9> %tddft
| 10>  nroots 1
| 11> end
| 12>
| 13> # 	15574
| 14> * xyz 0 1
| 15> 		C   -1.145970  -0.346067  -0.018970
| 16> 		O   -1.812031  -0.946736  -0.959768
| 17> 		C    0.059890   0.495117  -0.245203
| 18> 		C    1.210066   0.033270   0.091706
| 19> 		H   -1.582027  -0.514930   1.041653
| 20> 		H   -0.204076   1.540959  -0.486450
| 21> 		H    1.331760  -1.051589   0.524017
| 22> 		H    2.153467   0.796381   0.089740
| 23> *
| 24>
| 25>                          ****END OF INPUT****

CARTESIAN COORDINATES (ANGSTROEM)
---------------------------------
  C     -1.145970   -0.346067   -0.018970
  O     -1.812031   -0.946736   -0.959768
  C      0.059890    0.495117   -0.245203
  C      1.210066    0.033270    0.091706
  H     -1.582027   -0.514930    1.041653
  H     -0.204076    1.540959   -0.486450
  H      1.331760   -1.051589    0.524017
  H      2.153467    0.796381    0.089740

 Total Charge           Charge          ....    0
 Multiplicity           Mult            ....    1
 Number of Electrons    NEL             ....   30
 Basis Dimension        Dim             ....   24

ORBITAL ENERGIES
----------------

  NO   OCC          E(Eh)            E(eV)
   0   2.0000     -20.338748      -553.4455
   1   2.0000     -11.269178      -306.6499
   2   2.0000     -11.194674      -304.6226
   3   2.0000     -11.186084      -304.3888
   4   2.0000      -1.334245       -36.3067
   5   2.0000      -1.089732       -29.6531
   6   2.0000      -0.863007       -23.4836
   7   2.0000      -0.743756       -20.2386
   8   2.0000      -0.660805       -17.9814
   9   2.0000      -0.614068       -16.7096
  10   2.0000      -0.578208       -15.7338
  11   2.0000      -0.514386       -13.9972
  12   2.0000      -0.455903       -12.4058
  13   2.0000      -0.413368       -11.2483
  14   2.0000      -0.403173       -10.9709
  15   0.0000       0.170637         4.6433
  16   0.0000       0.230283         6.2663
  17   0.0000       0.495268        13.4769
  18   0.0000       0.531975        14.4758
  19   0.0000       0.584494        15.9049

MULLIKEN ATOMIC CHARGES
-----------------------
   0 C :    0.145130
   1 O :   -0.336112
   2 C :   -0.186754
   3 C :   -0.215328
   4 H :    0.142908
   5 H :    0.157107
   6 H :    0.146404
   7 H :    0.146644
Sum of atomic charges:    0.0000000

LOEWDIN ATOMIC CHARGES
----------------------
   0 C :    0.141734
   1 O :   -0.266459
   2 C :   -0.135541
   3 C :   -0.138808
   4 H :    0.086452
   5 H :    0.105137
   6 H :    0.102313
   7 H :    0.105172

  Mayer bond orders larger than 0.100000
B(  0-C ,  1-O ) :   1.9355 B(  0-C ,  2-C ) :   0.9975 B(  0-C ,  4-H ) :   0.9252
B(  2-C ,  3-C ) :   2.0010 B(  2-C ,  5-H ) :   0.9425 B(  3-C ,  6-H ) :   0.9570
B(  3-C ,  7-H ) :   0.9534

-----------------------------------------------------------------------------
         ABSORPTION SPECTRUM VIA TRANSITION ELECTRIC DIPOLE MOMENTS
-----------------------------------------------------------------------------
State   Energy    Wavelength  fosc         T2        TX        TY        TZ
        (cm-1)      (nm)                 (au**2)    (au)      (au)      (au)
-----------------------------------------------------------------------------
   1   29463.4    339.4   0.000002752   0.00003  -0.00024  -0.00382   0.00401

Dispersion correction           -0.024817573
FINAL SINGLE POINT ENERGY      -189.315725610891

DIPOLE MOMENT
-------------
                                X             Y             Z
Electronic contribution:     -2.58356      -1.00790      -1.33463
Nuclear contribution   :      3.30028       1.52766       2.17440
                        -----------------------------------------
Total Dipole Moment    :      0.71672       0.51976       0.83976
                        -----------------------------------------
Magnitude (a.u.)       :      1.22026
Magnitude (Debye)      :      3.10165

Rotational constants in cm-1:     1.034910     0.158385     0.154045
Rotational constants in MHz : 31025.812879  4748.272217  4618.160512

                             ****ORCA TERMINATED NORMALLY****
TOTAL RUN TIME: 0 days 0 hours 0 minutes 11 seconds 277 msec
