                         Program Version 5.0.3 -  RELEASE  -
|  1> ! B3LYP cc-pVDZ
|  2> !TightSCF
|  3> %scf
|  4>  ConvForced true
|  5>  convergence tight
|  6>  MaxIter 500
|  7> end
|  8>
|  9> %tddft
| 10>  nroots 1
| 11> end
| 12>
| 13> # 	11098
| 14> * xyz 0 1
| 15> 		C   -1.232472  -0.384176   0.052384
| 16> 		O   -2.142003  -0.421450   0.759377
| 17> 		C    0.030254   0.410959   0.313452
| 18> 		C    1.125389   0.105926  -0.284440
| 19> 		H   -1.184928  -1.006265  -0.927898
| 20> 		H    0.021097   1.376344   1.107171
| 21> 		H    1.368387  -0.618905  -0.917993
| 22> 		H    2.016045   0.608754  -0.098783
| 23> *
| 24>
| 25>                          ****END OF INPUT****

CARTESIAN COORDINATES (ANGSTROEM)
---------------------------------
  C     -1.232472   -0.384176    0.052384
  O     -2.142003   -0.421450    0.759377
  C      0.030254    0.410959    0.313452
  C      1.125389    0.105926   -0.284440
  H     -1.184928   -1.006265   -0.927898
  H      0.021097    1.376344    1.107171
  H      1.368387   -0.618905   -0.917993
  H      2.016045    0.608754   -0.098783

 Total Charge           Charge          ....    0
 Multiplicity           Mult            ....    1
 Number of Electrons    NEL             ....   30
 Basis Dimension        Dim             ....   76

ORBITAL ENERGIES
----------------

  NO   OCC          E(Eh)            E(eV)
   0   2.0000     -19.142494      -520.8937
   1   2.0000     -10.278671      -279.6969
   2   2.0000     -10.213163      -277.9143
   3   2.0000     -10.192111      -277.3414
   4   2.0000      -1.082947       -29.4685
   5   2.0000      -0.807084       -21.9619
   6   2.0000      -0.645793       -17.5729
   7   2.0000      -0.562202       -15.2983
   8   2.0000      -0.492466       -13.4007
   9   2.0000      -0.471521       -12.8307
  10   2.0000      -0.431938       -11.7536
  11   2.0000      -0.413397       -11.2491
  12   2.0000      -0.374782       -10.1983
  13   2.0000      -0.301225        -8.1967
  14   2.0000      -0.254914        -6.9366
  15   0.0000      -0.047534        -1.2935
  16   0.0000       0.044333         1.2064
  17   0.0000       0.066786         1.8173
  18   0.0000       0.084784         2.3071
  19   0.0000       0.119655         3.2560

MULLIKEN ATOMIC CHARGES
-----------------------
   0 C :    0.163534
   1 O :   -0.134108
   2 C :   -0.171221
   3 C :    0.151415
   4 H :   -0.030195
   5 H :    0.038974
   6 H :   -0.023470
   7 H :    0.005071
Sum of atomic charges:    0.0000000

LOEWDIN ATOMIC CHARGES
----------------------
   0 C :   -0.073694
   1 O :    0.061279
   2 C :   -0.068859
   3 C :    0.002791
   4 H :   -0.010532
   5 H :    0.057683
   6 H :    0.004591
   7 H :    0.026743

  Mayer bond orders larger than 0.100000
B(  0-C ,  1-O ) :   2.2581 B(  0-C ,  2-C ) :   1.0072 B(  0-C ,  4-H ) :   0.8977
B(  2-C ,  3-C ) :   1.9831 B(  2-C ,  5-H ) :   0.9227 B(  3-C ,  6-H ) :   0.9510
B(  3-C ,  7-H ) :   0.9320

-----------------------------------------------------------------------------
         ABSORPTION SPECTRUM VIA TRANSITION ELECTRIC DIPOLE MOMENTS
-----------------------------------------------------------------------------
State   Energy    Wavelength  fosc         T2        TX        TY        TZ
        (cm-1)      (nm)                 (au**2)    (au)      (au)      (au)
-----------------------------------------------------------------------------
   1   32665.9    306.1   0.000081499   0.00082  -0.02654   0.00675  -0.00846

FINAL SINGLE POINT ENERGY      -191.625285049124

DIPOLE MOMENT
-------------
                                X             Y             Z
Electronic contribution:     -3.35787      -0.52871       1.16321
Nuclear contribution   :      4.26616       0.65306      -1.59989
                        -----------------------------------------
Total Dipole Moment    :      0.90829       0.12435      -0.43668
                        -----------------------------------------
Magnitude (a.u.)       :      1.01545
Magnitude (Debye)      :      2.58108

Rotational constants in cm-1:     1.486948     0.159078     0.145348
Rotational constants in MHz : 44577.568601  4769.023675  4357.415612

                             ****ORCA TERMINATED NORMALLY****
TOTAL RUN TIME: 0 days 0 hours 3 minutes 17 seconds 76 msec
