                         Program Version 5.0.3 -  RELEASE  -
|  1> ! B3LYP cc-pVDZ
|  2> !TightSCF
|  3> %scf
|  4>  ConvForced true
|  5>  convergence tight
|  6>  MaxIter 500
|  7> end
|  8>
|  9> %tddft
| 10>  nroots 1
| 11> end
| 12>
| 13> # 	18229
| 14> * xyz 0 1
| 15> 		C   -1.179002  -0.352515   0.079161
| 16> 		O   -1.592964  -1.148132   0.770453
| 17> 		C   -0.044496   0.470212   0.221726
| 18> 		C    1.171209  -0.006049  -0.172852
| 19> 		H   -1.616260  -0.233027  -0.925571
| 20> 		H   -0.049712   1.577241   0.628869
| 21> 		H    1.237592  -1.052290  -0.483799
| 22> 		H    2.084748   0.684696  -0.041568
| 23> *
| 24>
| 25>                          ****END OF INPUT****

CARTESIAN COORDINATES (ANGSTROEM)
---------------------------------
  C     -1.179002   -0.352515    0.079161
  O     -1.592964   -1.148132    0.770453
  C     -0.044496    0.470212    0.221726
  C      1.171209   -0.006049   -0.172852
  H     -1.616260   -0.233027   -0.925571
  H     -0.049712    1.577241    0.628869
  H      1.237592   -1.052290   -0.483799
  H      2.084748    0.684696   -0.041568

 Total Charge           Charge          ....    0
 Multiplicity           Mult            ....    1
 Number of Electrons    NEL             ....   30
 Basis Dimension        Dim             ....   76

ORBITAL ENERGIES
----------------

  NO   OCC          E(Eh)            E(eV)
   0   2.0000     -19.142331      -520.8893
   1   2.0000     -10.269330      -279.4427
   2   2.0000     -10.212374      -277.8928
   3   2.0000     -10.208936      -277.7993
   4   2.0000      -1.097731       -29.8708
   5   2.0000      -0.800303       -21.7773
   6   2.0000      -0.652010       -17.7421
   7   2.0000      -0.548680       -14.9303
   8   2.0000      -0.505236       -13.7482
   9   2.0000      -0.464703       -12.6452
  10   2.0000      -0.448220       -12.1967
  11   2.0000      -0.400428       -10.8962
  12   2.0000      -0.381542       -10.3823
  13   2.0000      -0.281027        -7.6471
  14   2.0000      -0.253085        -6.8868
  15   0.0000      -0.020418        -0.5556
  16   0.0000      -0.015502        -0.4218
  17   0.0000       0.074937         2.0391
  18   0.0000       0.090401         2.4599
  19   0.0000       0.112312         3.0562

MULLIKEN ATOMIC CHARGES
-----------------------
   0 C :    0.185258
   1 O :   -0.113749
   2 C :   -0.128758
   3 C :   -0.010314
   4 H :   -0.046041
   5 H :    0.040994
   6 H :    0.025831
   7 H :    0.046778
Sum of atomic charges:   -0.0000000

LOEWDIN ATOMIC CHARGES
----------------------
   0 C :   -0.100686
   1 O :    0.091457
   2 C :   -0.065883
   3 C :   -0.035516
   4 H :   -0.016451
   5 H :    0.056697
   6 H :    0.025930
   7 H :    0.044451

  Mayer bond orders larger than 0.100000
B(  0-C ,  1-O ) :   2.3283 B(  0-C ,  2-C ) :   0.9869 B(  0-C ,  4-H ) :   0.9024
B(  2-C ,  3-C ) :   2.0279 B(  2-C ,  5-H ) :   0.9257 B(  3-C ,  6-H ) :   0.9453
B(  3-C ,  7-H ) :   0.9423

-----------------------------------------------------------------------------
         ABSORPTION SPECTRUM VIA TRANSITION ELECTRIC DIPOLE MOMENTS
-----------------------------------------------------------------------------
State   Energy    Wavelength  fosc         T2        TX        TY        TZ
        (cm-1)      (nm)                 (au**2)    (au)      (au)      (au)
-----------------------------------------------------------------------------
   1   36437.2    274.4   0.000065138   0.00059  -0.01719  -0.01539   0.00750

FINAL SINGLE POINT ENERGY      -191.603877936338

DIPOLE MOMENT
-------------
                                X             Y             Z
Electronic contribution:     -2.69913      -1.37665       1.28346
Nuclear contribution   :      3.17306       1.97739      -1.63585
                        -----------------------------------------
Total Dipole Moment    :      0.47393       0.60073      -0.35239
                        -----------------------------------------
Magnitude (a.u.)       :      0.84241
Magnitude (Debye)      :      2.14125

Rotational constants in cm-1:     0.998120     0.180755     0.167207
Rotational constants in MHz : 29922.873436  5418.906909  5012.751215

                             ****ORCA TERMINATED NORMALLY****
TOTAL RUN TIME: 0 days 0 hours 3 minutes 23 seconds 262 msec
