                         Program Version 5.0.3 -  RELEASE  -
|  1> ! B3LYP cc-pVDZ
|  2> !TightSCF
|  3> %scf
|  4>  ConvForced true
|  5>  convergence tight
|  6>  MaxIter 500
|  7> end
|  8>
|  9> %tddft
| 10>  nroots 1
| 11> end
| 12>
| 13> # 	13772
| 14> * xyz 0 1
| 15> 		C   -1.216758  -0.308074  -0.034658
| 16> 		O   -1.681717  -0.917031  -0.974752
| 17> 		C    0.053390   0.490234  -0.260871
| 18> 		C    1.183723   0.056284   0.182081
| 19> 		H   -1.724360  -0.326461   1.034760
| 20> 		H    0.020372   1.400462  -0.865949
| 21> 		H    1.213997  -0.877534   0.806590
| 22> 		H    2.114183   0.494294   0.073478
| 23> *
| 24>
| 25>                          ****END OF INPUT****

CARTESIAN COORDINATES (ANGSTROEM)
---------------------------------
  C     -1.216758   -0.308074   -0.034658
  O     -1.681717   -0.917031   -0.974752
  C      0.053390    0.490234   -0.260871
  C      1.183723    0.056284    0.182081
  H     -1.724360   -0.326461    1.034760
  H      0.020372    1.400462   -0.865949
  H      1.213997   -0.877534    0.806590
  H      2.114183    0.494294    0.073478

 Total Charge           Charge          ....    0
 Multiplicity           Mult            ....    1
 Number of Electrons    NEL             ....   30
 Basis Dimension        Dim             ....   76

ORBITAL ENERGIES
----------------

  NO   OCC          E(Eh)            E(eV)
   0   2.0000     -19.148600      -521.0599
   1   2.0000     -10.290768      -280.0260
   2   2.0000     -10.202173      -277.6152
   3   2.0000     -10.194178      -277.3977
   4   2.0000      -1.053711       -28.6729
   5   2.0000      -0.800590       -21.7852
   6   2.0000      -0.639110       -17.3911
   7   2.0000      -0.558251       -15.1908
   8   2.0000      -0.490797       -13.3553
   9   2.0000      -0.469736       -12.7822
  10   2.0000      -0.439881       -11.9698
  11   2.0000      -0.387007       -10.5310
  12   2.0000      -0.372959       -10.1487
  13   2.0000      -0.293775        -7.9940
  14   2.0000      -0.257247        -7.0000
  15   0.0000      -0.040986        -1.1153
  16   0.0000       0.008690         0.2365
  17   0.0000       0.082083         2.2336
  18   0.0000       0.091335         2.4854
  19   0.0000       0.094364         2.5678

MULLIKEN ATOMIC CHARGES
-----------------------
   0 C :    0.140918
   1 O :   -0.176457
   2 C :   -0.071056
   3 C :    0.059906
   4 H :    0.010976
   5 H :    0.013350
   6 H :    0.016187
   7 H :    0.006176
Sum of atomic charges:   -0.0000000

LOEWDIN ATOMIC CHARGES
----------------------
   0 C :   -0.013173
   1 O :    0.009491
   2 C :   -0.059819
   3 C :   -0.026588
   4 H :    0.004746
   5 H :    0.037609
   6 H :    0.032549
   7 H :    0.015185

  Mayer bond orders larger than 0.100000
B(  0-C ,  1-O ) :   2.2108 B(  0-C ,  2-C ) :   0.9625 B(  0-C ,  4-H ) :   0.9009
B(  2-C ,  3-C ) :   2.0482 B(  2-C ,  5-H ) :   0.9396 B(  3-C ,  6-H ) :   0.9421
B(  3-C ,  7-H ) :   0.9453

-----------------------------------------------------------------------------
         ABSORPTION SPECTRUM VIA TRANSITION ELECTRIC DIPOLE MOMENTS
-----------------------------------------------------------------------------
State   Energy    Wavelength  fosc         T2        TX        TY        TZ
        (cm-1)      (nm)                 (au**2)    (au)      (au)      (au)
-----------------------------------------------------------------------------
   1   32525.8    307.4   0.001307051   0.01323  -0.11263  -0.01040  -0.02090

FINAL SINGLE POINT ENERGY      -191.641364709770

DIPOLE MOMENT
-------------
                                X             Y             Z
Electronic contribution:     -2.68137      -0.87960      -1.46577
Nuclear contribution   :      3.18053       1.38117       2.03812
                        -----------------------------------------
Total Dipole Moment    :      0.49915       0.50157       0.57236
                        -----------------------------------------
Magnitude (a.u.)       :      0.91012
Magnitude (Debye)      :      2.31335

Rotational constants in cm-1:     1.013367     0.165739     0.164043
Rotational constants in MHz : 30379.987003  4968.723288  4917.899635

                             ****ORCA TERMINATED NORMALLY****
TOTAL RUN TIME: 0 days 0 hours 3 minutes 22 seconds 40 msec
