                         Program Version 5.0.3 -  RELEASE  -
|  1> ! B3LYP cc-pVDZ
|  2> !TightSCF
|  3> %scf
|  4>  ConvForced true
|  5>  convergence tight
|  6>  MaxIter 500
|  7> end
|  8>
|  9> %tddft
| 10>  nroots 1
| 11> end
| 12>
| 13> # 	7025
| 14> * xyz 0 1
| 15> 		C   -1.169510  -0.387136   0.036636
| 16> 		O   -1.363613  -1.476854   0.560872
| 17> 		C   -0.004348   0.479212   0.103911
| 18> 		C    1.221104   0.019515  -0.196244
| 19> 		H   -2.044597   0.105496  -0.630403
| 20> 		H    0.144998   1.656169   0.469216
| 21> 		H    1.233027  -0.963111  -0.432168
| 22> 		H    2.001759   0.548642   0.093505
| 23> *
| 24>
| 25>                          ****END OF INPUT****

CARTESIAN COORDINATES (ANGSTROEM)
---------------------------------
  C     -1.169510   -0.387136    0.036636
  O     -1.363613   -1.476854    0.560872
  C     -0.004348    0.479212    0.103911
  C      1.221104    0.019515   -0.196244
  H     -2.044597    0.105496   -0.630403
  H      0.144998    1.656169    0.469216
  H      1.233027   -0.963111   -0.432168
  H      2.001759    0.548642    0.093505

 Total Charge           Charge          ....    0
 Multiplicity           Mult            ....    1
 Number of Electrons    NEL             ....   30
 Basis Dimension        Dim             ....   76

ORBITAL ENERGIES
----------------

  NO   OCC          E(Eh)            E(eV)
   0   2.0000     -19.153424      -521.1912
   1   2.0000     -10.293455      -280.0992
   2   2.0000     -10.220237      -278.1068
   3   2.0000     -10.192526      -277.3527
   4   2.0000      -1.048595       -28.5337
   5   2.0000      -0.807456       -21.9720
   6   2.0000      -0.665435       -18.1074
   7   2.0000      -0.538533       -14.6542
   8   2.0000      -0.511686       -13.9237
   9   2.0000      -0.450226       -12.2513
  10   2.0000      -0.445352       -12.1186
  11   2.0000      -0.397530       -10.8174
  12   2.0000      -0.365749        -9.9525
  13   2.0000      -0.290010        -7.8916
  14   2.0000      -0.261750        -7.1226
  15   0.0000      -0.063806        -1.7363
  16   0.0000       0.003493         0.0950
  17   0.0000       0.065957         1.7948
  18   0.0000       0.086308         2.3486
  19   0.0000       0.113413         3.0861

MULLIKEN ATOMIC CHARGES
-----------------------
   0 C :    0.170323
   1 O :   -0.180997
   2 C :   -0.169884
   3 C :    0.161954
   4 H :   -0.007970
   5 H :    0.045019
   6 H :   -0.007953
   7 H :   -0.010492
Sum of atomic charges:   -0.0000000

LOEWDIN ATOMIC CHARGES
----------------------
   0 C :   -0.029241
   1 O :    0.000231
   2 C :   -0.072503
   3 C :    0.023090
   4 H :   -0.002128
   5 H :    0.068009
   6 H :    0.008651
   7 H :    0.003891

  Mayer bond orders larger than 0.100000
B(  0-C ,  1-O ) :   2.2009 B(  0-C ,  2-C ) :   0.9916 B(  0-C ,  4-H ) :   0.8954
B(  2-C ,  3-C ) :   2.0116 B(  2-C ,  5-H ) :   0.9241 B(  3-C ,  6-H ) :   0.9498
B(  3-C ,  7-H ) :   0.9416

-----------------------------------------------------------------------------
         ABSORPTION SPECTRUM VIA TRANSITION ELECTRIC DIPOLE MOMENTS
-----------------------------------------------------------------------------
State   Energy    Wavelength  fosc         T2        TX        TY        TZ
        (cm-1)      (nm)                 (au**2)    (au)      (au)      (au)
-----------------------------------------------------------------------------
   1   29877.8    334.7   0.001656448   0.01825  -0.13236  -0.01584   0.02192

FINAL SINGLE POINT ENERGY      -191.623359397089

DIPOLE MOMENT
-------------
                                X             Y             Z
Electronic contribution:     -2.05485      -1.84414       0.73642
Nuclear contribution   :      2.56996       2.64855      -0.98485
                        -----------------------------------------
Total Dipole Moment    :      0.51511       0.80441      -0.24843
                        -----------------------------------------
Magnitude (a.u.)       :      0.98698
Magnitude (Debye)      :      2.50870

Rotational constants in cm-1:     0.850194     0.185886     0.160229
Rotational constants in MHz : 25488.178385  5572.730836  4803.553016

                             ****ORCA TERMINATED NORMALLY****
TOTAL RUN TIME: 0 days 0 hours 2 minutes 55 seconds 196 msec
