                         Program Version 5.0.3 -  RELEASE  -
|  1> ! HF-3c
|  2> !TightSCF
|  3> %scf
|  4>  ConvForced true
|  5>  convergence tight
|  6>  MaxIter 500
|  7> end
|  8>
|  9> %tddft
| 10>  nroots 1
| 11> end
| 12>
| 13> # 	23987
| 14> * xyz 0 1
| 15> 		C   -0.570441  -0.386618   0.042137
| 16> 		O   -0.554965  -1.619744  -0.010410
| 17> 		C    0.630334   0.414007  -0.037691
| 18> 		C    1.790803  -0.178465   0.011381
| 19> 		H   -1.515169  -0.002365  -0.065963
| 20> 		H    0.595725   1.511008   0.026298
| 21> 		H    2.124792  -1.199361  -0.067662
| 22> 		H    2.541123   0.475052   0.091582
| 23> *
| 24>
| 25>                          ****END OF INPUT****

CARTESIAN COORDINATES (ANGSTROEM)
---------------------------------
  C     -0.570441   -0.386618    0.042137
  O     -0.554965   -1.619744   -0.010410
  C      0.630334    0.414007   -0.037691
  C      1.790803   -0.178465    0.011381
  H     -1.515169   -0.002365   -0.065963
  H      0.595725    1.511008    0.026298
  H      2.124792   -1.199361   -0.067662
  H      2.541123    0.475052    0.091582

 Total Charge           Charge          ....    0
 Multiplicity           Mult            ....    1
 Number of Electrons    NEL             ....   30
 Basis Dimension        Dim             ....   24

ORBITAL ENERGIES
----------------

  NO   OCC          E(Eh)            E(eV)
   0   2.0000     -20.354421      -553.8720
   1   2.0000     -11.288558      -307.1773
   2   2.0000     -11.201275      -304.8022
   3   2.0000     -11.197715      -304.7053
   4   2.0000      -1.387121       -37.7455
   5   2.0000      -1.101993       -29.9868
   6   2.0000      -0.910016       -24.7628
   7   2.0000      -0.772253       -21.0141
   8   2.0000      -0.720464       -19.6048
   9   2.0000      -0.626871       -17.0580
  10   2.0000      -0.591426       -16.0935
  11   2.0000      -0.540513       -14.7081
  12   2.0000      -0.538394       -14.6504
  13   2.0000      -0.422538       -11.4978
  14   2.0000      -0.399913       -10.8822
  15   0.0000       0.123685         3.3656
  16   0.0000       0.309493         8.4217
  17   0.0000       0.567555        15.4440
  18   0.0000       0.629298        17.1241
  19   0.0000       0.694060        18.8863

MULLIKEN ATOMIC CHARGES
-----------------------
   0 C :    0.135397
   1 O :   -0.340041
   2 C :   -0.172226
   3 C :   -0.228873
   4 H :    0.142820
   5 H :    0.152864
   6 H :    0.168629
   7 H :    0.141430
Sum of atomic charges:   -0.0000000

LOEWDIN ATOMIC CHARGES
----------------------
   0 C :    0.131605
   1 O :   -0.255248
   2 C :   -0.124802
   3 C :   -0.120056
   4 H :    0.072590
   5 H :    0.099734
   6 H :    0.111390
   7 H :    0.084788

  Mayer bond orders larger than 0.100000
B(  0-C ,  1-O ) :   1.8902 B(  0-C ,  2-C ) :   1.0443 B(  0-C ,  4-H ) :   0.9413
B(  2-C ,  3-C ) :   1.9395 B(  2-C ,  5-H ) :   0.9552 B(  3-C ,  6-H ) :   0.9592
B(  3-C ,  7-H ) :   0.9664

-----------------------------------------------------------------------------
         ABSORPTION SPECTRUM VIA TRANSITION ELECTRIC DIPOLE MOMENTS
-----------------------------------------------------------------------------
State   Energy    Wavelength  fosc         T2        TX        TY        TZ
        (cm-1)      (nm)                 (au**2)    (au)      (au)      (au)
-----------------------------------------------------------------------------
   1   29650.1    337.3   0.000107573   0.00119  -0.03171  -0.00436  -0.01305

Dispersion correction           -0.026179722
FINAL SINGLE POINT ENERGY      -189.331684313691

DIPOLE MOMENT
-------------
                                X             Y             Z
Electronic contribution:     -2.01087      -1.61366       0.04144
Nuclear contribution   :      2.35576       2.52214      -0.01544
                        -----------------------------------------
Total Dipole Moment    :      0.34489       0.90848       0.02600
                        -----------------------------------------
Magnitude (a.u.)       :      0.97209
Magnitude (Debye)      :      2.47086

Rotational constants in cm-1:     0.759421     0.222411     0.172239
Rotational constants in MHz : 22766.869279  6667.717497  5163.597617

                             ****ORCA TERMINATED NORMALLY****
TOTAL RUN TIME: 0 days 0 hours 0 minutes 11 seconds 131 msec
