                         Program Version 5.0.3 -  RELEASE  -
|  1> ! B3LYP cc-pVDZ
|  2> !TightSCF
|  3> %scf
|  4>  ConvForced true
|  5>  convergence tight
|  6>  MaxIter 500
|  7> end
|  8>
|  9> %tddft
| 10>  nroots 1
| 11> end
| 12>
| 13> # 	29953
| 14> * xyz 0 1
| 15> 		C   -0.557522  -0.467747  -0.047179
| 16> 		O   -0.590861  -1.670497   0.021686
| 17> 		C    0.618503   0.501114   0.041403
| 18> 		C    1.840633  -0.127564   0.004155
| 19> 		H   -1.548547   0.116403  -0.006415
| 20> 		H    0.452885   1.658187  -0.081458
| 21> 		H    1.925148  -1.366818  -0.235932
| 22> 		H    2.892661   0.478741  -0.000550
| 23> *
| 24>
| 25>                          ****END OF INPUT****

CARTESIAN COORDINATES (ANGSTROEM)
---------------------------------
  C     -0.557522   -0.467747   -0.047179
  O     -0.590861   -1.670497    0.021686
  C      0.618503    0.501114    0.041403
  C      1.840633   -0.127564    0.004155
  H     -1.548547    0.116403   -0.006415
  H      0.452885    1.658187   -0.081458
  H      1.925148   -1.366818   -0.235932
  H      2.892661    0.478741   -0.000550

 Total Charge           Charge          ....    0
 Multiplicity           Mult            ....    1
 Number of Electrons    NEL             ....   30
 Basis Dimension        Dim             ....   76

ORBITAL ENERGIES
----------------

  NO   OCC          E(Eh)            E(eV)
   0   2.0000     -19.143261      -520.9146
   1   2.0000     -10.281504      -279.7739
   2   2.0000     -10.243662      -278.7442
   3   2.0000     -10.223368      -278.1920
   4   2.0000      -1.050724       -28.5917
   5   2.0000      -0.781253       -21.2590
   6   2.0000      -0.634850       -17.2751
   7   2.0000      -0.523807       -14.2535
   8   2.0000      -0.491384       -13.3713
   9   2.0000      -0.442407       -12.0385
  10   2.0000      -0.413013       -11.2386
  11   2.0000      -0.399476       -10.8703
  12   2.0000      -0.366057        -9.9609
  13   2.0000      -0.286025        -7.7831
  14   2.0000      -0.254624        -6.9287
  15   0.0000      -0.071558        -1.9472
  16   0.0000       0.038551         1.0490
  17   0.0000       0.052535         1.4296
  18   0.0000       0.064582         1.7574
  19   0.0000       0.110372         3.0034

MULLIKEN ATOMIC CHARGES
-----------------------
   0 C :    0.182814
   1 O :   -0.182621
   2 C :   -0.131608
   3 C :   -0.046097
   4 H :   -0.022294
   5 H :    0.043967
   6 H :    0.093434
   7 H :    0.062405
Sum of atomic charges:    0.0000000

LOEWDIN ATOMIC CHARGES
----------------------
   0 C :   -0.040231
   1 O :    0.000560
   2 C :   -0.107182
   3 C :   -0.009105
   4 H :   -0.011034
   5 H :    0.051421
   6 H :    0.068413
   7 H :    0.047159

  Mayer bond orders larger than 0.100000
B(  0-C ,  1-O ) :   2.1957 B(  0-C ,  2-C ) :   1.0204 B(  0-C ,  4-H ) :   0.9084
B(  2-C ,  3-C ) :   1.9039 B(  2-C ,  5-H ) :   0.9420 B(  3-C ,  6-H ) :   0.9213
B(  3-C ,  7-H ) :   0.9399

-----------------------------------------------------------------------------
         ABSORPTION SPECTRUM VIA TRANSITION ELECTRIC DIPOLE MOMENTS
-----------------------------------------------------------------------------
State   Energy    Wavelength  fosc         T2        TX        TY        TZ
        (cm-1)      (nm)                 (au**2)    (au)      (au)      (au)
-----------------------------------------------------------------------------
   1   27879.4    358.7   0.000264032   0.00312   0.03737   0.02164  -0.03540

FINAL SINGLE POINT ENERGY      -191.647390803021

DIPOLE MOMENT
-------------
                                X             Y             Z
Electronic contribution:     -1.87042      -1.74759       0.18140
Nuclear contribution   :      2.33155       2.61898      -0.30402
                        -----------------------------------------
Total Dipole Moment    :      0.46113       0.87140      -0.12262
                        -----------------------------------------
Magnitude (a.u.)       :      0.99348
Magnitude (Debye)      :      2.52524

Rotational constants in cm-1:     0.704180     0.203414     0.158172
Rotational constants in MHz : 21110.799450  6098.207511  4741.883388

                             ****ORCA TERMINATED NORMALLY****
TOTAL RUN TIME: 0 days 0 hours 3 minutes 23 seconds 171 msec
